/*--------------------------------*- C++ -*----------------------------------*\
  =========                 |
  \\      /  F ield         | OpenFOAM: The Open Source CFD Toolbox
   \\    /   O peration     | Website:  https://openfoam.org
    \\  /    A nd           | Version:  6.0
     \\/     M anipulation  |
\*---------------------------------------------------------------------------*/
FoamFile
{
    version     2.0;
    format      ascii;
    class       volScalarField;
    location    "3";
    object      p;
}
// * * * * * * * * * * * * * * * * * * * * * * * * * * * * * * * * * * * * * //

dimensions      [1 -1 -2 0 0 0 0];

internalField   nonuniform List<scalar> 
4800
(
1
1
1
1
1
1
1
1
1
1
1.00001
1.00001
1.00002
1.00005
1.0001
1.00021
1.00043
1.00088
1.0018
1.0037
1.0076
1.01562
1.03213
1.0663
1.13765
1.28953
1.62632
2.44449
4.93803
18.2343
17.5532
16.1718
15.3771
15.1446
14.6817
13.51
12.6331
13.4498
13.298
12.167
1
1
1
1
1
1
1
1
1
1
1.00001
1.00001
1.00002
1.00005
1.0001
1.00021
1.00043
1.00088
1.0018
1.0037
1.0076
1.01561
1.03212
1.06628
1.13763
1.2895
1.62631
2.44463
4.93923
18.2463
17.5583
16.1525
15.3179
15.3409
14.8676
12.9102
12.7848
12.9
13.1205
13.1537
1
1
1
1
1
1
1
1
1
1
1.00001
1.00001
1.00002
1.00005
1.0001
1.00021
1.00043
1.00088
1.0018
1.0037
1.0076
1.01561
1.03211
1.06626
1.13758
1.28942
1.62618
2.44456
4.94019
18.2585
17.5749
16.1259
15.2678
15.3603
15.0512
12.0552
15.3865
13.0521
13.0167
13.1219
1
1
1
1
1
1
1
1
1
1
1.00001
1.00001
1.00002
1.00005
1.0001
1.00021
1.00043
1.00088
1.0018
1.0037
1.0076
1.0156
1.0321
1.06623
1.13752
1.28928
1.62589
2.44398
4.9394
18.239
17.5776
16.1046
15.377
15.1498
15.1524
12.5316
15.1478
13.2666
13.1986
13.0503
1
1
1
1
1
1
1
1
1
1
1.00001
1.00001
1.00002
1.00005
1.0001
1.00021
1.00043
1.00088
1.0018
1.0037
1.0076
1.01561
1.03211
1.06625
1.13755
1.2893
1.62579
2.44352
4.93739
18.1564
17.5251
16.1104
15.3182
14.9437
14.6603
11.3798
14.6868
13.2331
12.9915
12.9226
1
1
1
1
1
1
1
1
1
1
1.00001
1.00001
1.00002
1.00005
1.0001
1.00021
1.00043
1.00088
1.0018
1.0037
1.0076
1.01562
1.03214
1.06632
1.13767
1.28954
1.62626
2.44451
4.9403
18.0788
17.4567
16.0778
15.1108
14.7355
14.1374
11.9502
12.8753
12.9058
12.883
13.2664
1
1
1
1
1
1
1
1
1
1
1.00001
1.00001
1.00002
1.00005
1.0001
1.00021
1.00043
1.00088
1.00181
1.00371
1.00761
1.01564
1.03219
1.06641
1.13788
1.28998
1.62719
2.44681
4.94905
18.0338
17.3981
16.009
14.9966
14.2859
13.6582
12.2588
12.9336
13.1984
13.0606
13.2014
1
1
1
1
1
1
1
1
1
1
1.00001
1.00001
1.00002
1.00005
1.0001
1.00021
1.00043
1.00088
1.00181
1.00371
1.00763
1.01567
1.03225
1.06655
1.13818
1.29065
1.62872
2.45079
4.9646
18.0351
17.379
15.9325
14.773
13.9214
13.4503
12.4701
12.5988
13.0264
13.1497
12.6575
1
1
1
1
1
1
1
1
1
1
1.00001
1.00001
1.00002
1.00005
1.0001
1.00021
1.00043
1.00088
1.00181
1.00372
1.00764
1.0157
1.03231
1.06669
1.1385
1.29138
1.63048
2.45573
4.98587
18.1048
17.4059
15.8972
14.6693
13.7529
13.2439
12.5852
12.6279
12.8388
13.1424
12.6667
1
1
1
1
1
1
1
1
1
1
1.00001
1.00001
1.00002
1.00005
1.0001
1.00021
1.00043
1.00088
1.00182
1.00373
1.00766
1.01573
1.03238
1.06683
1.13879
1.29205
1.63209
2.46032
5.00679
18.1825
17.4587
15.8951
14.661
13.7393
13.153
12.6587
12.7053
12.8318
13.1406
12.98
1
1
1
1
1
1
1
1
1
1
1.00001
1.00001
1.00002
1.00005
1.0001
1.00021
1.00043
1.00088
1.00182
1.00373
1.00766
1.01575
1.03243
1.06695
1.13905
1.29262
1.63343
2.46406
5.02417
18.2315
17.4931
15.9101
14.6834
13.7194
13.141
12.7676
12.6183
12.7615
13.1596
13.2175
1
1
1
1
1
1
1
1
1
1
1.00001
1.00001
1.00002
1.00005
1.0001
1.00021
1.00043
1.00088
1.00181
1.00372
1.00765
1.01574
1.03243
1.06698
1.1392
1.29302
1.63446
2.46696
5.03755
18.2489
17.5143
15.9452
14.5878
13.7022
13.1456
12.9817
12.6595
12.6283
12.9001
13.38
1
1
1
1
1
1
1
1
1
1
1.00001
1.00001
1.00002
1.00005
1.0001
1.00021
1.00043
1.00088
1.0018
1.00371
1.00763
1.01569
1.03233
1.06683
1.13899
1.29284
1.63459
2.46845
5.04753
18.2668
17.5344
15.968
14.5393
13.7243
13.1651
13.1223
13.0829
12.9648
12.8523
13.4695
1
1
1
1
1
1
1
1
1
1
1.00001
1.00001
1.00002
1.00005
1.0001
1.00021
1.00043
1.00088
1.0018
1.00369
1.0076
1.01563
1.0322
1.06655
1.13842
1.29172
1.63255
2.46529
5.04776
18.3386
17.5353
15.9062
14.5752
13.7299
13.1804
13.1844
13.1554
13.4601
13.1567
13.5062
1
1
1
1
1
1
1
1
1
1
1.00001
1.00001
1.00002
1.00005
1.0001
1.00021
1.00043
1.00087
1.0018
1.00369
1.00758
1.01558
1.0321
1.06632
1.13788
1.29047
1.62955
2.4576
5.02305
18.1418
17.3941
15.8083
14.7052
13.5857
13.206
13.2188
13.1846
13.5815
13.2827
13.516
1
1
1
1
1
1
1
1
1
1
1.00001
1.00001
1.00002
1.00005
1.0001
1.00021
1.00043
1.00088
1.0018
1.00369
1.00757
1.01557
1.03205
1.06619
1.13757
1.28967
1.62744
2.45165
4.99843
17.7858
17.0852
15.6239
14.6809
13.5034
13.1774
13.2536
13.2664
13.577
13.4693
13.4893
1
1
1
1
1
1
1
1
1
1
1.00001
1.00001
1.00002
1.00005
1.0001
1.00021
1.00043
1.00088
1.0018
1.00369
1.00758
1.01558
1.03207
1.06619
1.13749
1.28938
1.62648
2.44863
4.98523
17.5224
16.8706
15.4728
14.1416
13.6538
13.004
13.107
13.4397
13.6169
13.6837
13.1975
1
1
1
1
1
1
1
1
1
1
1.00001
1.00001
1.00002
1.00005
1.0001
1.00021
1.00043
1.00088
1.0018
1.0037
1.0076
1.01561
1.03212
1.06627
1.13761
1.28951
1.62649
2.44809
4.98113
17.3024
16.6794
15.3474
13.9128
13.6393
12.9353
12.8822
13.5603
13.541
13.6747
13.0183
1
1
1
1
1
1
1
1
1
1
1.00001
1.00001
1.00002
1.00005
1.0001
1.00021
1.00043
1.00088
1.00181
1.00371
1.00761
1.01563
1.03217
1.06637
1.13782
1.28991
1.62725
2.44975
4.98587
17.1409
16.5191
15.2078
14.0287
13.0922
13.0286
12.8656
12.9505
12.9194
13.0285
12.9591
1
1
1
1
1
1
1
1
1
1
1.00001
1.00001
1.00002
1.00005
1.0001
1.00021
1.00043
1.00088
1.00181
1.00371
1.00762
1.01565
1.0322
1.06645
1.13796
1.29021
1.62789
2.45147
4.99275
17.0029
16.3766
15.0401
14.3411
12.8648
12.7889
12.8643
12.4824
12.7663
12.7239
12.977
1
1
1
1
1
1
1
1
1
1
1.00001
1.00001
1.00002
1.00005
1.0001
1.00021
1.00043
1.00088
1.00181
1.00371
1.00763
1.01567
1.03224
1.06653
1.13814
1.29056
1.62855
2.45309
4.99843
16.8463
16.2353
14.904
13.9675
12.9331
12.4894
12.5375
12.4349
12.6989
12.4907
13.041
1
1
1
1
1
1
1
1
1
1
1.00001
1.00001
1.00002
1.00005
1.0001
1.00021
1.00043
1.00088
1.00181
1.00372
1.00764
1.01569
1.03229
1.06663
1.13836
1.29102
1.62954
2.45553
5.00651
16.6941
16.1062
14.7896
13.5018
13.2072
12.4014
12.4509
13.0507
12.673
12.3307
12.8299
1
1
1
1
1
1
1
1
1
1
1.00001
1.00001
1.00002
1.00005
1.0001
1.00021
1.00043
1.00088
1.00181
1.00372
1.00765
1.01571
1.03233
1.06673
1.13858
1.29153
1.63074
2.45872
5.01786
16.565
15.9796
14.6598
13.3177
12.6549
12.4984
12.6375
12.7607
12.9542
12.307
12.5517
1
1
1
1
1
1
1
1
1
1
1.00001
1.00001
1.00002
1.00005
1.0001
1.00021
1.00043
1.00089
1.00182
1.00373
1.00766
1.01574
1.03238
1.06683
1.1388
1.29204
1.63195
2.46214
5.03058
16.4553
15.8486
14.5013
13.1791
12.2868
12.1851
11.8795
11.72
12.1897
12.4122
12.8776
1
1
1
1
1
1
1
1
1
1
1.00001
1.00001
1.00002
1.00005
1.0001
1.00021
1.00043
1.00089
1.00183
1.00374
1.00768
1.01577
1.03244
1.06693
1.139
1.2925
1.63308
2.46543
5.04325
16.3572
15.7334
14.3063
13.0552
12.1615
11.6086
11.489
11.5185
11.4889
11.823
13.1109
1
1
1
1
1
1
1
1
1
1
1.00001
1.00001
1.00002
1.00005
1.0001
1.00021
1.00044
1.00089
1.00183
1.00376
1.00771
1.01582
1.03252
1.06707
1.13925
1.29298
1.63417
2.46845
5.05356
16.2577
15.6222
14.1053
12.9329
12.056
11.4166
11.3708
11.4194
11.2616
11.5581
11.6625
1
1
1
1
1
1
1
1
1
1
1.00001
1.00001
1.00002
1.00005
1.0001
1.00021
1.00044
1.0009
1.00184
1.00377
1.00773
1.01586
1.03261
1.06724
1.13954
1.2935
1.63519
2.47088
5.05914
16.1331
15.4787
13.9756
12.7952
11.9372
11.2559
11.2733
11.3487
11.1122
11.4933
11.2336
1
1
1
1
1
1
1
1
1
1
1.00001
1.00001
1.00002
1.00005
1.0001
1.00021
1.00044
1.00089
1.00184
1.00377
1.00773
1.01588
1.03265
1.06734
1.13975
1.29388
1.63593
2.47245
5.06032
15.9931
15.3255
13.9267
12.6386
11.8013
11.112
11.1852
11.2418
11.2583
11.4196
11.0636
1
1
1
1
1
1
1
1
1
1
1.00001
1.00001
1.00002
1.00005
1.0001
1.00021
1.00043
1.00089
1.00183
1.00376
1.00773
1.01587
1.03265
1.06735
1.13978
1.29395
1.63595
2.47193
5.05233
15.7827
15.2088
13.9174
12.4687
11.6538
10.997
11.0976
11.1747
12.0647
11.3238
10.9811
1
1
1
1
1
1
1
1
1
1
1.00001
1.00001
1.00002
1.00005
1.0001
1.00021
1.00043
1.00089
1.00182
1.00375
1.00771
1.01584
1.0326
1.06727
1.13965
1.29369
1.6353
2.46958
5.03532
15.495
15.1004
13.931
12.3125
11.4874
10.9341
11.028
11.3285
12.0319
11.5096
11.0495
1
1
1
1
1
1
1
1
1
1
1.00001
1.00001
1.00002
1.00005
1.0001
1.00021
1.00043
1.00088
1.00181
1.00373
1.00767
1.01577
1.03248
1.06707
1.13929
1.29303
1.63394
2.46586
5.01554
15.2118
14.8508
13.9802
12.1911
11.3081
11.0079
11.0298
11.4106
10.8449
11.7237
11.0918
1
1
1
1
1
1
1
1
1
1
1.00001
1.00001
1.00002
1.00005
1.0001
1.00021
1.00043
1.00088
1.0018
1.0037
1.00762
1.01568
1.0323
1.06673
1.13867
1.29184
1.63152
2.45994
4.99123
14.9626
14.5537
13.6956
12.1322
11.1296
11.0371
10.9542
10.8964
10.4736
11.088
11.0728
1
1
1
1
1
1
1
1
1
1
1.00001
1.00001
1.00002
1.00005
1.0001
1.00021
1.00042
1.00087
1.00179
1.00367
1.00756
1.01555
1.03205
1.06625
1.13773
1.29
1.62773
2.45087
4.95848
14.7266
14.2843
13.2804
12.2587
10.9866
10.6418
10.5092
10.615
10.3875
10.7727
10.9724
1
1
1
1
1
1
1
1
1
1
1.00001
1.00001
1.00002
1.00005
1.0001
1.0002
1.00042
1.00086
1.00177
1.00364
1.00748
1.0154
1.03174
1.06561
1.13645
1.28741
1.62231
2.43793
4.91456
14.4856
14.0387
12.9512
12.0796
10.9106
10.5013
10.4119
10.4325
10.4476
10.6404
10.8114
1
1
1
1
1
1
1
1
1
1
1.00001
1.00001
1.00002
1.00005
1.0001
1.0002
1.00042
1.00085
1.00175
1.0036
1.0074
1.01522
1.03136
1.06482
1.13481
1.28398
1.61493
2.42022
4.85664
14.2284
13.8054
12.617
11.6347
10.8359
10.4621
10.3587
10.1864
10.5371
10.4687
10.6714
1
1
1
1
1
1
1
1
1
1
1.00001
1.00001
1.00002
1.00005
1.0001
1.0002
1.00041
1.00084
1.00173
1.00355
1.0073
1.01501
1.03091
1.06386
1.13278
1.27962
1.60527
2.39661
4.7813
13.9582
13.5294
12.3402
11.4933
10.9728
10.4011
10.3244
10.1274
10.5473
10.1994
10.5352
1
1
1
1
1
1
1
1
1
1
1.00001
1.00001
1.00002
1.00005
1.0001
1.0002
1.0004
1.00083
1.0017
1.00349
1.00717
1.01474
1.03035
1.06268
1.13026
1.27414
1.5929
2.36582
4.68401
13.675
13.2169
12.1427
11.3812
11.032
10.3486
10.2436
10.102
10.3476
9.91702
10.4219
1
1
1
1
1
1
1
1
1
1
1.00001
1.00001
1.00002
1.00005
1.00009
1.00019
1.00039
1.00081
1.00166
1.00341
1.007
1.01439
1.02962
1.06117
1.12708
1.26728
1.57742
2.32703
4.56221
13.3865
12.9581
11.9941
11.2865
10.6929
10.3956
10.207
10.195
9.92145
9.65048
10.1069
1
1
1
1
1
1
1
1
1
1
1.00001
1.00001
1.00002
1.00004
1.00009
1.00018
1.00038
1.00078
1.0016
1.00329
1.00677
1.01392
1.02866
1.05919
1.12293
1.25839
1.55741
2.27661
4.40132
13.0839
12.7675
11.8704
11.082
10.3896
10.4032
10.2542
10.0838
9.52386
9.24973
9.46035
1
1
1
1
1
1
1
1
1
1
1
1.00001
1.00002
1.00004
1.00009
1.00018
1.00036
1.00075
1.00153
1.00315
1.00647
1.01331
1.02742
1.05663
1.11758
1.24698
1.53192
2.21348
4.21032
12.8431
12.5756
11.7056
10.9685
10.3332
10.0598
9.91745
9.4454
9.13986
8.8843
8.34374
1
1
1
1
1
1
1
1
1
1
1
1.00001
1.00002
1.00004
1.00007
1.00015
1.0003
1.00063
1.00128
1.00264
1.00541
1.01111
1.02285
1.04707
1.09738
1.20331
1.43285
1.95904
3.40121
12.0223
11.8719
11.5366
10.9681
10.5304
9.95489
9.50611
9.36318
9.03863
8.3017
6.64358
1
1
1
1
1
1
1
1
1
1
1
1.00001
1.00001
1.00003
1.00005
1.00011
1.00023
1.00047
1.00096
1.00197
1.00405
1.0083
1.01706
1.03511
1.07248
1.15069
1.31781
1.69107
2.64173
5.08814
11.6462
11.4915
11.0757
10.596
9.8929
9.41534
9.15574
8.64007
7.34016
5.26301
1
1
1
1
1
1
1
1
1
1
1
1
1.00001
1.00002
1.00003
1.00007
1.00014
1.0003
1.00061
1.00124
1.00254
1.00522
1.0107
1.02196
1.04516
1.09326
1.19425
1.41183
1.92204
3.25888
11.4647
11.3611
11.0345
10.4855
10.0484
9.56663
8.71592
7.74775
6.71313
5.31467
1
1
1
1
1
1
1
1
1
1
1
1
1.00001
1.00001
1.00003
1.00005
1.00011
1.00022
1.00046
1.00094
1.00193
1.00397
1.00814
1.01672
1.0344
1.07096
1.14734
1.31023
1.67474
2.58492
4.9142
11.0827
10.9341
10.4886
9.71814
9.09644
8.16082
7.42586
6.63664
5.45087
1
1
1
1
1
1
1
1
1
1
1
1
1
1.00001
1.00002
1.00003
1.00007
1.00014
1.00029
1.00059
1.00121
1.00248
1.00508
1.01043
1.02141
1.04406
1.09102
1.18958
1.40175
1.89316
3.18992
10.8294
10.7393
10.4116
9.65462
8.86277
8.14986
7.40858
6.63387
5.7549
1
1
1
1
1
1
1
1
1
1
1
1
1
1.00001
1.00001
1.00002
1.00005
1.0001
1.00021
1.00044
1.0009
1.00185
1.00381
1.00783
1.01612
1.03323
1.0687
1.14283
1.30066
1.65157
2.52287
4.72122
10.307
10.1892
9.73518
8.76946
8.13912
7.40056
6.65469
5.73536
1
1
1
1
1
1
1
1
1
1
1
1
1
1
1.00001
1.00002
1.00003
1.00007
1.00014
1.00028
1.00057
1.00117
1.00239
1.0049
1.01006
1.02068
1.04256
1.08797
1.18326
1.38817
1.8611
3.09803
10.0481
9.95219
9.61003
8.79679
8.1536
7.38902
6.75624
5.70621
1
1
1
1
1
1
1
1
1
1
1
1
1
1
1.00001
1.00001
1.00002
1.00005
1.0001
1.0002
1.00041
1.00084
1.00172
1.00352
1.00722
1.01483
1.0305
1.06295
1.13084
1.27565
1.59746
2.39443
4.36704
9.37756
9.26486
8.8267
8.14459
7.55486
6.73177
5.69926
1
1
1
1
1
1
1
1
1
1
1
1
1
1
1
1.00001
1.00001
1.00003
1.00006
1.00012
1.00024
1.0005
1.00103
1.0021
1.00431
1.00883
1.01811
1.03721
1.07674
1.15947
1.33642
1.74099
2.76845
8.79201
8.75353
8.63703
8.24474
7.58503
6.61868
5.75879
1
1
1
1
1
1
1
1
1
1
1
1
1
1
1
1
1.00001
1.00002
1.00004
1.00008
1.00016
1.00033
1.00067
1.00138
1.00283
1.00581
1.01191
1.02446
1.05037
1.10422
1.21785
1.46553
2.05751
3.48206
8.48212
8.41321
8.14712
7.52902
6.52319
6.0901
1
1
1
1
1
1
1
1
1
1
1
1
1
1
1
1
1.00001
1.00001
1.00002
1.00004
1.00009
1.00019
1.00039
1.0008
1.00164
1.00336
1.00688
1.01411
1.02894
1.05957
1.12336
1.2586
1.55996
2.28034
3.936
7.96116
7.8397
7.41752
6.5787
6.27686
1
1
1
1
1
1
1
1
1
1
1
1
1
1
1
1
1
1
1.00001
1.00002
1.00004
1.00009
1.00018
1.00036
1.00074
1.00152
1.00311
1.00636
1.01301
1.02659
1.05446
1.11204
1.23293
1.50217
2.07585
3.47706
7.17838
7.03008
6.5564
6.21215
1
1
1
1
1
1
1
1
1
1
1
1
1
1
1
1
1
1
1
1.00001
1.00002
1.00003
1.00007
1.00014
1.0003
1.00061
1.00125
1.00256
1.00525
1.01074
1.02192
1.04472
1.09151
1.18923
1.39411
1.85053
3.00136
6.09691
6.26498
6.03545
1
1
1
1
1
1
1
1
1
1
1
1
1
1
1
1
1
1
1
1
1.00001
1.00001
1.00003
1.00006
1.00012
1.00025
1.0005
1.00103
1.00211
1.00434
1.0089
1.01826
1.03742
1.07689
1.15893
1.33337
1.72298
2.69536
5.24001
5.2205
1
1
1
1
1
1
1
1
1
1
1
1
1
1
1
1
1
1
1
1
1
1.00001
1.00001
1.00002
1.00005
1.0001
1.00019
1.00039
1.00079
1.00162
1.00336
1.00698
1.01447
1.02986
1.06134
1.12614
1.26239
1.56231
2.30503
4.32711
1
1
1
1
1
1
1
1
1
1
1
1
1
1
1
1
1
1
1
1
1
1
1
1.00001
1.00001
1.00002
1.00005
1.0001
1.0002
1.00041
1.00081
1.00162
1.00321
1.00633
1.01263
1.02557
1.05287
1.11075
1.23366
1.50698
1
1
1
1
1
1
1
1
1
1
1
1
1
1
1
1
1
1
1
1
1
1
1
1
1.00001
1.00002
1.00003
1.00007
1.00015
1.0003
1.0006
1.0012
1.0024
1.00484
1.00982
1.02011
1.04161
1.08695
1.18339
1.39969
1
1
1
1
1
1
1
1
1
1
1
1
1
1
1
1
1
1
1
1
1
1
1
1
1
1.00001
1.00001
1.00003
1.00006
1.00013
1.00027
1.00056
1.00117
1.00239
1.00484
1.00973
1.01941
1.03851
1.07441
1.15014
1
1
1
1
1
1
1
1
1
1
1
1
1
1
1
1
1
1
1
1
1
1
1
1
1
1
1.00001
1.00002
1.00004
1.00008
1.00016
1.00034
1.00069
1.00142
1.00294
1.00611
1.01269
1.02632
1.05444
1.11233
1
1
1
1
1
1
1
1
1
1
1
1
1
1
1
1
1
1
1
1
1
1
1
1
1
1
1.00001
1.00002
1.00003
1.00007
1.00014
1.00028
1.00057
1.00118
1.00243
1.00503
1.01046
1.02182
1.04568
1.09589
1
1
1
1
1
1
1
1
1
1
1
1
1
1
1
1
1
1
1
1
1
1
1
1
1
1
1.00001
1.00001
1.00002
1.00004
1.00009
1.00019
1.00038
1.00077
1.00156
1.00318
1.00649
1.01333
1.02755
1.05758
1
1
1
1
1
1
1
1
1
1
1
1
1
1
1
1
1
1
1
1
1
1
1
1
1
1
1
1.00001
1.00002
1.00004
1.00008
1.00016
1.00033
1.00067
1.00138
1.00284
1.00584
1.012
1.02465
1.05067
1
1
1
1
1
1
1
1
1
1
1
1
1
1
1
1
1
1
1
1
1
1
1
1
1
1
1
1.00001
1.00002
1.00003
1.00007
1.00014
1.00028
1.00057
1.00117
1.0024
1.00492
1.01012
1.02081
1.04284
1
1
1
1
1
1
1
1
1
1
1
1
1
1
1
1
1
1
1
1
1
1
1
1
1
1
1
1
1.00001
1.00002
1.00004
1.00009
1.00018
1.00038
1.00077
1.00158
1.0032
1.00648
1.01319
1.02704
1
1
1
1
1
1
1
1
1
1
1
1
1
1
1
1
1
1
1
1
1
1
1
1
1
1
1
1
1.00001
1.00002
1.00004
1.00007
1.00015
1.00031
1.00063
1.0013
1.00266
1.00548
1.01129
1.02322
1
1
1
1
1
1
1
1
1
1
1
1
1
1
1
1
1
1
1
1
1
1
1
1
1
1
1
1
1.00001
1.00001
1.00003
1.00006
1.00013
1.00026
1.00053
1.00109
1.00225
1.00463
1.00954
1.01968
1
1
1
1
1
1
1
1
1
1
1
1
1
1
1
1
1
1
1
1
1
1
1
1
1
1
1
1
1
1.00001
1.00002
1.00004
1.00009
1.00017
1.00035
1.00072
1.00147
1.003
1.00612
1.01255
1
1
1
1
1
1
1
1
1
1
1
1
1
1
1
1
1
1
1
1
1
1
1
1
1
1
1
1
1
1.00001
1.00002
1.00004
1.00007
1.00015
1.0003
1.00062
1.00125
1.00254
1.00517
1.01057
1
1
1
1
1
1
1
1
1
1
1
1
1
1
1
1
1
1
1
1
1
1
1
1
1
1
1
1
1
1.00001
1.00001
1.00003
1.00006
1.00013
1.00026
1.00053
1.00108
1.00222
1.00454
1.0093
1
1
1
1
1
1
1
1
1
1
1
1
1
1
1
1
1
1
1
1
1
1
1
1
1
1
1
1
1
1
1.00001
1.00002
1.00004
1.00008
1.00017
1.00036
1.00075
1.00157
1.00325
1.00669
1
1
1
1
1
1
1
1
1
1
1
1
1
1
1
1
1
1
1
1
1
1
1
1
1
1
1
1
1
1
1.00001
1.00002
1.00003
1.00007
1.00014
1.00028
1.00058
1.0012
1.00245
1.00502
1
1
1
1
1
1
1
1
1
1
1
1
1
1
1
1
1
1
1
1
1
1
1
1
1
1
1
1
1
1
1
1.00001
1.00002
1.00004
1.00009
1.00019
1.00039
1.00081
1.00166
1.00339
1
1
1
1
1
1
1
1
1
1
1
1
1
1
1
1
1
1
1
1
1
1
1
1
1
1
1
1
1
1
1
1.00001
1.00002
1.00004
1.00007
1.00015
1.00031
1.00063
1.0013
1.00266
1
1
1
1
1
1
1
1
1
1
1
1
1
1
1
1
1
1
1
1
1
1
1
1
1
1
1
1
1
1
1
1.00001
1.00002
1.00003
1.00006
1.00013
1.00027
1.00056
1.00115
1.00237
1
1
1
1
1
1
1
1
1
1
1
1
1
1
1
1
1
1
1
1
1
1
1
1
1
1
1
1
1
1
1
1.00001
1.00001
1.00003
1.00005
1.00011
1.00022
1.00045
1.00093
1.00189
1
1
1
1
1
1
1
1
1
1
1
1
1
1
1
1
1
1
1
1
1
1
1
1
1
1
1
1
1
1
1
1
1.00001
1.00002
1.00003
1.00007
1.00014
1.0003
1.00063
1.00131
1
1
1
1
1
1
1
1
1
1
1
1
1
1
1
1
1
1
1
1
1
1
1
1
1
1
1
1
1
1
1
1
1.00001
1.00001
1.00003
1.00006
1.00012
1.00025
1.00051
1.00103
1
1
1
1
1
1
1
1
1
1
1
1
1
1
1
1
1
1
1
1
1
1
1
1
1
1
1
1
1
1
1
1
1.00001
1.00001
1.00003
1.00006
1.00012
1.00024
1.0005
1.00102
1
1
1
1
1
1
1
1
1
1
1
1
1
1
1
1
1
1
1
1
1
1
1
1
1
1
1
1
1
1
1
1
1.00001
1.00001
1.00003
1.00006
1.00013
1.00026
1.00053
1.00109
1
1
1
1
1
1
1
1
1
1
1
1
1
1
1
1
1
1
1
1
1
1
1
1
1
1
1
1
1
1
1
1
1
1.00001
1.00002
1.00004
1.00009
1.00019
1.0004
1.00083
3.33328
2.46158
1.98298
1.85081
1.85965
1.85757
1.85005
1.82299
1.79833
1.85581
2.04587
2.06451
2.04945
2.06431
2.00517
2.03274
2.09245
2.04233
2.01076
2.12634
2.21351
2.49337
2.17068
2.04976
2.28295
2.40372
2.19443
2.22743
2.31284
2.74007
3.1524
3.14128
2.88774
2.81792
3.33121
3.50929
2.86814
2.89962
3.28386
3.8646
3.43935
2.58107
2.0479
1.63454
1.27316
1.50158
1.49457
1.82521
1.81602
1.81466
1.85831
2.00387
2.07041
2.09005
2.1618
2.14424
2.04532
2.05483
2.00947
2.24255
2.42851
2.16738
2.17597
2.18038
2.21212
2.08032
1.85297
1.90848
2.89138
2.88262
3.0615
3.3907
3.27835
3.40901
2.90327
2.79768
2.95873
3.11623
3.57592
3.54925
3.72682
2.89918
2.27976
1.86297
1.81984
1.69585
1.81407
1.80256
1.82334
1.82195
1.85134
1.88702
1.95313
2.15074
2.21755
2.00621
1.93184
2.02317
2.18317
2.19216
2.15166
2.16833
2.14462
2.17803
2.54455
2.48075
2.30118
2.22663
2.54272
2.46256
2.64544
2.59131
2.53471
2.87678
3.05471
2.86104
2.83094
2.70869
3.19428
4.22918
4.32758
3.59183
2.84352
2.40058
1.99739
1.76359
1.77537
1.80544
1.84325
1.90219
1.96142
1.92748
1.94144
2.06971
2.17293
1.93577
1.96828
2.20026
2.20536
2.15424
2.05394
2.06915
2.14673
2.34005
2.16187
2.2689
2.30268
2.3927
2.62279
2.72793
2.68171
2.70308
2.64646
2.76753
2.90745
2.97205
2.81161
2.97571
3.30338
2.97326
4.70171
3.70139
2.91957
2.42777
2.07084
1.80514
1.75414
1.77137
1.83273
1.90362
1.89605
1.97873
1.94972
2.07055
2.05396
1.89895
1.99814
2.10169
2.11431
2.08063
2.07376
2.11942
2.19141
2.19953
2.14652
2.10916
2.4695
2.44445
2.4071
2.69027
2.5046
2.37368
2.57457
2.68387
2.75963
3.21557
3.52031
2.77037
2.94918
3.12183
4.73473
3.78187
3.01123
2.51881
2.18652
1.86347
1.80126
1.74595
1.80812
1.90748
1.97685
1.97156
1.90618
2.12176
1.9277
1.9508
2.06541
2.08352
2.10412
2.09379
2.05226
2.12885
2.20174
2.10072
2.21196
2.14082
2.35238
2.30887
2.50189
2.42516
2.60671
2.8164
2.55651
2.5422
2.51462
2.82106
3.16302
3.47614
2.99414
3.034
4.74544
3.92324
3.12678
2.62378
2.25997
1.90256
1.81413
1.80474
1.80106
1.82057
1.91243
1.96547
2.10489
2.04371
1.89342
2.01915
2.09912
2.09178
2.15222
2.08359
2.08994
2.13543
2.23894
2.1814
2.20625
2.19299
2.08122
2.07093
2.15458
2.50049
2.59285
2.67722
2.67447
2.76853
2.90567
2.9785
2.97126
3.60925
3.21154
3.06489
4.75576
3.99334
3.24131
2.67089
2.2791
1.98267
1.8277
1.82536
1.83538
1.89109
1.98453
1.98949
1.97473
1.88529
1.95098
2.14881
2.22178
2.18056
2.07337
2.16053
2.23461
2.27083
2.19832
2.0835
2.12482
2.31461
2.28771
2.05121
2.30006
2.78659
2.49559
2.52105
2.49356
2.48897
2.59226
2.80373
3.1651
3.80162
3.76641
3.38259
4.74367
4.01438
3.35492
2.70852
2.37561
2.11624
1.87156
1.87148
1.87112
1.8837
1.90092
1.93356
1.89557
1.94017
2.05625
2.14273
2.21429
2.0959
2.1032
2.25107
2.27779
2.21895
2.17419
2.17024
2.21854
2.27838
2.35295
2.43972
2.35846
2.32396
2.43929
2.34167
2.45315
2.36795
2.58517
2.79373
3.37909
3.04933
3.00282
3.76407
4.73547
4.01743
3.4089
2.94913
2.55742
2.20167
1.93878
1.91963
1.91901
1.91396
1.91378
1.94074
2.00325
2.08637
2.10508
2.14891
2.09367
2.06721
2.20016
2.27888
2.20648
2.30587
2.29386
2.19223
2.37947
2.22808
2.22822
2.34689
2.30292
2.34133
2.5844
2.39298
2.81159
2.87488
2.94371
3.41178
3.54704
2.99701
2.93224
3.65724
4.70946
3.9975
3.43505
3.01766
2.62162
2.27777
1.99823
1.96104
1.96286
1.96986
1.99009
2.00961
2.09308
2.10579
2.12348
2.09021
2.09411
2.17696
2.19406
2.22789
2.12504
2.14476
2.38092
2.54172
2.33197
2.50907
2.4908
2.41654
2.67238
2.95602
2.59981
2.54994
2.65509
2.72726
2.85968
3.41517
3.57947
3.80245
3.54221
3.4901
4.69377
3.96696
3.48109
3.07259
2.68726
2.34311
2.07046
2.02753
2.02961
2.04126
2.04555
2.05156
2.10011
2.11602
2.10035
2.11353
2.15497
2.20615
2.15312
2.21418
2.05854
2.00663
2.28411
2.24239
2.27443
2.05692
2.0508
2.38551
2.72356
2.81091
2.69828
2.57375
2.70394
3.07726
3.05344
3.0762
3.02314
2.86014
3.60409
2.86577
4.64586
3.89425
3.49347
3.18077
2.72777
2.41172
2.19135
2.06855
2.06824
2.06985
2.10312
2.11307
2.12845
2.10428
2.14798
2.22212
2.24395
2.16365
2.12517
2.1531
2.17514
2.25274
2.10831
2.10763
2.30047
2.12849
2.25643
2.27812
2.26196
2.77782
3.40759
3.01392
3.02587
2.90221
2.64739
2.61192
2.85243
2.85719
2.90794
3.38863
4.52921
3.92706
3.4574
3.1932
2.86333
2.53395
2.3429
2.21154
2.18177
2.19394
2.20017
2.18199
2.29611
2.25172
2.21939
2.20318
2.20314
2.20758
2.12332
2.14154
2.17298
2.13608
2.1203
2.38341
2.19116
2.06809
2.44549
2.16017
1.99026
2.26522
2.43735
3.11856
2.50641
2.68722
2.95776
2.58246
2.63449
3.01732
2.95002
3.52419
4.28716
3.93933
3.40748
3.07613
2.97841
2.69658
2.44787
2.38911
2.36578
2.32962
2.2593
2.2132
2.26591
2.31042
2.25844
2.33382
2.20575
2.17666
2.20372
2.17269
2.12405
2.14304
2.14086
2.26203
2.10389
2.31046
2.24525
2.21831
2.44632
2.56116
2.50182
2.98849
2.62246
2.29991
2.64192
2.85121
2.72174
2.86403
3.25552
3.50656
3.96261
3.86669
3.50402
3.09775
2.97439
2.83516
2.49918
2.42941
2.37965
2.37986
2.41376
2.32668
2.28998
2.23453
2.41212
2.38442
2.22135
2.25789
2.16686
2.24941
2.3177
2.12286
2.09788
2.42526
2.34152
2.27133
2.42649
2.20466
2.11163
2.11665
2.41316
3.36645
3.00412
2.3895
2.62018
2.8533
2.65091
2.66912
3.07946
3.54286
3.57756
3.69692
3.55986
3.09831
3.01693
2.91315
2.58933
2.55614
2.53571
2.45294
2.44505
2.50476
2.30317
2.30279
2.49082
2.28314
2.32509
2.33519
2.20767
2.4857
2.23827
2.04443
2.21891
2.54588
2.15845
2.30208
2.3621
2.22551
2.2514
2.36712
2.39604
2.75764
3.05007
2.51359
2.40343
2.72634
2.76788
2.7063
3.07604
4.50771
1.59331
3.37415
3.36094
3.18094
3.04364
2.99148
2.72454
2.6556
2.56768
2.47494
2.46817
2.57796
2.45327
2.41972
2.4608
2.35291
2.37033
2.43842
2.31559
2.45132
2.21018
2.06949
2.16308
2.49999
2.32649
2.24323
2.44366
2.22954
2.20182
2.32224
2.5434
3.32316
2.71041
2.38015
2.48623
3.04216
2.89517
3.14365
3.12863
4.62556
1.47154
3.12105
3.19022
3.14628
3.08026
3.05741
2.78305
2.66158
2.58557
2.51359
2.56176
2.7294
2.51761
2.45458
2.51331
2.43112
2.39343
2.44163
2.43908
2.25678
2.19431
2.20261
2.25236
2.60688
2.28083
2.26593
2.30703
2.18338
2.2351
2.57354
3.41265
2.64357
2.6314
2.73593
2.972
2.82232
2.51124
2.71107
3.44764
3.52973
1.41196
3.40735
3.25044
3.17955
3.1448
2.92741
2.79254
2.65975
2.61718
2.56551
2.8008
2.80529
2.49737
2.52976
2.58328
2.37401
2.43139
2.45962
2.4502
2.28783
2.38456
2.40244
2.43545
2.51046
2.36545
2.55588
2.41986
2.31378
2.47152
2.87187
2.55275
2.55753
2.32817
2.45777
2.83867
3.49764
2.5649
2.61895
3.51918
3.26644
1.23669
1.83296
3.25839
3.22289
3.10679
3.03242
2.91515
2.75155
2.7332
2.87701
2.94546
2.57305
2.55673
2.70971
2.39465
2.38978
2.56031
2.52666
2.41219
2.39781
2.4703
2.58578
2.51262
2.43169
2.63578
2.42284
2.44735
2.73086
2.71061
2.57726
2.6469
2.62837
2.63495
2.62972
2.85029
3.16214
3.58434
2.96124
3.02074
3.86402
1.19407
1.70992
3.03461
3.11677
3.11657
3.10424
3.01207
2.94765
3.02069
3.03411
2.65566
2.64496
2.86159
2.46243
2.37867
2.68259
2.66726
2.53848
2.35158
2.36914
2.65395
2.70868
2.26437
2.46355
2.57597
2.31432
2.51587
3.00668
2.98669
2.64589
2.73809
2.79844
2.83747
2.7003
2.78941
2.93186
3.13319
3.38237
3.31969
3.76725
1.16251
1.60044
2.98136
3.05515
3.08371
3.08639
3.04703
3.08828
3.10222
2.75969
2.73567
3.0229
2.61841
2.41842
2.7329
2.75898
2.72817
2.6106
2.35187
2.39069
2.96583
2.81658
2.27667
2.54683
2.66972
2.36916
2.39448
2.90736
3.46097
3.02696
2.98711
2.74376
2.72529
2.81052
2.97959
2.92308
2.96042
3.45601
3.67891
3.98385
1.10112
1.36064
1.89194
3.03953
3.05937
3.07682
3.10854
3.04019
2.87623
2.91158
3.10148
2.73935
2.53509
2.83934
2.9812
2.70111
2.85555
2.52795
2.45161
2.53148
3.27093
2.54491
2.37857
2.90772
2.68093
2.46321
2.54353
3.22948
3.73572
2.99084
2.72642
2.77521
2.74807
2.99223
3.221
3.06308
3.16292
3.15521
3.05817
3.57047
1.086
1.29806
1.76622
2.99258
3.05706
3.06225
3.01042
2.96384
3.00755
3.05537
2.84441
2.76952
3.04862
3.07804
2.76126
2.9199
2.81342
2.61892
2.552
3.16223
2.93277
2.43488
2.76428
3.07323
2.42054
2.44837
2.88272
3.64615
3.48324
2.74442
2.83615
2.97624
3.09032
3.47196
3.23531
3.14297
3.39859
3.49959
3.03946
3.04236
1.07297
1.25073
1.65083
2.97249
2.96911
2.99769
3.00811
3.04211
3.04764
2.92547
2.97306
3.14635
3.0607
2.87121
2.99988
3.01179
2.75221
2.64218
3.01257
3.3172
2.49065
2.54191
3.20554
2.50721
2.37335
2.54209
3.17731
3.92264
3.19322
3.001
2.91174
3.07979
2.96041
3.17376
3.13854
3.13906
3.50841
3.52952
3.54733
3.01255
1.0462
1.1591
1.40684
1.90512
2.91856
3.05997
3.05802
3.04143
3.01428
3.0631
3.15464
3.04037
2.9668
3.1285
3.03858
2.75729
2.673
3.1142
3.44154
2.58903
2.72549
3.32093
2.67676
2.49569
2.61763
3.26474
3.93807
3.152
2.90811
3.09439
2.76359
2.77483
2.89922
2.90883
2.90701
3.27502
3.90708
3.45158
3.25148
2.96
1.03843
1.12996
1.32468
1.75807
2.86868
3.0529
3.05023
3.05611
3.12308
3.15972
3.06551
3.0355
3.12337
3.10556
2.83533
2.78454
3.40655
3.401
2.7719
3.0311
3.22446
2.75558
2.66317
2.97408
3.8688
3.94885
3.02891
3.12743
2.73218
2.66257
2.78941
3.60645
2.99939
2.78519
2.83031
3.26492
3.75094
3.62768
3.38091
2.99721
1.0338
1.11387
1.28088
1.65349
2.73854
3.01177
3.05061
3.09839
3.11256
3.05845
3.04672
3.0932
3.08216
3.0872
3.2704
3.56593
3.28981
2.90508
3.223
3.28894
2.83224
2.78782
3.14894
3.99488
3.84704
2.84432
2.96572
3.00049
2.88685
2.98251
2.98119
3.29411
2.92585
2.65897
2.83869
3.56684
4.10718
3.38121
3.35604
4.12937
1.02417
1.08024
1.19441
1.43803
1.93686
3.00332
3.02102
3.08087
3.10621
3.06603
3.18366
3.22914
3.32354
3.46399
3.42873
3.1749
3.11193
3.53574
3.39327
2.91987
3.04412
3.66056
4.04656
3.38786
3.04526
3.22637
3.17136
3.09545
3.28216
3.10906
3.3227
3.33089
3.03989
3.17188
3.21379
3.30151
3.97842
4.55078
3.17846
3.68215
1.01809
1.06058
1.14824
1.33468
1.74797
3.01708
3.00697
3.00881
3.15552
3.25846
3.31725
3.33125
3.31165
3.2827
3.30456
3.41005
3.54552
3.37654
3.16702
3.42901
3.64105
3.6375
3.26753
3.14822
3.19972
3.20306
3.30606
3.33163
3.33863
3.19879
2.9717
2.91532
2.82981
2.7951
3.19364
3.53638
3.5203
4.57049
3.88611
3.21489
1.0121
1.0399
1.09446
1.20911
1.45494
1.95772
2.99172
3.03044
3.17641
3.34022
3.29341
3.16745
3.25367
3.44541
3.57906
3.49741
3.36073
3.34487
3.65733
3.74458
3.47264
3.41095
3.37295
3.45527
3.4334
3.30804
3.49874
3.22839
3.19849
3.35028
3.29342
3.19858
3.7656
4.17996
3.43082
3.27364
3.52966
3.70274
3.76626
3.58246
1.00959
1.03164
1.0755
1.16575
1.36134
1.80707
2.9683
3.08724
3.23286
3.21291
3.21769
3.43212
3.58927
3.5414
3.46251
3.45622
3.4842
3.5678
3.76112
3.512
3.37351
3.45396
3.54786
3.59146
3.36666
3.31623
3.62708
3.3561
3.26964
3.63627
3.36679
2.98612
3.08699
3.52596
3.78151
3.8584
4.11945
3.88869
3.50885
4.40837
1.00862
1.02867
1.06861
1.14933
1.31988
1.71085
2.84407
3.02982
3.04441
3.19318
3.5371
3.51271
3.38389
3.47745
3.64653
3.66287
3.79381
3.61826
3.35247
3.4283
3.62666
3.74455
3.652
3.44435
3.46482
3.65322
4.33343
4.21277
3.6976
3.70031
3.72415
3.42601
3.14494
2.95176
3.14118
3.27395
3.16606
3.46294
4.00033
4.29986
1.00678
1.02262
1.05552
1.12224
1.25473
1.53043
2.02794
2.66113
2.91718
3.49952
3.53153
3.3767
3.55924
3.85753
3.90022
3.80418
3.75766
3.56557
3.45956
3.85662
4.23306
3.78178
3.66736
3.7656
4.12853
4.1946
3.56076
3.49532
3.4996
3.85153
3.89235
3.44242
3.28546
3.41819
3.47802
2.79725
2.75764
3.18294
4.16967
3.76752
1.00479
1.01598
1.03654
1.07875
1.1661
1.34326
1.7027
2.30876
2.97827
3.50014
3.5878
3.77304
3.83408
3.82063
3.76693
3.75326
3.82735
3.96047
4.23649
4.17907
3.94081
3.95881
3.98962
4.08722
3.98821
3.58081
3.45313
3.30926
3.28632
4.11836
4.6552
3.56203
3.32936
3.41083
4.5057
3.49239
2.90259
3.01051
3.57979
4.03795
1.00367
1.01206
1.02815
1.05805
1.1215
1.26271
1.56219
1.98242
3.06624
3.62246
3.84401
3.93148
3.98712
3.92093
4.01958
4.06118
4.42226
4.37831
3.82485
3.73912
4.25872
4.35132
4.18978
4.35931
4.0467
3.69651
3.67531
3.97983
4.50557
4.36049
3.4318
3.62219
4.14585
3.41946
3.34564
4.05976
4.26669
3.3187
3.20259
3.4589
1.00367
1.0121
1.02647
1.0485
1.09298
1.19128
1.44013
2.23411
3.13084
4.02946
4.25515
4.25266
4.23885
4.2939
4.1305
4.17217
4.10309
3.67202
3.61324
4.03299
4.29688
4.36804
4.26216
4.14119
4.3162
3.87852
3.7965
3.86151
3.86295
3.80531
3.6884
3.694
3.82611
3.47992
3.38605
3.8778
3.66079
3.20163
3.16513
3.32898