/*--------------------------------*- C++ -*----------------------------------*\
  =========                 |
  \\      /  F ield         | OpenFOAM: The Open Source CFD Toolbox
   \\    /   O peration     | Website:  https://openfoam.org
    \\  /    A nd           | Version:  6.0
     \\/     M anipulation  |
\*---------------------------------------------------------------------------*/
FoamFile
{
    version     2.0;
    format      ascii;
    class       surfaceScalarField;
    location    "3";
    object      phi;
}
// * * * * * * * * * * * * * * * * * * * * * * * * * * * * * * * * * * * * * //

dimensions      [1 0 -1 0 0 0 0];

internalField   nonuniform List<scalar> 
9440
(
0.00209995
-3.15688e-16
0.00209995
-2.08872e-15
0.00209995
-7.07301e-15
0.00209995
-1.77647e-14
0.00209995
-3.86395e-14
0.00209995
-7.80969e-14
0.00209995
-1.5213e-13
0.00209995
-2.91159e-13
0.00209995
-5.52376e-13
0.00209995
-1.04142e-12
0.00209995
-1.94906e-12
0.00209995
-3.60955e-12
0.00209995
-6.58478e-12
0.00209995
-1.17649e-11
0.00209995
-2.04275e-11
0.00209995
-3.40515e-11
0.00209995
-5.32881e-11
0.00209995
-7.44978e-11
0.00209996
-7.99654e-11
0.00209997
-1.30411e-11
0.00209999
2.79749e-10
0.00210004
1.17217e-09
0.00210016
3.49552e-09
0.0021004
8.9282e-09
0.00210089
2.0424e-08
0.00210177
4.16641e-08
0.00210317
7.15449e-08
0.002104
2.74099e-08
0.00210827
-5.14035e-07
0.00202565
6.36027e-05
0.00190239
8.80446e-05
0.00136339
0.000488069
0.00101747
0.000245774
0.00358504
-0.00214123
0.00594003
-0.00206325
-0.00206441
0.00865898
0.000305841
-0.00150196
0.000521092
0.000160589
-0.000969754
0.00180744
-0.000758285
0.00209995
-9.72899e-16
0.00209995
-5.74697e-15
0.00209995
-1.77009e-14
0.00209995
-4.26515e-14
0.00209995
-9.08934e-14
0.00209995
-1.81155e-13
0.00209995
-3.48085e-13
0.00209995
-6.5643e-13
0.00209995
-1.2283e-12
0.00209995
-2.29622e-12
0.00209995
-4.30684e-12
0.00209995
-8.12395e-12
0.00209995
-1.54205e-11
0.00209995
-2.94144e-11
0.00209995
-5.61876e-11
0.00209995
-1.06891e-10
0.00209995
-2.01042e-10
0.00209995
-3.70526e-10
0.00209996
-6.62137e-10
0.00209997
-1.13239e-09
0.00209999
-1.82079e-09
0.00210004
-2.6781e-09
0.00210016
-3.42899e-09
0.00210038
-3.43792e-09
0.00210081
-2.1541e-09
0.00210153
-3.20637e-09
0.00210266
-3.35991e-08
0.00210323
-3.28161e-07
0.0021075
-1.74817e-06
0.00202142
0.000131855
0.00188976
0.000178397
0.00156244
0.000731956
0.00182974
-0.000268384
-0.000592512
0.000199236
-0.000529562
-0.00228115
0.00281558
0.00543726
0.00209387
-0.000187311
0.000645501
0.00253286
0.000984162
0.00184105
0.000283178
0.00209995
-1.32972e-15
0.00209995
-7.81022e-15
0.00209995
-2.43291e-14
0.00209995
-6.09992e-14
0.00209995
-1.36996e-13
0.00209995
-2.88878e-13
0.00209995
-5.85943e-13
0.00209995
-1.1579e-12
0.00209995
-2.24565e-12
0.00209995
-4.29706e-12
0.00209995
-8.15369e-12
0.00209995
-1.54258e-11
0.00209995
-2.92625e-11
0.00209995
-5.59487e-11
0.00209995
-1.08208e-10
0.00209995
-2.1195e-10
0.00209995
-4.19758e-10
0.00209995
-8.372e-10
0.00209996
-1.67266e-09
0.00209997
-3.32911e-09
0.0021
-6.56945e-09
0.00210006
-1.28164e-08
0.00210018
-2.47373e-08
0.0021004
-4.76059e-08
0.00210078
-9.33037e-08
0.00210137
-1.94552e-07
0.00210219
-4.55155e-07
0.00210229
-1.45403e-06
0.00210775
-6.05759e-06
0.00203649
0.000158237
0.0018554
0.00030974
0.001723
0.000829825
0.00185345
-0.000636216
-0.00089737
0.00275779
-0.00126368
-0.0016895
0.00145877
0.00275254
-0.000456141
0.00182768
-2.54834e-06
0.00256941
0.00024812
0.00205512
0.000719407
0.00209995
-8.16943e-16
0.00209995
-5.28886e-15
0.00209995
-1.85956e-14
0.00209995
-5.23766e-14
0.00209995
-1.3058e-13
0.00209995
-3.0337e-13
0.00209995
-6.74456e-13
0.00209995
-1.45294e-12
0.00209995
-3.05056e-12
0.00209995
-6.26249e-12
0.00209995
-1.2604e-11
0.00209995
-2.49447e-11
0.00209995
-4.87327e-11
0.00209995
-9.44385e-11
0.00209995
-1.82606e-10
0.00209995
-3.54582e-10
0.00209995
-6.95665e-10
0.00209995
-1.38523e-09
0.00209996
-2.80452e-09
0.00209997
-5.76557e-09
0.0021
-1.19917e-08
0.00210008
-2.51231e-08
0.00210022
-5.28642e-08
0.0021005
-1.11862e-07
0.00210099
-2.40141e-07
0.00210171
-5.34118e-07
0.00210267
-1.26876e-06
0.00210271
-3.66009e-06
0.00211001
-1.42536e-05
0.00202302
0.000144589
0.00186309
0.000398679
0.00226679
0.000436554
-0.000418105
0.00193306
0.0023861
-6.9331e-05
-0.00168355
0.00252531
0.00117781
-0.000735361
-0.000481533
0.00392279
-0.000123612
0.00243209
0.000196572
0.00215933
0.000833641
0.00209995
3.54781e-16
0.00209995
6.55591e-16
0.00209995
-3.43575e-15
0.00209995
-2.09639e-14
0.00209995
-7.17681e-14
0.00209995
-2.01703e-13
0.00209995
-5.14277e-13
0.00209995
-1.2352e-12
0.00209995
-2.84242e-12
0.00209995
-6.32479e-12
0.00209995
-1.3691e-11
0.00209995
-2.89667e-11
0.00209995
-6.01513e-11
0.00209995
-1.23097e-10
0.00209995
-2.49317e-10
0.00209995
-5.02001e-10
0.00209995
-1.00944e-09
0.00209995
-2.03584e-09
0.00209996
-4.13286e-09
0.00209997
-8.46624e-09
0.00209999
-1.75243e-08
0.00210006
-3.66721e-08
0.00210022
-7.76487e-08
0.00210056
-1.66851e-07
0.00210121
-3.66801e-07
0.00210234
-8.39248e-07
0.00210411
-2.0508e-06
0.00210505
-5.94589e-06
0.00211577
-2.40204e-05
0.00204703
0.000108787
0.00192061
0.000428236
0.00188056
0.000442538
0.00196658
0.00172231
-0.000858295
0.00250381
-0.00161999
0.0023826
0.000596852
-0.00428304
-0.00138482
0.00478825
0.000148501
0.000560919
2.36081e-05
0.00148756
0.00135937
0.00209995
1.54792e-15
0.00209995
6.70721e-15
0.00209995
1.25344e-14
0.00209995
1.58349e-14
0.00209995
8.7701e-15
0.00209995
-3.22806e-14
0.00209995
-1.71947e-13
0.00209995
-5.72384e-13
0.00209995
-1.61736e-12
0.00209995
-4.17778e-12
0.00209995
-1.01677e-11
0.00209995
-2.36904e-11
0.00209995
-5.33777e-11
0.00209995
-1.17155e-10
0.00209995
-2.51977e-10
0.00209995
-5.33924e-10
0.00209995
-1.12021e-09
0.00209995
-2.33829e-09
0.00209995
-4.87688e-09
0.00209996
-1.01995e-08
0.00209998
-2.14457e-08
0.00210004
-4.54193e-08
0.00210018
-9.70843e-08
0.0021005
-2.10255e-07
0.00210118
-4.65291e-07
0.00210251
-1.0702e-06
0.0021049
-2.62719e-06
0.00210685
-7.58262e-06
0.00212063
-3.14828e-05
0.00208629
0.00011047
0.00195495
0.000496095
0.00178048
0.000559077
0.00175428
0.00169185
0.000628173
0.00345888
-0.00134585
0.00409103
-0.00551243
-0.00117694
-0.0015836
0.000792038
-0.000435681
-0.000237041
-0.000672807
0.0012457
0.00176167
0.00209995
1.70225e-15
0.00209995
7.37887e-15
0.00209995
1.47879e-14
0.00209995
2.6027e-14
0.00209995
4.63462e-14
0.00209995
8.18554e-14
0.00209995
1.3176e-13
0.00209995
1.63281e-13
0.00209995
4.1541e-14
0.00209995
-6.47804e-13
0.00209995
-3.01831e-12
0.00209995
-9.83095e-12
0.00209995
-2.7567e-11
0.00209995
-7.08618e-11
0.00209995
-1.71871e-10
0.00209995
-3.99972e-10
0.00209995
-9.03293e-10
0.00209995
-1.99696e-09
0.00209995
-4.35285e-09
0.00209996
-9.41349e-09
0.00209997
-2.03092e-08
0.00210001
-4.3928e-08
0.00210012
-9.57162e-08
0.0021004
-2.11333e-07
0.00210105
-4.77197e-07
0.00210243
-1.12013e-06
0.00210506
-2.80407e-06
0.00210743
-8.1938e-06
0.00212189
-3.54128e-05
0.00211037
0.000160877
0.00201599
0.000578241
0.001739
0.000745374
0.0017145
0.0016326
0.00214859
0.00294045
0.00281872
0.00322674
0.000991425
0.000533883
0.000866838
0.00073822
-0.000849505
0.00132411
-0.000397324
0.00100908
0.000603953
0.00209995
3.22131e-16
0.00209995
1.63302e-16
0.00209995
-3.50241e-15
0.00209995
-7.61224e-15
0.00209995
-1.34755e-15
0.00209995
4.07218e-14
0.00209995
1.713e-13
0.00209995
4.88418e-13
0.00209995
1.15296e-12
0.00209995
2.38236e-12
0.00209995
4.35119e-12
0.00209995
6.8202e-12
0.00209995
8.07075e-12
0.00209995
2.19824e-12
0.00209995
-2.72796e-11
0.00209995
-1.2185e-10
0.00209995
-3.79748e-10
0.00209995
-1.02508e-09
0.00209995
-2.55859e-09
0.00209995
-6.08938e-09
0.00209996
-1.40759e-08
0.00209998
-3.20161e-08
0.00210004
-7.24236e-08
0.00210021
-1.64651e-07
0.00210066
-3.81081e-07
0.00210173
-9.1523e-07
0.00210402
-2.3448e-06
0.00210623
-7.04712e-06
0.0021185
-3.26293e-05
0.00213235
0.000281585
0.0020405
0.000717362
0.00175114
0.000963584
0.0016735
0.00159389
0.00192901
0.00263233
0.00189155
0.00319571
0.00108816
0.00115959
0.000830832
0.000954328
0.000650353
0.00124602
0.000400154
0.0013224
0.000813646
0.00209995
-2.48837e-15
0.00209995
-1.42866e-14
0.00209995
-4.09164e-14
0.00209995
-8.56263e-14
0.00209995
-1.46857e-13
0.00209995
-2.07461e-13
0.00209995
-2.1003e-13
0.00209995
-6.63727e-15
0.00209995
7.37667e-13
0.00209995
2.72065e-12
0.00209995
7.30416e-12
0.00209995
1.69874e-11
0.00209995
3.60439e-11
0.00209995
7.10901e-11
0.00209995
1.30714e-10
0.00209995
2.2172e-10
0.00209995
3.36091e-10
0.00209995
4.15438e-10
0.00209995
2.64252e-10
0.00209995
-6.50973e-10
0.00209994
-3.66032e-09
0.00209994
-1.19509e-08
0.00209995
-3.31022e-08
0.0021
-8.54709e-08
0.00210018
-2.15575e-07
0.0021007
-5.51177e-07
0.00210194
-1.48393e-06
0.00210293
-4.74374e-06
0.00210988
-2.46046e-05
0.00212259
0.000452701
0.00201398
0.000931413
0.00173285
0.00122433
0.00157843
0.0017439
0.00166428
0.00257683
0.00169275
0.00312122
0.00110274
0.00177275
0.00088847
0.00123518
0.000876026
0.00130763
0.000277275
0.00190682
0.00145693
0.00209995
-4.93987e-15
0.00209995
-2.6946e-14
0.00209995
-7.49845e-14
0.00209995
-1.64683e-13
0.00209995
-3.19404e-13
0.00209995
-5.66871e-13
0.00209995
-9.23953e-13
0.00209995
-1.3525e-12
0.00209995
-1.65011e-12
0.00209995
-1.20367e-12
0.00209995
1.53475e-12
0.00209995
1.01152e-11
0.00209995
3.21913e-11
0.00209995
8.35203e-11
0.00209995
1.95266e-10
0.00209995
4.26535e-10
0.00209995
8.83894e-10
0.00209994
1.74701e-09
0.00209993
3.2911e-09
0.00209992
5.87682e-09
0.0020999
9.83686e-09
0.00209988
1.51008e-08
0.00209984
2.01853e-08
0.00209979
1.95391e-08
0.00209973
-3.97931e-09
0.00209971
-1.03798e-07
0.00209983
-4.59832e-07
0.00209938
-2.07378e-06
0.00210029
-1.48873e-05
0.00207852
0.000625999
0.00196427
0.00114971
0.00170985
0.00150237
0.00151573
0.00202552
0.00148713
0.00266261
0.00153879
0.00314558
0.00115654
0.00219851
0.00087733
0.00144797
0.000766076
0.00150072
8.94969e-05
0.00262979
0.00203169
0.00209995
-4.84791e-15
0.00209995
-2.66844e-14
0.00209995
-7.64732e-14
0.00209995
-1.79419e-13
0.00209995
-3.83473e-13
0.00209995
-7.72991e-13
0.00209995
-1.48575e-12
0.00209995
-2.7248e-12
0.00209995
-4.73955e-12
0.00209995
-7.71065e-12
0.00209995
-1.13882e-11
0.00209995
-1.41535e-11
0.00209995
-1.08086e-11
0.00209995
1.23546e-11
0.00209995
8.81644e-11
0.00209995
2.90814e-10
0.00209994
7.81287e-10
0.00209993
1.89701e-09
0.00209991
4.32037e-09
0.00209988
9.37475e-09
0.00209982
1.95e-08
0.00209973
3.89386e-08
0.00209959
7.46263e-08
0.00209939
1.37302e-07
0.00209909
2.43001e-07
0.00209862
4.14222e-07
0.00209785
6.76982e-07
0.00209621
7.16731e-07
0.00209142
-4.98574e-06
0.00202253
0.000791055
0.00189908
0.00136615
0.00170457
0.00177231
0.00147762
0.00224744
0.00138962
0.00279401
0.00139477
0.00325198
0.00120641
0.00274935
0.000880952
0.00151567
0.000675488
0.00159228
2.06801e-05
0.00309152
0.00242011
0.00209995
-2.65773e-15
0.00209995
-1.5553e-14
0.00209995
-4.8711e-14
0.00209995
-1.26829e-13
0.00209995
-3.0336e-13
0.00209995
-6.88221e-13
0.00209995
-1.49751e-12
0.00209995
-3.13658e-12
0.00209995
-6.32709e-12
0.00209995
-1.22764e-11
0.00209995
-2.2843e-11
0.00209995
-4.05311e-11
0.00209995
-6.78512e-11
0.00209995
-1.049e-10
0.00209995
-1.42482e-10
0.00209995
-1.44706e-10
0.00209994
-7.56338e-12
0.00209993
5.36189e-10
0.0020999
2.12975e-09
0.00209985
6.25568e-09
0.00209974
1.62124e-08
0.00209955
3.90842e-08
0.00209919
8.95273e-08
0.0020986
1.96778e-07
0.00209769
4.17782e-07
0.00209641
8.6409e-07
0.00209469
1.77599e-06
0.00209233
3.48411e-06
0.00208293
4.94091e-06
0.00197368
0.00095408
0.00183825
0.00158911
0.00169434
0.00203601
0.00145087
0.00240358
0.00134719
0.00302205
0.00131334
0.00340863
0.00124458
0.0031806
0.000850199
0.00246681
0.000576423
0.00197124
6.79444e-05
0.00328461
0.00275554
0.00209995
-9.16012e-16
0.00209995
-6.46506e-15
0.00209995
-2.41432e-14
0.00209995
-7.07189e-14
0.00209995
-1.85838e-13
0.00209995
-4.60934e-13
0.00209995
-1.09954e-12
0.00209995
-2.53787e-12
0.00209995
-5.67478e-12
0.00209995
-1.22897e-11
0.00209995
-2.57632e-11
0.00209995
-5.22428e-11
0.00209995
-1.0237e-10
0.00209995
-1.9348e-10
0.00209995
-3.51496e-10
0.00209995
-6.09818e-10
0.00209994
-9.97672e-10
0.00209993
-1.49865e-09
0.00209991
-1.93224e-09
0.00209986
-1.64571e-09
0.00209975
1.24862e-09
0.00209951
1.17058e-08
0.00209902
4.20589e-08
0.00209803
1.22022e-07
0.00209616
3.22052e-07
0.002093
8.10818e-07
0.00208859
2.02848e-06
0.00208449
5.00573e-06
0.00207351
1.4349e-05
0.00195404
0.00118341
0.00178314
0.00183273
0.00165126
0.00222357
0.00145342
0.00269026
0.00132955
0.00332494
0.00125539
0.00361519
0.00115591
0.00356992
0.000772889
0.00317148
0.000613956
0.00336718
0.000173969
0.00415636
0.00310673
0.00209995
-1.21812e-15
0.00209995
-7.80045e-15
0.00209995
-2.59527e-14
0.00209995
-6.66006e-14
0.00209995
-1.54215e-13
0.00209995
-3.46427e-13
0.00209995
-7.80539e-13
0.00209995
-1.78012e-12
0.00209995
-4.08871e-12
0.00209995
-9.36016e-12
0.00209995
-2.11456e-11
0.00209995
-4.67997e-11
0.00209995
-1.0102e-10
0.00209995
-2.12162e-10
0.00209995
-4.33029e-10
0.00209995
-8.58389e-10
0.00209995
-1.65141e-09
0.00209995
-3.0788e-09
0.00209993
-5.54499e-09
0.00209989
-9.58779e-09
0.00209981
-1.57232e-08
0.00209963
-2.38421e-08
0.00209922
-3.14084e-08
0.00209832
-2.85794e-08
0.0020964
1.4788e-08
0.00209247
1.86036e-07
0.00208526
7.70307e-07
0.00207561
2.55776e-06
0.00205997
1.22374e-05
0.00190988
0.00135275
0.00175409
0.00201705
0.00160535
0.0022928
0.00147748
0.0031238
0.00132287
0.00349943
0.00122321
0.00385715
0.00109342
0.00392443
0.000740515
0.00362813
0.000562956
0.00404256
0.000308881
0.00496235
0.00348741
0.00209995
-2.76208e-15
0.00209995
-1.57006e-14
0.00209995
-4.60105e-14
0.00209995
-1.0627e-13
0.00209995
-2.2019e-13
0.00209995
-4.34478e-13
0.00209995
-8.47312e-13
0.00209995
-1.67743e-12
0.00209995
-3.43008e-12
0.00209995
-7.28621e-12
0.00209995
-1.59853e-11
0.00209995
-3.57521e-11
0.00209995
-8.034e-11
0.00209995
-1.79199e-10
0.00209995
-3.93407e-10
0.00209996
-8.45771e-10
0.00209996
-1.77613e-09
0.00209996
-3.64037e-09
0.00209995
-7.28302e-09
0.00209994
-1.42293e-08
0.0020999
-2.71609e-08
0.0020998
-5.06601e-08
0.00209955
-9.23403e-08
0.00209895
-1.6466e-07
0.00209762
-2.88618e-07
0.00209477
-5.03676e-07
0.00208917
-8.78185e-07
0.00207984
-1.84136e-06
0.00206494
-3.69825e-06
0.00185056
0.00112578
0.00172255
0.00186231
0.00159851
0.0023635
0.00148324
0.00359076
0.00135204
0.00357621
0.0012107
0.00415646
0.00102726
0.00431548
0.000789554
0.00408649
0.000491995
0.00458225
0.000429842
0.00542958
0.00399712
0.00209995
-3.94244e-15
0.00209995
-2.18294e-14
0.00209995
-6.25355e-14
0.00209995
-1.44337e-13
0.00209995
-3.01814e-13
0.00209995
-5.99277e-13
0.00209995
-1.1573e-12
0.00209995
-2.20697e-12
0.00209995
-4.20715e-12
0.00209995
-8.11114e-12
0.00209995
-1.59869e-11
0.00209995
-3.24614e-11
0.00209995
-6.80344e-11
0.00209995
-1.46489e-10
0.00209995
-3.20949e-10
0.00209996
-7.07502e-10
0.00209996
-1.5533e-09
0.00209996
-3.37042e-09
0.00209997
-7.19281e-09
0.00209998
-1.50619e-08
0.00209998
-3.09403e-08
0.00209997
-6.24495e-08
0.00209989
-1.24295e-07
0.00209964
-2.45556e-07
0.00209897
-4.87183e-07
0.00209733
-9.90367e-07
0.00209385
-2.11191e-06
0.00208706
-5.3083e-06
0.00208257
-1.7779e-05
0.00187766
0.00106366
0.00173321
0.00183782
0.00164323
0.00238952
0.00143383
0.00321127
0.00142074
0.00391304
0.00120366
0.00422159
0.000956664
0.00466359
0.000856311
0.00468034
0.000446804
0.00508849
0.00054588
0.00593604
0.00416991
0.00209995
-3.9467e-15
0.00209995
-2.18544e-14
0.00209995
-6.32034e-14
0.00209995
-1.50217e-13
0.00209995
-3.2792e-13
0.00209995
-6.84806e-13
0.00209995
-1.39145e-12
0.00209995
-2.77164e-12
0.00209995
-5.4365e-12
0.00209995
-1.05476e-11
0.00209995
-2.0357e-11
0.00209995
-3.93594e-11
0.00209995
-7.68217e-11
0.00209995
-1.52417e-10
0.00209995
-3.08816e-10
0.00209996
-6.3967e-10
0.00209996
-1.35096e-09
0.00209996
-2.8929e-09
0.00209997
-6.23715e-09
0.0021
-1.34467e-08
0.00210003
-2.88282e-08
0.00210009
-6.12599e-08
0.00210016
-1.29005e-07
0.00210021
-2.70303e-07
0.00210014
-5.69297e-07
0.00209964
-1.2285e-06
0.00209815
-2.786e-06
0.00209349
-7.35142e-06
0.00209367
-2.67799e-05
0.001911
0.00104974
0.00175198
0.00187483
0.00167058
0.00248593
0.00143668
0.00297055
0.00147075
0.00456405
0.00124761
0.00441987
0.000888176
0.004572
0.000848874
0.00535185
0.000463553
0.00594762
0.000517308
0.00652133
0.00432348
0.00209995
-2.92735e-15
0.00209995
-1.64959e-14
0.00209995
-4.92017e-14
0.00209995
-1.22643e-13
0.00209995
-2.84292e-13
0.00209995
-6.34826e-13
0.00209995
-1.38061e-12
0.00209995
-2.93184e-12
0.00209995
-6.08508e-12
0.00209995
-1.23647e-11
0.00209995
-2.46738e-11
0.00209995
-4.85712e-11
0.00209995
-9.48587e-11
0.00209995
-1.84964e-10
0.00209995
-3.62331e-10
0.00209995
-7.1669e-10
0.00209996
-1.43588e-09
0.00209996
-2.91636e-09
0.00209997
-5.99878e-09
0.00209999
-1.24695e-08
0.00210003
-2.61299e-08
0.00210011
-5.50922e-08
0.00210026
-1.16825e-07
0.00210053
-2.49817e-07
0.00210092
-5.42968e-07
0.00210137
-1.21877e-06
0.00210161
-2.88792e-06
0.00209901
-7.95235e-06
0.00210258
-3.05958e-05
0.00196396
0.00106797
0.00176517
0.00195213
0.00161896
0.00260739
0.00154527
0.00313628
0.00135314
0.00406106
0.001264
0.00487437
0.00100738
0.00488997
0.000822539
0.00536467
0.000491777
0.00527986
0.000334656
0.00587103
0.00464808
0.00209995
-1.57059e-15
0.00209995
-9.19911e-15
0.00209995
-2.89785e-14
0.00209995
-7.73389e-14
0.00209995
-1.94426e-13
0.00209995
-4.73594e-13
0.00209995
-1.12119e-12
0.00209995
-2.57463e-12
0.00209995
-5.73053e-12
0.00209995
-1.23776e-11
0.00209995
-2.60115e-11
0.00209995
-5.33764e-11
0.00209995
-1.07438e-10
0.00209995
-2.13279e-10
0.00209995
-4.20153e-10
0.00209995
-8.26645e-10
0.00209996
-1.63376e-09
0.00209996
-3.25692e-09
0.00209996
-6.56111e-09
0.00209998
-1.33523e-08
0.00210001
-2.74054e-08
0.00210009
-5.66388e-08
0.00210024
-1.17857e-07
0.00210053
-2.47712e-07
0.00210105
-5.30496e-07
0.00210188
-1.17729e-06
0.00210305
-2.7691e-06
0.00210207
-7.62183e-06
0.00210835
-2.95631e-05
0.00200789
0.00113686
0.00181344
0.00206464
0.00157115
0.00273422
0.00162064
0.00405451
0.00135535
0.00385522
0.00127037
0.0052776
0.00119834
0.00538984
0.000739527
0.00449833
0.000508387
0.00523937
0.000216436
0.00543411
0.00501998
0.00209995
-5.20638e-16
0.00209995
-3.22097e-15
0.00209995
-1.08259e-14
0.00209995
-3.16186e-14
0.00209995
-9.03388e-14
0.00209995
-2.53384e-13
0.00209995
-6.844e-13
0.00209995
-1.76345e-12
0.00209995
-4.33366e-12
0.00209995
-1.01947e-11
0.00209995
-2.30618e-11
0.00209995
-5.03934e-11
0.00209995
-1.06843e-10
0.00209995
-2.20828e-10
0.00209995
-4.47294e-10
0.00209996
-8.93325e-10
0.00209996
-1.77114e-09
0.00209996
-3.51016e-09
0.00209996
-6.9961e-09
0.00209998
-1.40811e-08
0.00210001
-2.86693e-08
0.00210009
-5.90368e-08
0.00210025
-1.22894e-07
0.00210058
-2.58975e-07
0.00210121
-5.5587e-07
0.00210229
-1.23224e-06
0.00210393
-2.87878e-06
0.00210382
-7.80549e-06
0.0021128
-2.98394e-05
0.00203357
0.00120208
0.00187456
0.00218101
0.00164015
0.00285943
0.00158922
0.00435197
0.00142111
0.00406365
0.00120681
0.00482453
0.00111647
0.00533641
0.000734855
0.00466033
0.000503439
0.0056255
0.000176594
0.00549638
0.00556958
0.00209995
9.55508e-17
0.00209995
6.96813e-16
0.00209995
2.73748e-15
0.00209995
6.79748e-15
0.00209995
7.4279e-15
0.00209995
-2.16134e-14
0.00209995
-1.65436e-13
0.00209995
-6.61312e-13
0.00209995
-2.11371e-12
0.00209995
-5.96416e-12
0.00209995
-1.54727e-11
0.00209995
-3.76906e-11
0.00209995
-8.73055e-11
0.00209995
-1.93977e-10
0.00209996
-4.16226e-10
0.00209996
-8.6797e-10
0.00209996
-1.77057e-09
0.00209996
-3.55858e-09
0.00209997
-7.10223e-09
0.00209998
-1.41858e-08
0.00210001
-2.85492e-08
0.00210008
-5.81727e-08
0.00210024
-1.20373e-07
0.00210061
-2.53628e-07
0.00210137
-5.47044e-07
0.00210281
-1.22171e-06
0.00210522
-2.87505e-06
0.00210623
-7.82523e-06
0.00211728
-3.02064e-05
0.00204841
0.00126601
0.00192296
0.00230363
0.00175373
0.00301318
0.00146125
0.00359758
0.00145543
0.00508607
0.00123504
0.00508939
0.000946012
0.00535233
0.00080398
0.00597089
0.00046041
0.00607551
0.000175338
0.00561333
0.00588421
0.00209995
5.91836e-16
0.00209995
3.99784e-15
0.00209995
1.45791e-14
0.00209995
4.09998e-14
0.00209995
9.68774e-14
0.00209995
1.99742e-13
0.00209995
3.6001e-13
0.00209995
5.3804e-13
0.00209995
5.16355e-13
0.00209995
-4.32005e-13
0.00209995
-4.33181e-12
0.00209995
-1.62602e-11
0.00209995
-4.80502e-11
0.00209995
-1.25773e-10
0.00209996
-3.04342e-10
0.00209996
-6.95366e-10
0.00209996
-1.51989e-09
0.00209997
-3.20965e-09
0.00209998
-6.60807e-09
0.00209999
-1.3387e-08
0.00210002
-2.69465e-08
0.00210008
-5.4415e-08
0.00210022
-1.11207e-07
0.00210056
-2.31769e-07
0.00210133
-4.96509e-07
0.00210292
-1.10581e-06
0.00210587
-2.60202e-06
0.00210806
-7.11209e-06
0.00212067
-2.773e-05
0.00207683
0.00134835
0.00195952
0.00244312
0.00178066
0.00318721
0.00151505
0.00366567
0.00144146
0.00515265
0.00122654
0.00556896
0.00101131
0.00622039
0.000770204
0.00759504
0.000408821
0.00717796
0.000204297
0.00585067
0.00546517
0.00209995
1.05899e-15
0.00209995
7.04128e-15
0.00209995
2.51646e-14
0.00209995
7.05258e-14
0.00209995
1.72732e-13
0.00209995
3.88643e-13
0.00209995
8.21736e-13
0.00209995
1.64348e-12
0.00209995
3.09473e-12
0.00209995
5.39824e-12
0.00209995
8.40294e-12
0.00209995
1.05398e-11
0.00209995
6.18132e-12
0.00209995
-2.04372e-11
0.00209996
-1.08272e-10
0.00209996
-3.46023e-10
0.00209997
-9.23977e-10
0.00209998
-2.23268e-09
0.00209999
-5.05002e-09
0.00210002
-1.09043e-08
0.00210006
-2.28124e-08
0.00210013
-4.6871e-08
0.00210026
-9.5871e-08
0.00210055
-1.97908e-07
0.00210122
-4.18019e-07
0.00210271
-9.17096e-07
0.00210568
-2.12618e-06
0.00210855
-5.76691e-06
0.00212149
-2.18356e-05
0.00211543
0.00145467
0.00198648
0.00259484
0.00177155
0.0033665
0.00158281
0.00383179
0.0013696
0.00422527
0.0013105
0.00613232
0.00108599
0.00610506
0.000635903
0.00532949
0.000367183
0.00756532
0.000226246
0.00654338
0.00586234
0.00209995
1.44372e-15
0.00209995
9.52962e-15
0.00209995
3.3587e-14
0.00209995
9.30072e-14
0.00209995
2.28222e-13
0.00209995
5.23997e-13
0.00209995
1.15451e-12
0.00209995
2.46547e-12
0.00209995
5.11232e-12
0.00209995
1.02655e-11
0.00209995
1.98482e-11
0.00209995
3.66295e-11
0.00209995
6.36337e-11
0.00209995
1.01509e-10
0.00209996
1.40819e-10
0.00209996
1.43059e-10
0.00209997
-1.3381e-12
0.00209998
-5.5893e-10
0.00210001
-2.11942e-09
0.00210005
-5.90672e-09
0.00210012
-1.43623e-08
0.00210022
-3.22878e-08
0.00210039
-6.92646e-08
0.00210068
-1.45232e-07
0.00210127
-3.04349e-07
0.00210254
-6.5219e-07
0.00210518
-1.46558e-06
0.00210807
-3.89821e-06
0.00212026
-1.36877e-05
0.00214807
0.00157224
0.00203207
0.00276409
0.0017568
0.0035479
0.0015869
0.00401975
0.00142723
0.00433416
0.00121067
0.00484661
0.000976841
0.00488311
0.000694559
0.00512748
0.000294271
0.00541391
0.000234128
0.00627035
0.00819099
0.00209995
1.79954e-15
0.00209995
1.17804e-14
0.00209995
4.08893e-14
0.00209995
1.11106e-13
0.00209995
2.68832e-13
0.00209995
6.13913e-13
0.00209995
1.36014e-12
0.00209995
2.9584e-12
0.00209995
6.33908e-12
0.00209995
1.33688e-11
0.00209995
2.76648e-11
0.00209995
5.59486e-11
0.00209995
1.10082e-10
0.00209995
2.09647e-10
0.00209995
3.84006e-10
0.00209996
6.70462e-10
0.00209996
1.09997e-09
0.00209998
1.65199e-09
0.00210001
2.14333e-09
0.00210006
1.99081e-09
0.00210016
-2.48679e-10
0.00210033
-7.71728e-09
0.0021006
-2.67734e-08
0.00210101
-6.98933e-08
0.00210165
-1.61883e-07
0.00210277
-3.55433e-07
0.00210494
-7.86563e-07
0.00210762
-2.00177e-06
0.00211615
-2.40074e-06
0.00212454
0.0017151
0.00205459
0.00294273
0.0017464
0.00372419
0.00158212
0.00422138
0.00142464
0.00452064
0.00115955
0.00486101
0.000926534
0.00504454
0.000715376
0.00533729
0.000322923
0.00535015
0.000245835
0.00535256
0.00613905
0.00209995
2.32984e-15
0.00209995
1.49617e-14
0.00209995
5.06714e-14
0.00209995
1.34178e-13
0.00209995
3.17135e-13
0.00209995
7.10265e-13
0.00209995
1.55216e-12
0.00209995
3.35596e-12
0.00209995
7.2172e-12
0.00209995
1.54449e-11
0.00209995
3.28164e-11
0.00209995
6.89865e-11
0.00209995
1.42929e-10
0.00209995
2.90782e-10
0.00209995
5.79068e-10
0.00209995
1.12578e-09
0.00209996
2.13171e-09
0.00209997
3.92224e-09
0.00209999
6.99309e-09
0.00210004
1.20412e-08
0.00210015
1.99507e-08
0.00210036
3.17332e-08
0.00210073
4.86157e-08
0.00210132
7.32007e-08
0.0021022
1.1511e-07
0.00210337
2.12869e-07
0.00210482
5.03123e-07
0.00210551
1.53314e-06
0.00210483
1.47243e-05
0.00207839
0.00187653
0.00197468
0.00313702
0.00175964
0.00391979
0.00157676
0.00442408
0.00141662
0.00471797
0.00114277
0.00500851
0.000906609
0.00531811
0.000688327
0.00558959
0.000379235
0.00541066
0.000306913
0.00548891
0.00454732
0.00209995
3.23441e-15
0.00209995
2.01669e-14
0.00209995
6.61387e-14
0.00209995
1.70322e-13
0.00209995
3.92514e-13
0.00209995
8.58278e-13
0.00209995
1.83426e-12
0.00209995
3.89066e-12
0.00209995
8.25073e-12
0.00209995
1.75357e-11
0.00209995
3.73272e-11
0.00209995
7.9375e-11
0.00209995
1.68011e-10
0.00209995
3.5261e-10
0.00209995
7.31096e-10
0.00209995
1.49313e-09
0.00209995
2.99785e-09
0.00209995
5.91191e-09
0.00209996
1.14534e-08
0.00209999
2.18249e-08
0.00210007
4.10002e-08
0.00210026
7.62353e-08
0.00210063
1.41302e-07
0.00210133
2.6451e-07
0.00210246
5.11767e-07
0.002104
1.06038e-06
0.00210537
2.44594e-06
0.0021045
6.6611e-06
0.00209543
3.52159e-05
0.00203725
0.00202983
0.00185279
0.00334749
0.00178702
0.00416836
0.0015765
0.00462212
0.0014035
0.00489781
0.0011304
0.00517923
0.000908586
0.00561994
0.000659627
0.00583186
0.000464634
0.00555473
0.000315362
0.00571835
0.00461161
0.00209995
4.53775e-15
0.00209995
2.75934e-14
0.00209995
8.81604e-14
0.00209995
2.22579e-13
0.00209995
5.04226e-13
0.00209995
1.08378e-12
0.00209995
2.27406e-12
0.00209995
4.73108e-12
0.00209995
9.84244e-12
0.00209995
2.05615e-11
0.00209995
4.31924e-11
0.00209995
9.11756e-11
0.00209995
1.93003e-10
0.00209995
4.08446e-10
0.00209995
8.61087e-10
0.00209995
1.80199e-09
0.00209994
3.73173e-09
0.00209994
7.63084e-09
0.00209994
1.53929e-08
0.00209994
3.06436e-08
0.00209998
6.0322e-08
0.0021001
1.1785e-07
0.00210039
2.29922e-07
0.00210101
4.52594e-07
0.00210214
9.14744e-07
0.00210384
1.95162e-06
0.00210531
4.55612e-06
0.00210359
1.23665e-05
0.00208712
5.70237e-05
0.00194746
0.00218279
0.00180592
0.00356443
0.00180987
0.00448285
0.00157984
0.00481524
0.00138841
0.0050654
0.00114078
0.00537749
0.000902921
0.00594845
0.000630325
0.00610253
0.000590857
0.00766829
0.00029481
0.00598231
0.00484792
0.00209995
6.10736e-15
0.00209995
3.66183e-14
0.00209995
1.15426e-13
0.00209995
2.89156e-13
0.00209995
6.51494e-13
0.00209995
1.39214e-12
0.00209995
2.89802e-12
0.00209995
5.96474e-12
0.00209995
1.22425e-11
0.00209995
2.51817e-11
0.00209995
5.20474e-11
0.00209995
1.08213e-10
0.00209995
2.26289e-10
0.00209995
4.75364e-10
0.00209995
1.00105e-09
0.00209995
2.10741e-09
0.00209994
4.42126e-09
0.00209993
9.21587e-09
0.00209991
1.90404e-08
0.0020999
3.8941e-08
0.00209988
7.8859e-08
0.00209992
1.58492e-07
0.00210007
3.17727e-07
0.0021005
6.41091e-07
0.00210145
1.32235e-06
0.00210316
2.85932e-06
0.00210502
6.7125e-06
0.00210372
1.80624e-05
0.00208471
7.49914e-05
0.0018481
0.00229216
0.00185457
0.00378285
0.00180884
0.00487162
0.00158795
0.00500729
0.00137442
0.00522069
0.00118109
0.00562066
0.000912866
0.0063126
0.000746248
0.00665092
0.000598417
0.00917047
0.000298783
0.0065166
0.00528727
0.00209995
7.84481e-15
0.00209995
4.68199e-14
0.00209995
1.47111e-13
0.00209995
3.68875e-13
0.00209995
8.33301e-13
0.00209995
1.78482e-12
0.00209995
3.71768e-12
0.00209995
7.63572e-12
0.00209995
1.55895e-11
0.00209995
3.17954e-11
0.00209995
6.49816e-11
0.00209995
1.33334e-10
0.00209995
2.74953e-10
0.00209995
5.69994e-10
0.00209995
1.18738e-09
0.00209995
2.48273e-09
0.00209994
5.20108e-09
0.00209993
1.08909e-08
0.0020999
2.27371e-08
0.00209986
4.72218e-08
0.00209979
9.74421e-08
0.00209972
1.99878e-07
0.00209969
4.08885e-07
0.00209982
8.40387e-07
0.00210037
1.75961e-06
0.0021017
3.84068e-06
0.00210375
9.02684e-06
0.00210412
2.40333e-05
0.00208624
9.47079e-05
0.00186133
0.00237868
0.00177482
0.00392763
0.0017821
0.00539717
0.00159857
0.00522265
0.00136428
0.00537026
0.00124025
0.00598411
0.000952418
0.00674304
0.00105916
0.00761281
0.000464466
0.0072081
0.000325664
0.00799241
0.00608996
0.00209995
9.82672e-15
0.00209995
5.86749e-14
0.00209995
1.84742e-13
0.00209995
4.65312e-13
0.00209995
1.05698e-12
0.00209995
2.27616e-12
0.00209995
4.76166e-12
0.00209995
9.80465e-12
0.00209995
2.00218e-11
0.00209995
4.07366e-11
0.00209995
8.28318e-11
0.00209995
1.68672e-10
0.00209995
3.44463e-10
0.00209995
7.06166e-10
0.00209995
1.45396e-09
0.00209995
3.00681e-09
0.00209994
6.2429e-09
0.00209993
1.3001e-08
0.0020999
2.71172e-08
0.00209984
5.65493e-08
0.00209973
1.1772e-07
0.00209955
2.445e-07
0.00209931
5.07513e-07
0.00209905
1.05883e-06
0.00209895
2.24758e-06
0.00209932
4.96031e-06
0.00210029
1.17491e-05
0.00210029
3.13516e-05
0.00208359
0.000118694
0.00196665
0.00247885
0.00168698
0.00402612
0.00175154
0.00564368
0.00160697
0.00548503
0.00136927
0.00551568
0.00129363
0.00673022
0.00109517
0.0073801
0.00109546
0.00728055
0.000452841
0.00617834
0.000298951
0.00772326
0.00665261
0.00209995
1.2253e-14
0.00209995
7.33206e-14
0.00209995
2.31716e-13
0.00209995
5.86487e-13
0.00209995
1.3394e-12
0.00209995
2.89976e-12
0.00209995
6.09575e-12
0.00209995
1.26016e-11
0.00209995
2.5803e-11
0.00209995
5.25565e-11
0.00209995
1.06785e-10
0.00209995
2.16857e-10
0.00209995
4.40798e-10
0.00209995
8.97788e-10
0.00209995
1.83366e-09
0.00209995
3.75755e-09
0.00209995
7.72784e-09
0.00209993
1.59509e-08
0.00209991
3.30339e-08
0.00209984
6.86001e-08
0.00209971
1.4275e-07
0.00209946
2.97569e-07
0.00209902
6.22144e-07
0.00209834
1.3106e-06
0.00209744
2.81185e-06
0.00209645
6.26907e-06
0.00209537
1.49787e-05
0.00209295
4.0132e-05
0.00207286
0.000147288
0.00204084
0.00259509
0.00182408
0.00413959
0.00158054
0.00516306
0.00160432
0.00598679
0.00138969
0.00566557
0.001306
0.00638828
0.00118469
0.00658349
0.000889633
0.00659316
0.000587717
0.00631155
0.000266048
0.00666307
0.00714788
0.00209995
1.53738e-14
0.00209995