/*--------------------------------*- C++ -*----------------------------------*\
  =========                 |
  \\      /  F ield         | OpenFOAM: The Open Source CFD Toolbox
   \\    /   O peration     | Website:  https://openfoam.org
    \\  /    A nd           | Version:  6.0
     \\/     M anipulation  |
\*---------------------------------------------------------------------------*/
FoamFile
{
    version     2.0;
    format      ascii;
    class       volScalarField;
    location    "3";
    object      T;
}
// * * * * * * * * * * * * * * * * * * * * * * * * * * * * * * * * * * * * * //

dimensions      [0 0 0 1 0 0 0];

internalField   nonuniform List<scalar> 
4800
(
1
1
1
1
1
1
1
1
1
1
1
1.00001
1.00001
1.00002
1.00004
1.00009
1.00019
1.00038
1.00079
1.00162
1.00333
1.00684
1.01409
1.02912
1.06071
1.12868
1.28406
1.67422
3.17656
2.53969
2.66325
2.76682
2.79446
2.77952
2.7163
2.72018
2.90323
3.01257
2.87872
2.32335
1
1
1
1
1
1
1
1
1
1
1
1.00001
1.00001
1.00002
1.00004
1.00009
1.00019
1.00038
1.00079
1.00162
1.00333
1.00684
1.01408
1.02912
1.0607
1.12868
1.28405
1.6743
3.1762
2.54115
2.66349
2.76952
2.79933
2.84948
2.59806
2.87906
2.85505
2.86088
2.91658
2.85154
1
1
1
1
1
1
1
1
1
1
1
1.00001
1.00001
1.00002
1.00004
1.00009
1.00019
1.00038
1.00079
1.00162
1.00333
1.00684
1.01408
1.02911
1.06069
1.12866
1.28401
1.67438
3.1755
2.54199
2.67174
2.76094
2.79913
2.85088
2.54159
3.23363
2.84205
2.8351
2.89534
2.88845
1
1
1
1
1
1
1
1
1
1
1
1.00001
1.00001
1.00002
1.00004
1.00009
1.00019
1.00038
1.00079
1.00162
1.00333
1.00684
1.01408
1.02911
1.06068
1.12864
1.28395
1.67459
3.17325
2.54252
2.67701
2.75502
2.80438
2.70774
2.5137
3.00454
2.74776
2.74862
2.87996
2.89648
1
1
1
1
1
1
1
1
1
1
1
1.00001
1.00001
1.00002
1.00004
1.00009
1.00019
1.00038
1.00079
1.00162
1.00333
1.00684
1.01409
1.02912
1.0607
1.12868
1.28398
1.67523
3.16999
2.54082
2.68142
2.7497
2.80134
2.75758
2.48742
2.76871
2.72321
2.72527
2.88365
2.90781
1
1
1
1
1
1
1
1
1
1
1
1.00001
1.00001
1.00002
1.00004
1.00009
1.00019
1.00038
1.00079
1.00162
1.00333
1.00685
1.0141
1.02915
1.06076
1.12879
1.2842
1.67664
3.1672
2.53974
2.68309
2.74451
2.79655
2.7849
2.54247
2.71773
2.61809
2.81737
2.88427
2.87935
1
1
1
1
1
1
1
1
1
1
1
1.00001
1.00001
1.00002
1.00004
1.00009
1.00019
1.00039
1.00079
1.00162
1.00333
1.00686
1.01412
1.02919
1.06084
1.12898
1.28458
1.67871
3.16514
2.54046
2.68159
2.74763
2.8039
2.7898
2.67038
2.72465
2.71068
2.81399
2.89481
2.81809
1
1
1
1
1
1
1
1
1
1
1
1.00001
1.00001
1.00002
1.00004
1.00009
1.00019
1.00039
1.00079
1.00163
1.00334
1.00687
1.01414
1.02924
1.06095
1.12923
1.28514
1.68134
3.1642
2.54381
2.68257
2.75398
2.80043
2.78538
2.76043
2.75103
2.77687
2.79655
2.87349
2.7794
1
1
1
1
1
1
1
1
1
1
1
1.00001
1.00001
1.00002
1.00004
1.00009
1.00019
1.00039
1.00079
1.00163
1.00334
1.00688
1.01416
1.02928
1.06106
1.12948
1.28573
1.68412
3.16398
2.55128
2.68764
2.76016
2.79739
2.78071
2.78209
2.76372
2.81721
2.8035
2.86322
2.77153
1
1
1
1
1
1
1
1
1
1
1
1.00001
1.00001
1.00002
1.00004
1.00009
1.00019
1.00039
1.00079
1.00163
1.00335
1.00688
1.01418
1.02933
1.06115
1.1297
1.28623
1.68656
3.16315
2.56072
2.69496
2.7664
2.7982
2.78348
2.78134
2.76672
2.82511
2.80347
2.85919
2.77568
1
1
1
1
1
1
1
1
1
1
1
1.00001
1.00001
1.00002
1.00004
1.00009
1.00019
1.00039
1.00079
1.00163
1.00335
1.00689
1.0142
1.02936
1.06123
1.12987
1.28662
1.68853
3.16109
2.57064
2.70214
2.77237
2.80157
2.78638
2.77806
2.77021
2.80971
2.78967
2.85662
2.77087
1
1
1
1
1
1
1
1
1
1
1
1.00001
1.00001
1.00002
1.00004
1.00009
1.00019
1.00039
1.00079
1.00163
1.00335
1.00689
1.0142
1.02937
1.06127
1.12998
1.28686
1.69002
3.1577
2.58081
2.70933
2.77865
2.79887
2.78953
2.7764
2.78207
2.80072
2.77352
2.84046
2.77275
1
1
1
1
1
1
1
1
1
1
1
1.00001
1.00001
1.00002
1.00004
1.00009
1.00019
1.00038
1.00079
1.00162
1.00334
1.00687
1.01417
1.02933
1.0612
1.12991
1.28678
1.6908
3.15272
2.59245
2.71698
2.78387
2.79874
2.79489
2.77687
2.78986
2.82056
2.7889
2.84028
2.77868
1
1
1
1
1
1
1
1
1
1
1
1.00001
1.00001
1.00002
1.00004
1.00009
1.00019
1.00038
1.00079
1.00162
1.00333
1.00686
1.01413
1.02925
1.06103
1.12957
1.28607
1.69003
3.14379
2.60812
2.72368
2.78503
2.80383
2.79926
2.77848
2.79402
2.82247
2.82117
2.86709
2.78136
1
1
1
1
1
1
1
1
1
1
1
1.00001
1.00001
1.00002
1.00004
1.00009
1.00019
1.00038
1.00079
1.00162
1.00333
1.00684
1.0141
1.02918
1.06088
1.12922
1.28514
1.68824
3.12793
2.61437
2.72393
2.7847
2.81488
2.79422
2.78098
2.79813
2.82206
2.83002
2.88171
2.77613
1
1
1
1
1
1
1
1
1
1
1
1.00001
1.00001
1.00002
1.00004
1.00009
1.00019
1.00038
1.00079
1.00162
1.00333
1.00684
1.0141
1.02915
1.06081
1.12902
1.28454
1.68745
3.1117
2.61291
2.71711
2.78115
2.81891
2.7913
2.78077
2.8032
2.82308
2.8306
2.88989
2.75745
1
1
1
1
1
1
1
1
1
1
1
1.00001
1.00001
1.00002
1.00004
1.00009
1.00019
1.00039
1.00079
1.00162
1.00333
1.00685
1.0141
1.02916
1.0608
1.12899
1.28432
1.68788
3.09757
2.61466
2.71549
2.77926
2.79216
2.80227
2.77071
2.79752
2.82859
2.8299
2.87528
2.71216
1
1
1
1
1
1
1
1
1
1
1
1.00001
1.00001
1.00002
1.00004
1.00009
1.00019
1.00039
1.00079
1.00163
1.00334
1.00686
1.01412
1.0292
1.06086
1.12908
1.28439
1.68927
3.08506
2.61825
2.71562
2.77859
2.78263
2.80674
2.7666
2.78368
2.8324
2.8198
2.81687
2.67581
1
1
1
1
1
1
1
1
1
1
1
1.00001
1.00001
1.00002
1.00004
1.00009
1.00019
1.00039
1.00079
1.00163
1.00334
1.00687
1.01414
1.02924
1.06094
1.12925
1.28468
1.69136
3.07398
2.62475
2.7181
2.77708
2.79244
2.77484
2.7738
2.78276
2.79174
2.76274
2.71917
2.65658
1
1
1
1
1
1
1
1
1
1
1
1.00001
1.00001
1.00002
1.00004
1.00009
1.00019
1.00039
1.00079
1.00163
1.00334
1.00688
1.01416
1.02927
1.06101
1.12939
1.28492
1.69344
3.06266
2.63288
2.72179
2.77437
2.81625
2.76115
2.76246
2.78394
2.75365
2.73506
2.66296
2.64845
1
1
1
1
1
1
1
1
1
1
1
1.00001
1.00001
1.00002
1.00004
1.00009
1.00019
1.00039
1.00079
1.00163
1.00335
1.00688
1.01417
1.0293
1.06108
1.12954
1.28517
1.69556
3.05059
2.64079
2.72438
2.77467
2.8004
2.76508
2.74346
2.76294
2.74261
2.7169
2.62735
2.64722
1
1
1
1
1
1
1
1
1
1
1
1.00001
1.00001
1.00002
1.00004
1.00009
1.00019
1.00039
1.00079
1.00163
1.00335
1.00689
1.01419
1.02934
1.06116
1.12972
1.28551
1.69792
3.03863
2.64946
2.7275
2.77689
2.77531
2.78695
2.74006
2.75494
2.77717
2.70486
2.6075
2.63331
1
1
1
1
1
1
1
1
1
1
1
1.00001
1.00001
1.00002
1.00004
1.00009
1.00019
1.00039
1.0008
1.00163
1.00335
1.0069
1.01421
1.02938
1.06124
1.12991
1.28588
1.7004
3.02698
2.65987
2.73069
2.77785
2.76871
2.75761
2.74882
2.76841
2.76467
2.71847
2.60244
2.6141
1
1
1
1
1
1
1
1
1
1
1
1.00001
1.00001
1.00002
1.00005
1.00009
1.00019
1.00039
1.0008
1.00164
1.00336
1.0069
1.01422
1.02941
1.06131
1.13007
1.28624
1.70272
3.01552
2.66985
2.7329
2.77697
2.76429
2.73432
2.73711
2.72044
2.6876
2.67811
2.61238
2.63104
1
1
1
1
1
1
1
1
1
1
1
1.00001
1.00001
1.00002
1.00005
1.00009
1.00019
1.00039
1.0008
1.00164
1.00336
1.00691
1.01424
1.02944
1.06137
1.13022
1.28655
1.70481
3.00308
2.68732
2.74013
2.77424
2.76045
2.72855
2.69909
2.68907
2.67453
2.63775
2.58465
2.65554
1
1
1
1
1
1
1
1
1
1
1
1.00001
1.00001
1.00002
1.00005
1.00009
1.00019
1.00039
1.0008
1.00164
1.00337
1.00693
1.01426
1.02947
1.06144
1.13036
1.28689
1.70616
2.9968
2.71105
2.74372
2.76994
2.75702
2.7234
2.68944
2.68014
2.67367
2.64022
2.57968
2.56629
1
1
1
1
1
1
1
1
1
1
1
1.00001
1.00001
1.00002
1.00005
1.00009
1.00019
1.00039
1.0008
1.00164
1.00338
1.00694
1.01428
1.02951
1.0615
1.13049
1.28719
1.70665
2.99238
2.72693
2.74687
2.76959
2.75316
2.7183
2.68093
2.6735
2.677
2.65324
2.59787
2.53773
1
1
1
1
1
1
1
1
1
1
1
1.00001
1.00001
1.00002
1.00005
1.00009
1.00019
1.00039
1.0008
1.00164
1.00338
1.00694
1.01428
1.02952
1.06153
1.13054
1.28732
1.7063
2.98796
2.73864
2.75143
2.77396
2.74754
2.71278
2.6728
2.66891
2.67999
2.6845
2.61938
2.53013
1
1
1
1
1
1
1
1
1
1
1
1.00001
1.00001
1.00002
1.00004
1.00009
1.00019
1.00039
1.0008
1.00164
1.00337
1.00693
1.01427
1.02951
1.0615
1.13046
1.28717
1.70492
2.98182
2.74634
2.75807
2.78038
2.73949
2.70634
2.6661
2.66506
2.68282
2.76562
2.63735
2.52897
1
1
1
1
1
1
1
1
1
1
1
1.00001
1.00001
1.00002
1.00004
1.00009
1.00019
1.00039
1.0008
1.00164
1.00336
1.00691
1.01424
1.02945
1.0614
1.13025
1.28673
1.70265
2.97402
2.74986
2.76597
2.78778
2.7316
2.69902
2.66347
2.6624
2.69766
2.79031
2.67089
2.53788
1
1
1
1
1
1
1
1
1
1
1
1.00001
1.00001
1.00002
1.00004
1.00009
1.00019
1.00039
1.00079
1.00163
1.00335
1.00689
1.01419
1.02936
1.06122
1.12989
1.28598
1.69963
2.96591
2.7531
2.76773
2.7962
2.72529
2.69018
2.6701
2.66345
2.70878
2.71711
2.70839
2.54622
1
1
1
1
1
1
1
1
1
1
1
1.00001
1.00001
1.00002
1.00004
1.00009
1.00019
1.00038
1.00079
1.00162
1.00333
1.00685
1.01412
1.02922
1.06094
1.12932
1.28481
1.69555
2.95709
2.75747
2.76621
2.7863
2.72284
2.68091
2.67712
2.66229
2.67322
2.69516
2.68261
2.54929
1
1
1
1
1
1
1
1
1
1
1
1.00001
1.00001
1.00002
1.00004
1.00009
1.00019
1.00038
1.00078
1.00161
1.0033
1.0068
1.01402
1.02902
1.06054
1.12852
1.28311
1.69013
2.94631
2.7636
2.76353
2.76508
2.73306
2.67356
2.65084
2.62827
2.64948
2.69412
2.67091
2.54833
1
1
1
1
1
1
1
1
1
1
1
1.00001
1.00001
1.00002
1.00004
1.00009
1.00018
1.00038
1.00077
1.00159
1.00327
1.00674
1.01389
1.02876
1.06002
1.12742
1.28078
1.68309
2.93344
2.77003
2.76116
2.74982
2.72956
2.67141
2.6423
2.62081
2.63525
2.70145
2.67231
2.54131
1
1
1
1
1
1
1
1
1
1
1
1
1.00001
1.00002
1.00004
1.00009
1.00018
1.00037
1.00077
1.00158
1.00324
1.00666
1.01374
1.02843
1.05934
1.12599
1.27768
1.67409
2.91849
2.77558
2.75775
2.73161
2.70092
2.66844
2.64257
2.6174
2.61503
2.71204
2.67184
2.53675
1
1
1
1
1
1
1
1
1
1
1
1
1.00001
1.00002
1.00004
1.00009
1.00018
1.00037
1.00076
1.00155
1.00319
1.00657
1.01355
1.02803
1.0585
1.12417
1.27368
1.66266
2.90193
2.77876
2.7521
2.71925
2.69489
2.68037
2.64186
2.6158
2.61006
2.71409
2.66011
2.53188
1
1
1
1
1
1
1
1
1
1
1
1
1.00001
1.00002
1.00004
1.00009
1.00018
1.00036
1.00074
1.00153
1.00314
1.00646
1.01331
1.02753
1.05743
1.12187
1.26856
1.64814
2.88428
2.7797
2.74075
2.70986
2.68952
2.69144
2.64105
2.61125
2.60848
2.70199
2.64353
2.52961
1
1
1
1
1
1
1
1
1
1
1
1
1.00001
1.00002
1.00004
1.00008
1.00017
1.00035
1.00073
1.00149
1.00306
1.0063
1.01299
1.02688
1.05607
1.11893
1.26207
1.62993
2.8677
2.7755
2.73549
2.70727
2.68627
2.66885
2.64795
2.6093
2.61516
2.66654
2.62733
2.51609
1
1
1
1
1
1
1
1
1
1
1
1
1.00001
1.00002
1.00004
1.00008
1.00017
1.00034
1.0007
1.00144
1.00296
1.0061
1.01257
1.02602
1.05426
1.11504
1.25348
1.60521
2.85098
2.76743
2.72588
2.70192
2.67431
2.64664
2.65394
2.6165
2.6136
2.63366
2.60501
2.46916
1
1
1
1
1
1
1
1
1
1
1
1
1.00001
1.00002
1.00004
1.00008
1.00016
1.00033
1.00067
1.00138
1.00284
1.00584
1.01203
1.0249
1.05192
1.11002
1.24246
1.57456
2.85145
2.74993
2.72977
2.70155
2.67452
2.65093
2.63333
2.59903
2.56519
2.60344
2.59183
2.38662
1
1
1
1
1
1
1
1
1
1
1
1
1.00001
1.00002
1.00003
1.00007
1.00013
1.00027
1.00056
1.00115
1.00237
1.00487
1.01001
1.02065
1.04286
1.08987
1.19564
1.41871
2.69816
2.53319
2.56202
2.62665
2.6329
2.6373
2.6156
2.56694
2.55856
2.59222
2.56817
2.4071
1
1
1
1
1
1
1
1
1
1
1
1
1.00001
1.00001
1.00002
1.00005
1.0001
1.0002
1.00042
1.00086
1.00177
1.00364
1.00748
1.0154
1.03188
1.06655
1.14216
1.31114
1.91741
2.68842
2.67756
2.65228
2.64261
2.62586
2.5993
2.56097
2.5411
2.54796
2.50237
2.35816
1
1
1
1
1
1
1
1
1
1
1
1
1
1.00001
1.00002
1.00003
1.00006
1.00013
1.00026
1.00054
1.00111
1.00228
1.00468
1.00962
1.01981
1.04101
1.08639
1.18084
1.52143
2.52141
2.5095
2.5611
2.59352
2.58998
2.5858
2.56215
2.50104
2.43689
2.38772
2.3572
1
1
1
1
1
1
1
1
1
1
1
1
1
1.00001
1.00001
1.00002
1.00005
1.0001
1.0002
1.00041
1.00084
1.00173
1.00356
1.00732
1.01508
1.03117
1.06509
1.13778
1.31642
1.81608
2.55313
2.59646
2.59326
2.57831
2.55433
2.52494
2.45113
2.38804
2.33312
2.32265
1
1
1
1
1
1
1
1
1
1
1
1
1
1
1.00001
1.00001
1.00003
1.00006
1.00013
1.00026
1.00053
1.00108
1.00222
1.00456
1.00937
1.01931
1.04
1.08404
1.17849
1.47125
2.45715
2.46254
2.51215
2.52121
2.50603
2.47801
2.43834
2.38146
2.29852
2.291
1
1
1
1
1
1
1
1
1
1
1
1
1
1
1.00001
1.00001
1.00002
1.00005
1.00009
1.00019
1.0004
1.00081
1.00167
1.00343
1.00705
1.01455
1.03012
1.06289
1.13336
1.2996
1.79402
2.48781
2.55304
2.53631
2.50502
2.46154
2.42927
2.37953
2.29915
2.25948
1
1
1
1
1
1
1
1
1
1
1
1
1
1
1
1.00001
1.00001
1.00003
1.00006
1.00012
1.00025
1.00051
1.00105
1.00215
1.0044
1.00905
1.01865
1.03863
1.08118
1.17186
1.45154
2.34716
2.47173
2.47164
2.46424
2.43087
2.40455
2.36344
2.31269
2.24235
1
1
1
1
1
1
1
1
1
1
1
1
1
1
1
1
1.00001
1.00002
1.00004
1.00009
1.00018
1.00037
1.00075
1.00154
1.00316
1.00649
1.01337
1.02765
1.05768
1.12235
1.27172
1.75543
2.31603
2.49679
2.48008
2.4382
2.3939
2.36485
2.30662
2.23409
1
1
1
1
1
1
1
1
1
1
1
1
1
1
1
1
1.00001
1.00001
1.00003
1.00005
1.00011
1.00022
1.00045
1.00092
1.00188
1.00386
1.00793
1.01632
1.03372
1.07076
1.14773
1.40115
2.17487
2.36472
2.42018
2.42632
2.40471
2.37086
2.30261
2.24103
1
1
1
1
1
1
1
1
1
1
1
1
1
1
1
1
1
1.00001
1.00002
1.00003
1.00007
1.00014
1.00029
1.0006
1.00124
1.00254
1.00522
1.01072
1.02212
1.04593
1.09666
1.21035
1.60396
2.20895
2.32096
2.32812
2.35174
2.3202
2.26094
2.27054
1
1
1
1
1
1
1
1
1
1
1
1
1
1
1
1
1
1
1.00001
1.00002
1.00004
1.00008
1.00017
1.00035
1.00072
1.00147
1.00301
1.00617
1.01269
1.02617
1.05468
1.11325
1.29291
1.73288
2.14188
2.24018
2.25791
2.25819
2.21162
2.23451
1
1
1
1
1
1
1
1
1
1
1
1
1
1
1
1
1
1
1
1.00001
1.00002
1.00004
1.00008
1.00016
1.00032
1.00066
1.00136
1.00278
1.00569
1.01166
1.02388
1.05071
1.10096
1.34126
1.50011
1.87648
2.07444
2.13111
2.11605
2.13841
1
1
1
1
1
1
1
1
1
1
1
1
1
1
1
1
1
1
1
1
1.00001
1.00002
1.00003
1.00006
1.00013
1.00027
1.00054
1.00111
1.00228
1.00467
1.00951
1.02011
1.03929
1.09725
1.18021
1.36319
1.80048
1.98377
2.04534
2.04601
1
1
1
1
1
1
1
1
1
1
1
1
1
1
1
1
1
1
1
1
1
1.00001
1.00001
1.00003
1.00005
1.00011
1.00022
1.00045
1.00092
1.00188
1.00386
1.00793
1.01627
1.03378
1.06911
1.14555
1.31708
1.74567
1.91591
1.93603
1
1
1
1
1
1
1
1
1
1
1
1
1
1
1
1
1
1
1
1
1
1
1.00001
1.00001
1.00002
1.00004
1.00008
1.00017
1.00035
1.00071
1.00146
1.00302
1.00624
1.01288
1.02655
1.05421
1.11293
1.24386
1.66675
1.85825
1
1
1
1
1
1
1
1
1
1
1
1
1
1
1
1
1
1
1
1
1
1
1
1
1.00001
1.00001
1.00002
1.00004
1.00008
1.00017
1.00034
1.00068
1.00136
1.00272
1.00544
1.0113
1.02254
1.04904
1.09317
1.26409
1
1
1
1
1
1
1
1
1
1
1
1
1
1
1
1
1
1
1
1
1
1
1
1
1
1.00001
1.00001
1.00003
1.00006
1.00013
1.00025
1.00051
1.00104
1.00211
1.00429
1.00888
1.01796
1.04118
1.07547
1.2609
1
1
1
1
1
1
1
1
1
1
1
1
1
1
1
1
1
1
1
1
1
1
1
1
1
1
1.00001
1.00001
1.00003
1.00005
1.00011
1.00024
1.00049
1.00101
1.00205
1.00416
1.00822
1.01804
1.0313
1.09804
1
1
1
1
1
1
1
1
1
1
1
1
1
1
1
1
1
1
1
1
1
1
1
1
1
1
1
1.00001
1.00002
1.00004
1.00007
1.00015
1.0003
1.00062
1.00129
1.00266
1.0055
1.01138
1.02358
1.04821
1
1
1
1
1
1
1
1
1
1
1
1
1
1
1
1
1
1
1
1
1
1
1
1
1
1
1
1.00001
1.00001
1.00003
1.00006
1.00012
1.00025
1.00052
1.00107
1.00221
1.0046
1.00942
1.02113
1.0398
1
1
1
1
1
1
1
1
1
1
1
1
1
1
1
1
1
1
1
1
1
1
1
1
1
1
1
1
1.00001
1.00002
1.00004
1.00008
1.00017
1.00034
1.00069
1.0014
1.00294
1.00577
1.01377
1.02345
1
1
1
1
1
1
1
1
1
1
1
1
1
1
1
1
1
1
1
1
1
1
1
1
1
1
1
1
1.00001
1.00002
1.00003
1.00007
1.00014
1.00029
1.0006
1.00124
1.00255
1.0052
1.01119
1.02151
1
1
1
1
1
1
1
1
1
1
1
1
1
1
1
1
1
1
1
1
1
1
1
1
1
1
1
1
1.00001
1.00001
1.00003
1.00006
1.00012
1.00025
1.00051
1.00105
1.00215
1.0044
1.00937
1.01826
1
1
1
1
1
1
1
1
1
1
1
1
1
1
1
1
1
1
1
1
1
1
1
1
1
1
1
1
1
1.00001
1.00002
1.00004
1.00008
1.00016
1.00033
1.00068
1.00139
1.00279
1.00612
1.01137
1
1
1
1
1
1
1
1
1
1
1
1
1
1
1
1
1
1
1
1
1
1
1
1
1
1
1
1
1
1.00001
1.00002
1.00003
1.00007
1.00013
1.00028
1.00057
1.00117
1.00237
1.00528
1.0097
1
1
1
1
1
1
1
1
1
1
1
1
1
1
1
1
1
1
1
1
1
1
1
1
1
1
1
1
1
1.00001
1.00001
1.00003
1.00006
1.00011
1.00023
1.00048
1.001
1.00201
1.00451
1.00822
1
1
1
1
1
1
1
1
1
1
1
1
1
1
1
1
1
1
1
1
1
1
1
1
1
1
1
1
1
1
1.00001
1.00002
1.00004
1.00008
1.00016
1.00032
1.00066
1.0013
1.00297
1.00522
1
1
1
1
1
1
1
1
1
1
1
1
1
1
1
1
1
1
1
1
1
1
1
1
1
1
1
1
1
1
1.00001
1.00002
1.00003
1.00006
1.00013
1.00027
1.00055
1.0011
1.00246
1.00445
1
1
1
1
1
1
1
1
1
1
1
1
1
1
1
1
1
1
1
1
1
1
1
1
1
1
1
1
1
1
1.00001
1.00001
1.00003
1.00006
1.00011
1.00023
1.00048
1.00096
1.00213
1.00391
1
1
1
1
1
1
1
1
1
1
1
1
1
1
1
1
1
1
1
1
1
1
1
1
1
1
1
1
1
1
1
1.00001
1.00002
1.00004
1.00008
1.00016
1.00033
1.00068
1.0015
1.00278
1
1
1
1
1
1
1
1
1
1
1
1
1
1
1
1
1
1
1
1
1
1
1
1
1
1
1
1
1
1
1
1.00001
1.00001
1.00003
1.00006
1.00012
1.00026
1.00052
1.00115
1.00211
1
1
1
1
1
1
1
1
1
1
1
1
1
1
1
1
1
1
1
1
1
1
1
1
1
1
1
1
1
1
1
1
1.00001
1.00002
1.00004
1.00008
1.00017
1.00035
1.00076
1.0014
1
1
1
1
1
1
1
1
1
1
1
1
1
1
1
1
1
1
1
1
1
1
1
1
1
1
1
1
1
1
1
1
1.00001
1.00002
1.00003
1.00007
1.00014
1.00027
1.0006
1.00112
1
1
1
1
1
1
1
1
1
1
1
1
1
1
1
1
1
1
1
1
1
1
1
1
1
1
1
1
1
1
1
1
1.00001
1.00001
1.00003
1.00006
1.00012
1.00024
1.00053
1.00099
1
1
1
1
1
1
1
1
1
1
1
1
1
1
1
1
1
1
1
1
1
1
1
1
1
1
1
1
1
1
1
1
1.00001
1.00001
1.00002
1.00005
1.00009
1.00019
1.00041
1.00078
1
1
1
1
1
1
1
1
1
1
1
1
1
1
1
1
1
1
1
1
1
1
1
1
1
1
1
1
1
1
1
1
1
1.00001
1.00001
1.00003
1.00006
1.00013
1.00028
1.00053
1
1
1
1
1
1
1
1
1
1
1
1
1
1
1
1
1
1
1
1
1
1
1
1
1
1
1
1
1
1
1
1
1
1.00001
1.00001
1.00003
1.00005
1.00011
1.00023
1.00043
1
1
1
1
1
1
1
1
1
1
1
1
1
1
1
1
1
1
1
1
1
1
1
1
1
1
1
1
1
1
1
1
1
1.00001
1.00001
1.00002
1.00005
1.0001
1.00022
1.00041
1
1
1
1
1
1
1
1
1
1
1
1
1
1
1
1
1
1
1
1
1
1
1
1
1
1
1
1
1
1
1
1
1
1.00001
1.00001
1.00002
1.00005
1.0001
1.00022
1.00042
1
1
1
1
1
1
1
1
1
1
1
1
1
1
1
1
1
1
1
1
1
1
1
1
1
1
1
1
1
1
1
1
1
1
1.00001
1.00002
1.00004
1.00008
1.00018
1.00034
2.2878
2.21451
2.21225
2.03818
2.23079
2.19321
2.20236
2.29506
2.5076
2.7437
2.75523
2.64443
2.53664
2.49436
2.46234
2.47215
2.50712
2.51517
2.54513
2.63325
2.69858
2.80826
2.71122
2.6547
2.72152
2.76424
2.70324
2.69708
2.70265
2.81435
2.9381
2.91617
2.80303
2.70923
2.78746
2.82131
2.64363
2.63616
2.724
2.90952
2.29464
2.23788
2.21065
2.24446
2.47372
2.29548
2.48355
2.4656
2.66609
2.51576
2.53889
2.6369
2.58844
2.472
2.46987
2.47691
2.46316
2.48152
2.49017
2.60161
2.70783
2.66155
2.69365
2.72462
2.74849
2.69069
2.59693
2.58425
2.88031
2.83396
2.83556
2.89764
2.82905
2.87086
2.69316
2.64121
2.69146
2.74137
2.81517
2.80639
2.31582
2.30673
2.30703
2.3137
2.25808
2.22381
2.31974
2.51747
2.6154
2.42635
2.43484
2.54976
2.5397
2.50999
2.48149
2.38704
2.35852
2.39848
2.49961
2.56719
2.58791
2.62949
2.63065
2.65423
2.77469
2.74573
2.67954
2.59379
2.72302
2.69893
2.71174
2.65564
2.603
2.71376
2.76332
2.67648
2.66133
2.63473
2.74422
2.95631
2.301
2.30529
2.29924
2.30956
2.26757
2.21739
2.26527
2.34036
2.36533
2.3511
2.49408
2.58581
2.54914
2.46155
2.41977
2.30589
2.2949
2.36243
2.3823
2.41582
2.42002
2.46108
2.54203
2.65492
2.60365
2.6199
2.607
2.59677
2.65966
2.6631
2.64836
2.64613
2.60535
2.61712
2.66474
2.64194
2.60692
2.6712
2.8038
2.63791
2.27767
2.25697
2.25284
2.23903
2.19016
2.127
2.1544
2.24001
2.28933
2.35952
2.46716
2.53396
2.47269
2.38714
2.28875
2.20438
2.21401
2.22353
2.20975
2.21346
2.25828
2.35962
2.47707
2.54757
2.56265
2.54962
2.64967
2.62185
2.586
2.63783
2.58512
2.51193
2.51713
2.50506
2.4944
2.56549
2.6533
2.48792
2.5733
2.61083
2.22644
2.20373
2.19568
2.17262
2.13143
2.06503
2.06616
2.08821
2.23412
2.34377
2.44617
2.46806
2.40498
2.35563
2.16785
2.13683
2.16569
2.16182
2.14496
2.14293
2.1743
2.30599
2.43927
2.47728
2.55283
2.53616
2.59285
2.55136
2.58827
2.53226
2.56157
2.57625
2.47202
2.43603
2.39382
2.4405
2.49772
2.57274
2.49124
2.54688
2.18994
2.17979
2.15968
2.12511
2.07649
2.01804
2.01773
2.03884
2.08163
2.18672
2.34706
2.41812
2.45455
2.35324
2.15421
2.12854
2.14096
2.13338
2.13001
2.08389
2.08626
2.1525
2.31754
2.4071
2.47496
2.4976
2.45947
2.44552
2.43974
2.50918
2.50401
2.50627
2.49186
2.48767
2.49122
2.48796
2.4713
2.58871
2.47943
2.42965
2.16767
2.16077
2.13504
2.07901
2.02546
1.9917
1.97761
1.99539
2.03496
2.11014
2.28321
2.38139
2.37882
2.27384
2.13875
2.11479
2.11742
2.11036
2.07664
2.08616
2.09782
2.12739
2.20303
2.28512
2.37466
2.46466
2.46591
2.3846
2.42211
2.53867
2.45009
2.44783
2.42093
2.38457
2.39078
2.43543
2.49484
2.59927
2.55055
2.43027
2.15818
2.1451
2.11848
2.04034
2.00637
1.98254
1.94274
1.95764
1.97991
2.01377
2.10921
2.25483
2.29281
2.27631
2.20201
2.11029
2.0757
2.03427
2.04258
2.09079
2.09546
2.08746
2.12039
2.20827
2.30243
2.37478
2.41497
2.44302
2.40394
2.38421
2.42602
2.38299
2.39258
2.33333
2.37247
2.39581
2.50273
2.41357
2.37067
2.49806
2.14842
2.13584
2.10266
2.04902
2.00323
1.95653
1.91441
1.92241
1.94241
1.96605
2.02847
2.16959
2.25995
2.27464
2.18191
2.07121
2.0039
1.98729
2.03763
2.07898
2.06459
2.09212
2.11839
2.14238
2.26345
2.27823
2.29935
2.34986
2.33665
2.34375
2.43077
2.36916
2.45138
2.44218
2.41475
2.49669
2.50576
2.38329
2.33005
2.45778
2.12377
2.11261
2.07242
2.02169
1.97599
1.93718
1.89359
1.89921
1.91873
1.94563
2.01313
2.13865
2.23771
2.23598
2.16887
2.04883
1.98421
1.98254
1.99235
2.02782
2.02122
2.03299
2.09519
2.15568
2.14543
2.25883
2.29933
2.30434
2.37985
2.46815
2.38305
2.35868
2.36381
2.36341
2.35647
2.42871
2.47185
2.51402
2.45311
2.40784
2.07622
2.07941
2.05614
2.00073
1.96136
1.92453
1.88212
1.88669
1.901
1.92607
1.97998
2.09503
2.18882
2.20361
2.15702
2.06215
1.99949
1.97547
1.95592
1.99102
1.98176
1.98093
2.05773
2.05578
2.08922
2.06585
2.10877
2.24027
2.35887
2.40518
2.38472
2.35765
2.37341
2.43524
2.36107
2.30139
2.2907
2.24266
2.4
2.23455
2.03394
2.05094
2.03953
1.99867
1.94702
1.91814
1.88452
1.86777
1.88516
1.90464
1.96777
2.0827
2.14532
2.13699
2.09804
2.03362
1.9771
1.93043
1.92106
1.94996
1.98745
2.02904
1.99943
1.99833
2.06902
2.05113
2.11953
2.16452
2.20157
2.35259
2.5195
2.42558
2.41553
2.35844
2.23758
2.17456
2.20575
2.19108
2.20404
2.29384
1.96092
2.01075
1.98823
1.96874
1.94974
1.91759
1.8879
1.86911
1.87532
1.8947
1.95067
2.05199
2.14652
2.13968
2.07597
1.99327
1.93743
1.91451
1.89589
1.92147
1.96515
1.98945
2.00762
2.08979
2.0465
1.99826
2.09466
2.04879
2.03778
2.16827
2.25471
2.43107
2.25988
2.2769
2.29781
2.16374
2.14008
2.21029
2.18011
2.31443
1.90435
1.95572
1.93809
1.91505
1.94088
1.91612
1.88194
1.87721
1.88184
1.88985
1.90599
1.96143
2.06184
2.12647
2.10842
2.08947
2.00661
1.95849
1.93673
1.9128
1.8982
1.93279
1.97398
2.03865
2.00804
2.06533
2.06557
2.09125
2.18779
2.24005
2.23769
2.33729
2.25342
2.1302
2.19257
2.21305
2.15948
2.17091
2.251
2.2829
1.89595
1.93374
1.93673
1.91509
1.92161
1.91467
1.85865
1.85549
1.85205
1.86956
1.90925
1.94309
2.0214
2.07558
2.14006
2.123
2.03662
1.99512
1.92859
1.9178
1.93417
1.91267
1.94682
2.06742
2.07172
2.05674
2.10226
2.05678
2.04158
2.04663
2.12131
2.35127
2.30491
2.13058
2.18347
2.19441
2.1135
2.10456
2.18234
2.27537
1.77038
1.87569
1.92036
1.88943
1.9016
1.90109
1.84776
1.85542
1.86582
1.86242
1.88698
1.95438
1.98074
2.04486
2.12609
2.06096
2.02769
1.98429
1.91404
1.96131
1.9111
1.8735
1.94081
2.06406
1.99361
2.04228
2.0711
2.04448
2.06011
2.09761
2.10801
2.19093
2.26112
2.13349
2.07672
2.12289
2.11683
2.08761
2.16302
2.39371
1.35881
1.73864
1.83253
1.84303
1.84247
1.86526
1.83519
1.83911
1.83831
1.83613
1.85543
1.9212
1.95021
2.01868
2.07689
2.0465
2.02409
2.01054
1.95244
1.96724
1.90353
1.8665
1.90314
2.02529
2.02772
2.0257
2.08484
2.03705
2.03009
2.05946
2.09929
2.26172
2.15409
2.0451
2.05392
2.15713
2.11382
2.12811
2.14328
2.37826
1.38318
1.75934
1.79166
1.79976
1.80213
1.82593
1.80116
1.79853
1.81045
1.82008
1.85226
1.92405
1.92023
1.95876
2.03245
2.04094
2.02987
2.02334
1.99015
1.91997
1.88748
1.88194
1.89984
2.01746
1.98595
2.01067
2.04431
2.01277
2.01842
2.08147
2.26527
2.10072
2.07724
2.0939
2.13558
2.09982
2.00796
2.03051
2.19633
2.16728
1.38206
1.70811
1.74391
1.76083
1.77316
1.76065
1.76444
1.76699
1.78907
1.80522
1.87509
1.90919
1.87293
1.92394
1.99952
1.993
2.02064
2.02482
2.00235
1.93137
1.92212
1.91158
1.91962
1.96117
1.96493
2.05308
2.05709
2.04218
2.07292
2.15765
2.05601
2.04421
1.98334
2.02348
2.10518
2.23595
2.02404
1.99087
2.14397
2.09792
1.22461
1.39742
1.6675
1.70518
1.72034
1.7427
1.75553
1.75721
1.78367
1.83491
1.87456
1.8205
1.84075
1.92336
1.9124
1.95535
2.02507
2.02443
1.98581
1.95891
1.94222
1.93696
1.90901
1.8918
1.97663
1.98846
2.02894
2.10799
2.10131
2.05535
2.06347
2.06233
2.06847
2.05707
2.08128
2.11725
2.17181
2.01627
2.00022
2.11443
1.13087
1.383
1.65989
1.67973
1.69907
1.73078
1.75132
1.76954
1.80813
1.83622
1.77886
1.79105
1.87037
1.83771
1.86507
1.98218
2.0184
2.0081
1.96295
1.94987
1.98271
1.96593
1.83389
1.86824
1.91862
1.89543
1.98801
2.13333
2.13952
2.05358
2.05549
2.05486
2.06013
2.0208
2.01995
2.03203
2.05158
2.071
2.02118
2.05018
1.10191
1.38587
1.60255
1.64262
1.6716
1.70307
1.72901
1.76325
1.79191
1.74686
1.75266
1.83228
1.79794
1.79315
1.90265
1.95875
1.98766
1.99468
1.94236
1.94096
2.03762
1.98748
1.81431
1.8463
1.8753
1.82986
1.87286
2.0292
2.17477
2.10364
2.0753
2.01795
2.00602
2.00247
2.01847
1.99764
1.99158
2.06057
2.05502
2.09814
1.06698
1.25329
1.38345
1.56338
1.62487
1.66818
1.70591
1.72112
1.71152
1.73339
1.79175
1.76074
1.75171
1.84636
1.92003
1.8991
1.96616
1.93361
1.92995
1.93549
2.05856
1.88456
1.80143
1.88406
1.84511
1.81005
1.857
2.03529
2.17589
2.06649
2.02259
2.00438
1.98002
2.00343
2.03444
1.99605
1.99609
1.9836
1.9349
1.9809
1.05855
1.16578
1.37485
1.59874
1.61683
1.64126
1.65932
1.6745
1.70364
1.73844
1.73179
1.74586
1.82576
1.86484
1.82841
1.88671
1.91253
1.9079
1.90717
2.00639
1.95091
1.79679
1.83598
1.89584
1.75331
1.76414
1.87395
2.06123
2.09368
1.96331
1.99034
1.98513
1.97331
2.03478
1.99893
1.97885
2.0077
2.00383
1.87724
1.84653
1.05032
1.12775
1.37746
1.56665
1.59304
1.61476
1.63161
1.65879
1.68924
1.69916
1.73273
1.78618
1.79007
1.76702
1.81278
1.86397
1.86379
1.87311
1.94089
1.99824
1.79757
1.77655
1.89249
1.75556
1.7119
1.74985
1.90188
2.07739
1.98234
1.94974
1.92582
1.93235
1.89761
1.94549
1.95445
1.94895
1.97973
1.94245
1.91191
1.82338
1.03359
1.08054
1.25484
1.38022
1.5051
1.55977
1.60203
1.6348
1.66184
1.69316
1.72397
1.71126
1.70158
1.74955
1.78494
1.78776
1.81119
1.90074
1.97089
1.78392
1.78161
1.87864
1.76471
1.72254
1.74255
1.86855
2.00524
1.89535
1.86721
1.91798
1.84436
1.81653
1.84514
1.86969
1.87108
1.9252
1.98843
1.8929
1.8323
1.79565
1.026
1.06544
1.16964
1.3585
1.54089
1.5556
1.58201
1.61632
1.64994
1.66662
1.65369
1.65082
1.68112
1.72122
1.72894
1.7589
1.88255
1.89775
1.76701
1.79963
1.83511
1.75244
1.73691
1.79033
1.95095
1.98923
1.81953
1.84326
1.80136
1.78768
1.78427
1.89814
1.82279
1.80911
1.82586
1.88411
1.92226
1.86809
1.80183
1.74882
1.02179
1.05736
1.13443
1.35926
1.51376
1.55696
1.57413
1.59852
1.61432
1.61118
1.61426
1.63627
1.66472
1.70587
1.77248
1.84314
1.81379
1.73769
1.78519
1.81311
1.73677
1.73384
1.79527
1.94223
1.94664
1.75337
1.77339
1.78399
1.76056
1.76897
1.74696
1.77632
1.74984
1.74604
1.78961
1.89928
1.95227
1.79959
1.74963
1.86008
1.01495
1.03997
1.08966
1.26206
1.36332
1.49341
1.53757
1.5709
1.58674
1.59036
1.62311
1.65724
1.70248
1.75067
1.76482
1.7306
1.71879
1.7872
1.78939
1.71929
1.74685
1.8512
1.91456
1.82098
1.74683
1.77252
1.76502
1.74897
1.77669
1.73178
1.74405
1.76045
1.73963
1.78527
1.7982
1.80191
1.88697
1.97205
1.70192
1.7286
1.01155
1.03038
1.06912
1.16517
1.3787
1.48428
1.50401
1.52979
1.57046
1.61214
1.65024
1.67657
1.69014
1.69142
1.69319
1.71017
1.74226
1.73874
1.72104
1.77059
1.81182
1.81685
1.75517
1.73066
1.7388
1.74179
1.7522
1.74991
1.74054
1.70828
1.67447
1.68179
1.68602
1.68601
1.75303
1.79645
1.76405
1.86242
1.78
1.63039
1.00747
1.0195
1.044
1.09705
1.23146
1.3706
1.45722
1.49177
1.55957
1.62396
1.64324
1.63345
1.64197
1.66309
1.68047
1.68091
1.67949
1.6964
1.75815
1.78521
1.75227
1.74282
1.7366
1.7445
1.73797
1.71089
1.73048
1.68603
1.67969
1.71537
1.72054
1.72095
1.80791
1.87511
1.75116
1.70107
1.70984
1.71425
1.69163
1.68892
1.00595
1.01544
1.03465
1.0739
1.1693
1.3718
1.50327
1.50457
1.54275
1.58018
1.59993
1.63032
1.64665
1.63902
1.6367
1.65385
1.67691
1.70173
1.73778
1.71143
1.69174
1.70192
1.71463
1.71892
1.68489
1.67475
1.72147
1.70053
1.69385
1.75397
1.72422
1.65273
1.65162
1.70094
1.72349
1.72272
1.74758
1.71898
1.65364
1.72702
1.00522
1.0137
1.03081
1.06619
1.14263
1.3757
1.47308
1.50111
1.54131
1.58745
1.63525
1.62673
1.59844
1.61069
1.64728
1.66727
1.69834
1.68649
1.64905
1.65555
1.67968
1.69186
1.68353
1.65756
1.66082
1.68995
1.78353
1.78882
1.71571
1.71786
1.71677
1.67276
1.61681
1.5694
1.58218
1.59891
1.5788
1.62029
1.68634
1.69755
1.00386
1.01031
1.02358
1.05196
1.10454
1.26937
1.34656
1.42888
1.49359
1.58775
1.60345
1.58637
1.61406
1.66535
1.68033
1.67419
1.67038
1.64583
1.6281
1.6754
1.72825
1.67927
1.66138
1.67559
1.72155
1.73738
1.65326
1.64373
1.65148
1.69658
1.69297
1.61296
1.57828
1.58301
1.59764
1.48773
1.47121
1.53626
1.66085
1.61603
1.00275
1.00743
1.0161
1.03456
1.06905
1.16427
1.29321
1.41614
1.50299
1.56593
1.58199
1.61526
1.63671
1.64906
1.64663
1.64461
1.64969
1.66048
1.68723
1.68349
1.65933
1.67002
1.68167
1.69747
1.68748
1.63201
1.61778
1.5992
1.59211
1.69211
1.75581
1.59949
1.55172
1.5472
1.68112
1.56987
1.47913
1.50004
1.57625
1.66135
1.0022
1.00579
1.01259
1.02589
1.05341
1.11393
1.2621
1.44042
1.56988
1.56871
1.618
1.64623
1.66305
1.66153
1.67503
1.6727
1.69521
1.68316
1.60107
1.58086
1.64326
1.66743
1.663
1.69589
1.67989
1.64024
1.6387
1.66994
1.72272
1.69825
1.54508
1.54148
1.59261
1.49651
1.48802
1.59008
1.6368
1.52713
1.51049
1.56078
1.0021
1.00551
1.01153
1.02158
1.04222
1.08602
1.21675
1.50289
1.5836
1.58171
1.63359
1.64778
1.64928
1.65473
1.64214
1.64834
1.64497
1.58651
1.57404
1.62142
1.65733
1.67233
1.67517
1.67579
1.71667
1.67435
1.6634
1.67029
1.66389
1.63828
1.59176
1.55958
1.55426
1.50273
1.48985
1.56412
1.55728
1.50385
1.50673
1.53082
1.00204
1.00548
1.01154
1.02133
1.04029
1.07931
1.16535
1.40672
1.48719
1.60096
1.66493
1.67704
1.66953
1.64603
1.63678
1.64206
1.64269
1.64129
1.64763
1.66193
1.66215
1.69496
1.69638
1.68501
1.69094
1.7081
1.65087
1.60724
1.61151
1.64144
1.55822
1.51921
1.54365
1.56881
1.54526
1.54625
1.5843
1.54783
1.46374
1.58119
1.00172
1.00439
1.00931
1.01858
1.03473
1.06814
1.13405
1.29473
1.48923
1.68495
1.75777
1.73618
1.66495
1.62998
1.63787
1.65761
1.68456
1.72041
1.68561