/*--------------------------------*- C++ -*----------------------------------*\
  =========                 |
  \\      /  F ield         | OpenFOAM: The Open Source CFD Toolbox
   \\    /   O peration     | Website:  https://openfoam.org
    \\  /    A nd           | Version:  6.0
     \\/     M anipulation  |
\*---------------------------------------------------------------------------*/
FoamFile
{
    version     2.0;
    format      ascii;
    class       volVectorField;
    location    "3";
    object      U;
}
// * * * * * * * * * * * * * * * * * * * * * * * * * * * * * * * * * * * * * //

dimensions      [0 1 -1 0 0 0 0];

internalField   nonuniform List<vector> 
4800
(
(3 -7.51712e-14 0)
(3 -5.07338e-13 0)
(3 -1.74102e-12 0)
(3 -4.39256e-12 0)
(3 -9.54849e-12 0)
(3 -1.92378e-11 0)
(3 -3.73043e-11 0)
(3 -7.10333e-11 0)
(3 -1.34098e-10 0)
(3 -2.51742e-10 0)
(3 -4.69547e-10 0)
(3 -8.67263e-10 0)
(2.99999 -1.57833e-09 0)
(2.99998 -2.8116e-09 0)
(2.99996 -4.85787e-09 0)
(2.99992 -8.02392e-09 0)
(2.99984 -1.23293e-08 0)
(2.99968 -1.65375e-08 0)
(2.99934 -1.54853e-08 0)
(2.99865 6.59455e-09 0)
(2.99724 9.1411e-08 0)
(2.99431 3.38689e-07 0)
(2.98827 9.65112e-07 0)
(2.97569 2.38928e-06 0)
(2.94907 5.27758e-06 0)
(2.89078 1.02468e-05 0)
(2.75293 1.65658e-05 0)
(2.35706 1.06048e-05 0)
(0.469468 -7.00046e-05 0)
(-1.05134 0.00190465 0)
(-0.790372 0.00291395 0)
(-0.45878 0.0143861 0)
(-0.182895 -0.0128382 0)
(0.468259 -0.125907 0)
(0.916177 -0.232457 0)
(0.762924 -0.177827 0)
(-0.343885 -0.0669837 0)
(-0.440384 0.0285492 0)
(0.0846412 -0.282123 0)
(0.723663 -1.19647 0)
(3 -3.06811e-13 0)
(3 -1.90158e-12 0)
(3 -6.09644e-12 0)
(3 -1.49387e-11 0)
(3 -3.20562e-11 0)
(3 -6.40893e-11 0)
(3 -1.23362e-10 0)
(3 -2.32897e-10 0)
(3 -4.3583e-10 0)
(3 -8.13139e-10 0)
(3 -1.51689e-09 0)
(3 -2.83198e-09 0)
(2.99999 -5.28818e-09 0)
(2.99998 -9.85552e-09 0)
(2.99996 -1.82615e-08 0)
(2.99992 -3.34407e-08 0)
(2.99984 -5.99873e-08 0)
(2.99968 -1.04049e-07 0)
(2.99934 -1.70989e-07 0)
(2.99865 -2.56723e-07 0)
(2.99724 -3.24057e-07 0)
(2.99431 -2.48922e-07 0)
(2.98827 2.80615e-07 0)
(2.9757 1.89572e-06 0)
(2.94908 5.5043e-06 0)
(2.89079 1.11394e-05 0)
(2.75295 1.34047e-05 0)
(2.35708 -3.66425e-05 0)
(0.470558 -0.000331744 0)
(-1.05018 0.0060445 0)
(-0.785017 0.00832831 0)
(-0.451259 0.0388202 0)
(-0.153834 0.00111513 0)
(0.611421 -0.149254 0)
(1.37396 -0.250522 0)
(0.80047 0.0990591 0)
(0.0785526 -0.0381694 0)
(-0.409972 0.15111 0)
(-0.123371 -0.00643108 0)
(-0.116717 -0.583913 0)
(3 -5.48219e-13 0)
(3 -3.27216e-12 0)
(3 -1.02497e-11 0)
(3 -2.53707e-11 0)
(3 -5.58794e-11 0)
(3 -1.15382e-10 0)
(3 -2.29434e-10 0)
(3 -4.45743e-10 0)
(3 -8.53066e-10 0)
(3 -1.61704e-09 0)
(3 -3.04966e-09 0)
(3 -5.74704e-09 0)
(2.99999 -1.08656e-08 0)
(2.99998 -2.06761e-08 0)
(2.99996 -3.96612e-08 0)
(2.99992 -7.66398e-08 0)
(2.99984 -1.48746e-07 0)
(2.99968 -2.88574e-07 0)
(2.99934 -5.56379e-07 0)
(2.99865 -1.0597e-06 0)
(2.99724 -1.98301e-06 0)
(2.99431 -3.63116e-06 0)
(2.98827 -6.50193e-06 0)
(2.9757 -1.14726e-05 0)
(2.94908 -2.05052e-05 0)
(2.8908 -3.95713e-05 0)
(2.75296 -8.84761e-05 0)
(2.35708 -0.000283022 0)
(0.473144 -0.00120711 0)
(-1.04792 0.00911368 0)
(-0.779961 0.0154788 0)
(-0.453256 0.0604687 0)
(-0.132512 0.00317603 0)
(0.669094 0.127511 0)
(1.44909 -0.149732 0)
(0.707698 0.257615 0)
(-0.0755532 -0.13751 0)
(-0.407213 0.187778 0)
(-0.209607 0.169987 0)
(-0.172937 -0.0799784 0)
(3 -5.1113e-13 0)
(3 -3.13721e-12 0)
(3 -1.0325e-11 0)
(3 -2.73272e-11 0)
(3 -6.46325e-11 0)
(3 -1.43388e-10 0)
(3 -3.05869e-10 0)
(3 -6.3501e-10 0)
(3 -1.29074e-09 0)
(3 -2.57783e-09 0)
(3 -5.07385e-09 0)
(3 -9.8751e-09 0)
(2.99999 -1.90805e-08 0)
(2.99998 -3.67682e-08 0)
(2.99996 -7.10065e-08 0)
(2.99992 -1.3805e-07 0)
(2.99984 -2.71119e-07 0)
(2.99968 -5.38669e-07 0)
(2.99934 -1.08195e-06 0)
(2.99865 -2.19084e-06 0)
(2.99723 -4.45426e-06 0)
(2.99431 -9.05411e-06 0)
(2.98827 -1.83412e-05 0)
(2.97569 -3.7009e-05 0)
(2.94907 -7.47446e-05 0)
(2.89079 -0.000153332 0)
(2.75293 -0.00032733 0)
(2.35692 -0.000839431 0)
(0.476539 -0.00316814 0)
(-1.04486 0.00950501 0)
(-0.77255 0.0233856 0)
(-0.469389 0.0556115 0)
(-0.0102705 0.0693701 0)
(1.08466 0.206933 0)
(1.32576 0.118273 0)
(0.43609 -0.222347 0)
(-0.223109 0.140115 0)
(-0.425967 0.237824 0)
(-0.307003 0.23976 0)
(-0.182853 0.0588343 0)
(3 -1.10065e-13 0)
(3 -1.08061e-12 0)
(3 -5.13393e-12 0)
(3 -1.72094e-11 0)
(3 -4.78121e-11 0)
(3 -1.20047e-10 0)
(3 -2.83948e-10 0)
(3 -6.44848e-10 0)
(3 -1.41888e-09 0)
(3 -3.04051e-09 0)
(3 -6.36974e-09 0)
(3 -1.30918e-08 0)
(2.99999 -2.64963e-08 0)
(2.99998 -5.30224e-08 0)
(2.99996 -1.05393e-07 0)
(2.99992 -2.09109e-07 0)
(2.99984 -4.16145e-07 0)
(2.99968 -8.34098e-07 0)
(2.99934 -1.68841e-06 0)
(2.99865 -3.4546e-06 0)
(2.99723 -7.13729e-06 0)
(2.99431 -1.48541e-05 0)
(2.98827 -3.10535e-05 0)
(2.97568 -6.50831e-05 0)
(2.94904 -0.000136838 0)
(2.89073 -0.000290563 0)
(2.75278 -0.000633273 0)
(2.3563 -0.00158521 0)
(0.47881 -0.00593854 0)
(-1.04148 0.00776227 0)
(-0.769025 0.0286582 0)
(-0.460208 0.037919 0)
(-0.0594461 0.103638 0)
(0.535157 0.111415 0)
(1.20192 0.0502235 0)
(0.151944 -0.270223 0)
(-0.343071 0.285484 0)
(-0.494769 0.356111 0)
(-0.351337 0.223011 0)
(-0.087807 0.117929 0)
(3 4.53024e-13 0)
(3 1.80572e-12 0)
(3 2.43477e-12 0)
(3 -5.35788e-13 0)
(3 -1.35853e-11 0)
(3 -5.30866e-11 0)
(3 -1.58945e-10 0)
(3 -4.23726e-10 0)
(3 -1.054e-09 0)
(3 -2.49725e-09 0)
(3 -5.70035e-09 0)
(3 -1.26308e-08 0)
(2.99999 -2.73234e-08 0)
(2.99998 -5.79874e-08 0)
(2.99996 -1.21285e-07 0)
(2.99992 -2.51125e-07 0)
(2.99984 -5.17014e-07 0)
(2.99968 -1.06281e-06 0)
(2.99934 -2.18942e-06 0)
(2.99865 -4.53188e-06 0)
(2.99723 -9.43906e-06 0)
(2.9943 -1.97858e-05 0)
(2.98826 -4.17098e-05 0)
(2.97566 -8.83528e-05 0)
(2.949 -0.000188162 0)
(2.89062 -0.000404912 0)
(2.75249 -0.000893532 0)
(2.35512 -0.00223659 0)
(0.477879 -0.00854731 0)
(-1.03829 0.0063116 0)
(-0.76364 0.0327042 0)
(-0.437128 0.0394596 0)
(-0.0957119 0.13627 0)
(0.388143 0.183805 0)
(0.926675 0.142095 0)
(0.00405621 -0.0647046 0)
(-0.361806 0.253256 0)
(-0.432439 0.158847 0)
(-0.271542 0.163498 0)
(0.105358 0.153642 0)
(3 7.73905e-13 0)
(3 3.40401e-12 0)
(3 6.76038e-12 0)
(3 1.06413e-11 0)
(3 1.46814e-11 0)
(3 1.52432e-11 0)
(3 -2.26047e-12 0)
(3 -8.25329e-11 0)
(3 -3.46387e-10 0)
(3 -1.09632e-09 0)
(3 -3.05031e-09 0)
(3 -7.84558e-09 0)
(2.99999 -1.91035e-08 0)
(2.99998 -4.46547e-08 0)
(2.99996 -1.01167e-07 0)
(2.99992 -2.23792e-07 0)
(2.99984 -4.86406e-07 0)
(2.99968 -1.04449e-06 0)
(2.99934 -2.2269e-06 0)
(2.99865 -4.7337e-06 0)
(2.99723 -1.00651e-05 0)
(2.9943 -2.14527e-05 0)
(2.98824 -4.58856e-05 0)
(2.97563 -9.85415e-05 0)
(2.94894 -0.000212698 0)
(2.89048 -0.000463559 0)
(2.7521 -0.00103498 0)
(2.35348 -0.00260544 0)
(0.474031 -0.010204 0)
(-1.03459 0.00767989 0)
(-0.756254 0.0379677 0)
(-0.416052 0.0494155 0)
(-0.101925 0.15119 0)
(0.29488 0.249285 0)
(0.749161 0.241681 0)
(0.574318 -0.0494863 0)
(-0.0852473 0.197003 0)
(-0.0384448 0.0747874 0)
(-0.118359 0.137924 0)
(0.216883 0.131565 0)
(3 4.81997e-13 0)
(3 1.80585e-12 0)
(3 2.73324e-12 0)
(3 4.52795e-12 0)
(3 1.12674e-11 0)
(3 3.10874e-11 0)
(3 7.77615e-11 0)
(3 1.69846e-10 0)
(3 3.19638e-10 0)
(3 4.91935e-10 0)
(3 4.8434e-10 0)
(3 -3.81546e-10 0)
(2.99999 -4.00209e-09 0)
(2.99998 -1.51916e-08 0)
(2.99996 -4.54537e-08 0)
(2.99992 -1.21177e-07 0)
(2.99984 -3.01259e-07 0)
(2.99968 -7.14955e-07 0)
(2.99934 -1.6435e-06 0)
(2.99865 -3.69765e-06 0)
(2.99723 -8.20702e-06 0)
(2.99429 -1.808e-05 0)
(2.98823 -3.97131e-05 0)
(2.9756 -8.72596e-05 0)
(2.94887 -0.000192353 0)
(2.89032 -0.000427741 0)
(2.75166 -0.000974017 0)
(2.35156 -0.00250282 0)
(0.468248 -0.0102556 0)
(-1.02941 0.0128317 0)
(-0.747532 0.0455437 0)
(-0.396191 0.0632332 0)
(-0.0886833 0.149985 0)
(0.225625 0.264938 0)
(0.554336 0.287282 0)
(0.491779 0.0528379 0)
(0.343233 0.124741 0)
(0.112312 0.082262 0)
(0.0186267 0.12471 0)
(0.211443 0.102602 0)
(3 -5.15779e-13 0)
(3 -3.42613e-12 0)
(3 -1.09072e-11 0)
(3 -2.30383e-11 0)
(3 -3.68354e-11 0)
(3 -4.19107e-11 0)
(3 -1.11324e-11 0)
(3 1.16658e-10 0)
(3 4.65969e-10 0)
(3 1.26947e-09 0)
(3 2.92486e-09 0)
(3 6.03596e-09 0)
(2.99999 1.13412e-08 0)
(2.99998 1.92575e-08 0)
(2.99996 2.83564e-08 0)
(2.99992 3.1163e-08 0)
(2.99984 3.65967e-09 0)
(2.99968 -1.19455e-07 0)
(2.99934 -5.01101e-07 0)
(2.99865 -1.52787e-06 0)
(2.99722 -4.09092e-06 0)
(2.99429 -1.02144e-05 0)
(2.98822 -2.4473e-05 0)
(2.97558 -5.72231e-05 0)
(2.94881 -0.000132127 0)
(2.89018 -0.000304864 0)
(2.75126 -0.00071684 0)
(2.34975 -0.00192059 0)
(0.463274 -0.00852107 0)
(-1.02188 0.021536 0)
(-0.737259 0.0567558 0)
(-0.379067 0.0809513 0)
(-0.0734331 0.150047 0)
(0.196307 0.249417 0)
(0.437519 0.298242 0)
(0.459227 0.143674 0)
(0.401466 0.128942 0)
(0.192722 0.117573 0)
(0.0745267 0.16565 0)
(0.204263 0.132098 0)
(3 -1.76872e-12 0)
(3 -9.92117e-12 0)
(3 -2.8129e-11 0)
(3 -6.09895e-11 0)
(3 -1.14e-10 0)
(3 -1.90197e-10 0)
(3 -2.80552e-10 0)
(3 -3.41041e-10 0)
(3 -2.42255e-10 0)
(3 3.3488e-10 0)
(3 2.10456e-09 0)
(3 6.56305e-09 0)
(2.99999 1.66838e-08 0)
(2.99998 3.80949e-08 0)
(2.99996 8.09078e-08 0)
(2.99992 1.62153e-07 0)
(2.99984 3.07957e-07 0)
(2.99968 5.52286e-07 0)
(2.99934 9.2342e-07 0)
(2.99865 1.39643e-06 0)
(2.99722 1.76137e-06 0)
(2.99429 1.29318e-06 0)
(2.98821 -2.03888e-06 0)
(2.97556 -1.34403e-05 0)
(2.94878 -4.57792e-05 0)
(2.89008 -0.000131181 0)
(2.75097 -0.000354805 0)
(2.34834 -0.00109408 0)
(0.461532 -0.00580721 0)
(-1.01149 0.0318799 0)
(-0.725833 0.0705886 0)
(-0.363806 0.101379 0)
(-0.0594295 0.161739 0)
(0.188598 0.244363 0)
(0.377728 0.298041 0)
(0.443388 0.196702 0)
(0.405277 0.165358 0)
(0.198002 0.16176 0)
(0.0816759 0.220911 0)
(0.194807 0.175293 0)
(3 -2.33046e-12 0)
(3 -1.28131e-11 0)
(3 -3.62835e-11 0)
(3 -8.25455e-11 0)
(3 -1.68985e-10 0)
(3 -3.23206e-10 0)
(3 -5.8387e-10 0)
(3 -9.93631e-10 0)
(3 -1.56932e-09 0)
(3 -2.21601e-09 0)
(3 -2.51398e-09 0)
(3 -1.23227e-09 0)
(2.99999 4.72452e-09 0)
(2.99998 2.25104e-08 0)
(2.99996 6.77642e-08 0)
(2.99992 1.73254e-07 0)
(2.99984 4.05124e-07 0)
(2.99968 8.91952e-07 0)
(2.99934 1.87328e-06 0)
(2.99865 3.77279e-06 0)
(2.99722 7.29063e-06 0)
(2.99429 1.34767e-05 0)
(2.98821 2.36658e-05 0)
(2.97556 3.89707e-05 0)
(2.94877 5.85787e-05 0)
(2.89004 7.46658e-05 0)
(2.75081 5.84573e-05 0)
(2.34739 -0.000190694 0)
(0.463425 -0.00286659 0)
(-0.998155 0.0420445 0)
(-0.713482 0.0850202 0)
(-0.349944 0.122314 0)
(-0.0464042 0.177641 0)
(0.190068 0.248592 0)
(0.34957 0.298932 0)
(0.434274 0.236319 0)
(0.402981 0.185321 0)
(0.188462 0.191725 0)
(0.0798507 0.273623 0)
(0.176301 0.212773 0)
(3 -1.78705e-12 0)
(3 -9.99983e-12 0)
(3 -2.95094e-11 0)
(3 -7.21786e-11 0)
(3 -1.62267e-10 0)
(3 -3.46485e-10 0)
(3 -7.10441e-10 0)
(3 -1.40239e-09 0)
(3 -2.66123e-09 0)
(3 -4.83338e-09 0)
(3 -8.33253e-09 0)
(3 -1.34241e-08 0)
(2.99999 -1.95562e-08 0)
(2.99998 -2.36108e-08 0)
(2.99996 -1.57059e-08 0)
(2.99992 3.03786e-08 0)
(2.99984 1.78273e-07 0)
(2.99968 5.73999e-07 0)
(2.99934 1.53894e-06 0)
(2.99865 3.75468e-06 0)
(2.99723 8.61279e-06 0)
(2.99429 1.88342e-05 0)
(2.98822 3.94674e-05 0)
(2.97557 7.92677e-05 0)
(2.94879 0.000152081 0)
(2.89007 0.000277063 0)
(2.7508 0.000480217 0)
(2.34696 0.000721578 0)
(0.46878 5.48766e-05 0)
(-0.98196 0.0516314 0)
(-0.700313 0.0992892 0)
(-0.337498 0.142145 0)
(-0.0341957 0.191809 0)
(0.195819 0.257177 0)
(0.340043 0.302504 0)
(0.425672 0.273099 0)
(0.394345 0.211138 0)
(0.184559 0.21655 0)
(0.0816733 0.316291 0)
(0.148604 0.241455 0)
(3 -8.50927e-13 0)
(3 -5.15571e-12 0)
(3 -1.68969e-11 0)
(3 -4.58571e-11 0)
(3 -1.13966e-10 0)
(3 -2.68816e-10 0)
(3 -6.10046e-10 0)
(3 -1.33847e-09 0)
(3 -2.84283e-09 0)
(3 -5.84387e-09 0)
(3 -1.16144e-08 0)
(3 -2.22739e-08 0)
(2.99999 -4.10825e-08 0)
(2.99998 -7.24494e-08 0)
(2.99996 -1.20846e-07 0)
(2.99992 -1.86548e-07 0)
(2.99984 -2.53176e-07 0)
(2.99968 -2.55335e-07 0)
(2.99934 2.93e-10 0)
(2.99865 1.01888e-06 0)
(2.99723 4.02961e-06 0)
(2.9943 1.18689e-05 0)
(2.98823 3.07684e-05 0)
(2.9756 7.37008e-05 0)
(2.94884 0.000165993 0)
(2.89018 0.000353711 0)
(2.751 0.000723915 0)
(2.3472 0.00140545 0)
(0.478474 0.00282129 0)
(-0.962946 0.0622522 0)
(-0.686258 0.11376 0)
(-0.326015 0.159547 0)
(-0.0224491 0.20604 0)
(0.204526 0.270229 0)
(0.340462 0.310028 0)
(0.420702 0.30288 0)
(0.381275 0.252395 0)
(0.182268 0.258894 0)
(0.0882403 0.357103 0)
(0.120485 0.269079 0)
(3 -5.08149e-13 0)
(3 -3.36801e-12 0)
(3 -1.17818e-11 0)
(3 -3.22872e-11 0)
(3 -7.98756e-11 0)
(3 -1.89408e-10 0)
(3 -4.40779e-10 0)
(3 -1.0127e-09 0)
(3 -2.29302e-09 0)
(3 -5.09615e-09 0)
(3 -1.10739e-08 0)
(3 -2.34599e-08 0)
(2.99999 -4.8354e-08 0)
(2.99998 -9.68187e-08 0)
(2.99996 -1.8804e-07 0)
(2.99992 -3.5351e-07 0)
(2.99984 -6.41057e-07 0)
(2.99968 -1.11422e-06 0)
(2.99934 -1.83361e-06 0)
(2.99865 -2.78481e-06 0)
(2.99723 -3.66391e-06 0)
(2.9943 -3.31134e-06 0)
(2.98824 1.67006e-06 0)
(2.97562 2.00461e-05 0)
(2.9489 7.24827e-05 0)
(2.89033 0.000204309 0)
(2.75138 0.000520129 0)
(2.34834 0.00123063 0)
(0.496774 0.00379121 0)
(-0.941048 0.0733845 0)
(-0.672065 0.127563 0)
(-0.31503 0.173894 0)
(-0.0104187 0.224131 0)
(0.214714 0.284942 0)
(0.345501 0.321322 0)
(0.419293 0.326688 0)
(0.369656 0.290055 0)
(0.183016 0.310281 0)
(0.0942963 0.400893 0)
(0.097495 0.299692 0)
(3 -9.47656e-13 0)
(3 -5.63683e-12 0)
(3 -1.7355e-11 0)
(3 -4.17389e-11 0)
(3 -9.02469e-11 0)
(3 -1.87521e-10 0)
(3 -3.88889e-10 0)
(3 -8.21494e-10 0)
(3 -1.77813e-09 0)
(3 -3.92463e-09 0)
(3 -8.74254e-09 0)
(3 -1.9441e-08 0)
(2.99999 -4.27688e-08 0)
(2.99998 -9.24929e-08 0)
(2.99996 -1.95848e-07 0)
(2.99992 -4.05086e-07 0)
(2.99984 -8.17401e-07 0)
(2.99968 -1.60776e-06 0)
(2.99934 -3.07971e-06 0)
(2.99865 -5.73579e-06 0)
(2.99723 -1.03542e-05 0)
(2.9943 -1.80115e-05 0)
(2.98824 -2.98757e-05 0)
(2.97563 -4.63508e-05 0)
(2.94893 -6.47475e-05 0)
(2.89042 -7.40076e-05 0)
(2.75168 -3.53958e-05 0)
(2.34959 9.26596e-05 0)
(0.523273 0.00106813 0)
(-0.916949 0.0766474 0)
(-0.658422 0.135049 0)
(-0.303397 0.186456 0)
(0.00233967 0.245918 0)
(0.225478 0.297845 0)
(0.352768 0.33574 0)
(0.418422 0.348387 0)
(0.35794 0.321374 0)
(0.18345 0.351937 0)
(0.100025 0.436397 0)
(0.0811807 0.331475 0)
(3 -1.59636e-12 0)
(3 -8.99659e-12 0)
(3 -2.61703e-11 0)
(3 -6.05683e-11 0)
(3 -1.26302e-10 0)
(3 -2.50167e-10 0)
(3 -4.84686e-10 0)
(3 -9.37191e-10 0)
(3 -1.83639e-09 0)
(3 -3.68628e-09 0)
(3 -7.61926e-09 0)
(3 -1.61897e-08 0)
(2.99999 -3.51112e-08 0)
(2.99998 -7.69472e-08 0)
(2.99996 -1.68717e-07 0)
(2.99992 -3.67106e-07 0)
(2.99984 -7.88007e-07 0)
(2.99968 -1.6624e-06 0)
(2.99934 -3.43934e-06 0)
(2.99865 -6.97133e-06 0)
(2.99723 -1.38394e-05 0)
(2.99429 -2.69076e-05 0)
(2.98823 -5.12467e-05 0)
(2.97562 -9.56659e-05 0)
(2.94891 -0.000175466 0)
(2.89041 -0.000318597 0)
(2.75173 -0.000577977 0)
(2.34997 -0.0012061 0)
(0.545808 -0.00337189 0)
(-0.89348 0.0725788 0)
(-0.642449 0.136076 0)
(-0.289001 0.194839 0)
(0.0157615 0.260971 0)
(0.236052 0.312174 0)
(0.362391 0.351159 0)
(0.417732 0.369679 0)
(0.344596 0.353326 0)
(0.179787 0.386013 0)
(0.10564 0.464835 0)
(0.0705436 0.360865 0)
(3 -1.87847e-12 0)
(3 -1.04357e-11 0)
(3 -3.01313e-11 0)
(3 -7.07115e-11 0)
(3 -1.51413e-10 0)
(3 -3.09197e-10 0)
(3 -6.14512e-10 0)
(3 -1.20149e-09 0)
(3 -2.3282e-09 0)
(3 -4.50278e-09 0)
(3 -8.75832e-09 0)
(3 -1.72663e-08 0)
(2.99999 -3.47144e-08 0)
(2.99998 -7.13831e-08 0)
(2.99996 -1.49906e-07 0)
(2.99992 -3.19834e-07 0)
(2.99984 -6.88276e-07 0)
(2.99968 -1.4829e-06 0)
(2.99934 -3.17845e-06 0)
(2.99865 -6.74559e-06 0)
(2.99722 -1.41313e-05 0)
(2.99429 -2.91732e-05 0)
(2.98822 -5.93279e-05 0)
(2.97559 -0.000118967 0)
(2.94886 -0.00023595 0)
(2.89032 -0.00046637 0)
(2.75157 -0.000930584 0)
(2.34951 -0.00210213 0)
(0.563141 -0.00668988 0)
(-0.87083 0.0704978 0)
(-0.624789 0.138517 0)
(-0.272647 0.201657 0)
(0.0322499 0.263652 0)
(0.248492 0.333295 0)
(0.373027 0.365726 0)
(0.418189 0.386665 0)
(0.330476 0.387204 0)
(0.173356 0.419326 0)
(0.109615 0.491636 0)
(0.0609216 0.384145 0)
(3 -1.6367e-12 0)
(3 -9.13188e-12 0)
(3 -2.67831e-11 0)
(3 -6.50963e-11 0)
(3 -1.46294e-10 0)
(3 -3.15904e-10 0)
(3 -6.64821e-10 0)
(3 -1.37029e-09 0)
(3 -2.77254e-09 0)
(3 -5.52071e-09 0)
(3 -1.08594e-08 0)
(3 -2.12111e-08 0)
(2.99999 -4.13976e-08 0)
(2.99998 -8.12614e-08 0)
(2.99996 -1.61358e-07 0)
(2.99992 -3.2533e-07 0)
(2.99984 -6.66673e-07 0)
(2.99968 -1.38597e-06 0)
(2.99934 -2.91159e-06 0)
(2.99865 -6.15039e-06 0)
(2.99722 -1.30007e-05 0)
(2.99428 -2.73898e-05 0)
(2.9882 -5.73594e-05 0)
(2.97556 -0.000119286 0)
(2.94879 -0.00024669 0)
(2.89019 -0.000510271 0)
(2.75125 -0.00106827 0)
(2.34847 -0.00252091 0)
(0.577125 -0.00844446 0)
(-0.847751 0.0721042 0)
(-0.605253 0.144726 0)
(-0.256343 0.212007 0)
(0.0513878 0.269601 0)
(0.264555 0.350097 0)
(0.381328 0.383667 0)
(0.420564 0.401352 0)
(0.318464 0.415778 0)
(0.166066 0.444743 0)
(0.109624 0.505125 0)
(0.0495695 0.404504 0)
(3 -1.07097e-12 0)
(3 -6.10545e-12 0)
(3 -1.85634e-11 0)
(3 -4.75385e-11 0)
(3 -1.13981e-10 0)
(3 -2.6438e-10 0)
(3 -5.97839e-10 0)
(3 -1.31828e-09 0)
(3 -2.83371e-09 0)
(3 -5.94349e-09 0)
(3 -1.21927e-08 0)
(3 -2.45528e-08 0)
(2.99999 -4.87609e-08 0)
(2.99998 -9.60308e-08 0)
(2.99996 -1.88671e-07 0)
(2.99992 -3.71906e-07 0)
(2.99984 -7.38903e-07 0)
(2.99968 -1.4837e-06 0)
(2.99934 -3.01263e-06 0)
(2.99864 -6.17749e-06 0)
(2.99721 -1.27603e-05 0)
(2.99427 -2.64765e-05 0)
(2.98819 -5.50475e-05 0)
(2.97553 -0.000114522 0)
(2.94873 -0.000238536 0)
(2.89004 -0.000499697 0)
(2.75088 -0.00106378 0)
(2.34713 -0.00256266 0)
(0.589385 -0.00877117 0)
(-0.823515 0.0765669 0)
(-0.583598 0.153573 0)
(-0.23865 0.224012 0)
(0.069352 0.291843 0)
(0.282616 0.355992 0)
(0.390147 0.406212 0)
(0.421796 0.420747 0)
(0.305247 0.42747 0)
(0.157687 0.458141 0)
(0.108474 0.501847 0)
(0.0403796 0.425628 0)
(3 -4.9791e-13 0)
(3 -2.95453e-12 0)
(3 -9.46853e-12 0)
(3 -2.59314e-11 0)
(3 -6.77935e-11 0)
(3 -1.73187e-10 0)
(3 -4.30616e-10 0)
(3 -1.03599e-09 0)
(3 -2.40703e-09 0)
(3 -5.40677e-09 0)
(3 -1.17722e-08 0)
(3 -2.49288e-08 0)
(2.99999 -5.15429e-08 0)
(2.99998 -1.0453e-07 0)
(2.99996 -2.0903e-07 0)
(2.99992 -4.14608e-07 0)
(2.99984 -8.20671e-07 0)
(2.99968 -1.63002e-06 0)
(2.99934 -3.26173e-06 0)
(2.99864 -6.58781e-06 0)
(2.99721 -1.34251e-05 0)
(2.99426 -2.75507e-05 0)
(2.98818 -5.67899e-05 0)
(2.97549 -0.000117333 0)
(2.94866 -0.000242877 0)
(2.8899 -0.000505385 0)
(2.75053 -0.00106714 0)
(2.34584 -0.00254943 0)
(0.602192 -0.00860894 0)
(-0.797969 0.0820551 0)
(-0.560651 0.163869 0)
(-0.217079 0.236335 0)
(0.0857731 0.31982 0)
(0.298777 0.365279 0)
(0.401793 0.423715 0)
(0.418226 0.440294 0)
(0.290245 0.435028 0)
(0.151285 0.474875 0)
(0.107331 0.498266 0)
(0.035211 0.446185 0)
(3 -1.01226e-13 0)
(3 -6.1084e-13 0)
(3 -1.97011e-12 0)
(3 -5.99017e-12 0)
(3 -1.98085e-11 0)
(3 -6.54225e-11 0)
(3 -2.02041e-10 0)
(3 -5.76913e-10 0)
(3 -1.53606e-09 0)
(3 -3.85583e-09 0)
(3 -9.21038e-09 0)
(3 -2.10886e-08 0)
(2.99999 -4.65573e-08 0)
(2.99998 -9.96214e-08 0)
(2.99996 -2.07662e-07 0)
(2.99992 -4.2401e-07 0)
(2.99984 -8.53187e-07 0)
(2.99968 -1.70306e-06 0)
(2.99934 -3.39477e-06 0)
(2.99864 -6.79628e-06 0)
(2.99721 -1.37177e-05 0)
(2.99426 -2.79532e-05 0)
(2.98816 -5.74549e-05 0)
(2.97546 -0.000118847 0)
(2.94859 -0.000246886 0)
(2.88975 -0.000515392 0)
(2.75016 -0.00108853 0)
(2.3445 -0.00258913 0)
(0.615099 -0.0086162 0)
(-0.771136 0.0872919 0)
(-0.536372 0.174629 0)
(-0.192903 0.249586 0)
(0.104025 0.333913 0)
(0.31138 0.389147 0)
(0.413055 0.43855 0)
(0.414848 0.455703 0)
(0.27831 0.462459 0)
(0.146013 0.499576 0)
(0.104676 0.500819 0)
(0.032729 0.463999 0)
(3 1.63668e-13 0)
(3 1.11178e-12 0)
(3 4.10603e-12 0)
(3 1.13955e-11 0)
(3 2.50164e-11 0)
(3 4.30867e-11 0)
(3 4.82233e-11 0)
(3 -2.47808e-11 0)
(3 -3.70611e-10 0)
(3 -1.50498e-09 0)
(3 -4.68874e-09 0)
(3 -1.28235e-08 0)
(2.99999 -3.22695e-08 0)
(2.99998 -7.64209e-08 0)
(2.99996 -1.72589e-07 0)
(2.99992 -3.75142e-07 0)
(2.99984 -7.90777e-07 0)
(2.99968 -1.62827e-06 0)
(2.99934 -3.29958e-06 0)
(2.99864 -6.63142e-06 0)
(2.9972 -1.33167e-05 0)
(2.99425 -2.68817e-05 0)
(2.98814 -5.47502e-05 0)
(2.97543 -0.000112605 0)
(2.94853 -0.000233594 0)
(2.8896 -0.000488504 0)
(2.74977 -0.00103469 0)
(2.34306 -0.00247335 0)
(0.627502 -0.0081912 0)
(-0.742843 0.0932807 0)
(-0.510518 0.186361 0)
(-0.169917 0.264777 0)
(0.125677 0.340659 0)
(0.326281 0.417019 0)
(0.420377 0.46037 0)
(0.414822 0.477204 0)
(0.270617 0.505649 0)
(0.138703 0.52868 0)
(0.100453 0.507619 0)
(0.0319042 0.473882 0)
(3 3.93081e-13 0)
(3 2.63392e-12 0)
(3 9.50481e-12 0)
(3 2.6719e-11 0)
(3 6.46848e-11 0)
(3 1.41394e-10 0)
(3 2.84626e-10 0)
(3 5.27235e-10 0)
(3 8.77795e-10 0)
(3 1.22191e-09 0)
(3 1.05086e-09 0)
(3 -1.20527e-09 0)
(2.99999 -9.69522e-09 0)
(2.99998 -3.44007e-08 0)
(2.99996 -9.77912e-08 0)
(2.99992 -2.47938e-07 0)
(2.99984 -5.83743e-07 0)
(2.99968 -1.30308e-06 0)
(2.99934 -2.79576e-06 0)
(2.99864 -5.82832e-06 0)
(2.9972 -1.19247e-05 0)
(2.99424 -2.41741e-05 0)
(2.98813 -4.89663e-05 0)
(2.9754 -9.97079e-05 0)
(2.94846 -0.000204698 0)
(2.88946 -0.00042422 0)
(2.74939 -0.000891488 0)
(2.34168 -0.00212915 0)
(0.640005 -0.00687682 0)
(-0.712705 0.10133 0)
(-0.482912 0.199614 0)
(-0.147114 0.281292 0)
(0.148028 0.355446 0)
(0.343772 0.430287 0)
(0.427509 0.487278 0)
(0.418253 0.50238 0)
(0.265599 0.531492 0)
(0.130575 0.558198 0)
(0.092783 0.522422 0)
(0.0302083 0.481804 0)
(3 5.95843e-13 0)
(3 3.95107e-12 0)
(3 1.40239e-11 0)
(3 3.90549e-11 0)
(3 9.57915e-11 0)
(3 2.1816e-10 0)
(3 4.7283e-10 0)
(3 9.84365e-10 0)
(3 1.96959e-09 0)
(3 3.76798e-09 0)
(3 6.81795e-09 0)
(3 1.14379e-08 0)
(2.99999 1.70675e-08 0)
(2.99998 2.02038e-08 0)
(2.99996 9.45273e-09 0)
(2.99992 -4.53719e-08 0)
(2.99984 -2.15783e-07 0)
(2.99968 -6.59019e-07 0)
(2.99934 -1.70285e-06 0)
(2.99864 -4.00601e-06 0)
(2.9972 -8.8666e-06 0)
(2.99424 -1.88355e-05 0)
(2.98812 -3.89824e-05 0)
(2.97538 -7.9558e-05 0)
(2.94841 -0.00016157 0)
(2.88934 -0.000328666 0)
(2.74907 -0.000675596 0)
(2.34054 -0.00159487 0)
(0.653859 -0.00479641 0)
(-0.680008 0.110602 0)
(-0.454073 0.213827 0)
(-0.123888 0.298119 0)
(0.16743 0.374774 0)
(0.362101 0.439536 0)
(0.437086 0.504097 0)
(0.416806 0.512964 0)
(0.265676 0.53654 0)
(0.131573 0.569398 0)
(0.0850466 0.539012 0)
(0.0277585 0.505994 0)
(3 7.72259e-13 0)
(3 5.06794e-12 0)
(3 1.76967e-11 0)
(3 4.84836e-11 0)
(3 1.18057e-10 0)
(3 2.7032e-10 0)
(3 5.97661e-10 0)
(3 1.29005e-09 0)
(3 2.72635e-09 0)
(3 5.63365e-09 0)
(3 1.13418e-08 0)
(3 2.21365e-08 0)
(2.99999 4.16198e-08 0)
(2.99998 7.47258e-08 0)
(2.99996 1.26416e-07 0)
(2.99992 1.96756e-07 0)
(2.99984 2.67478e-07 0)
(2.99968 2.7049e-07 0)
(2.99933 2.0995e-08 0)
(2.99863 -9.1475e-07 0)
(2.9972 -3.46841e-06 0)
(2.99423 -9.52743e-06 0)
(2.98811 -2.27789e-05 0)
(2.97536 -5.02878e-05 0)
(2.94837 -0.000105476 0)
(2.88925 -0.000214055 0)
(2.74883 -0.000430721 0)
(2.3397 -0.000990683 0)
(0.669208 -0.00210489 0)
(-0.64664 0.120686 0)
(-0.423317 0.230212 0)
(-0.0986061 0.315253 0)
(0.186819 0.395576 0)
(0.376944 0.458675 0)
(0.442808 0.510951 0)
(0.41547 0.521801 0)
(0.270211 0.553119 0)
(0.140376 0.571729 0)
(0.0879844 0.545385 0)
(0.0302217 0.52331 0)
(3 9.8325e-13 0)
(3 6.34947e-12 0)
(3 2.16945e-11 0)
(3 5.80635e-11 0)
(3 1.3864e-10 0)
(3 3.13237e-10 0)
(3 6.88963e-10 0)
(3 1.49427e-09 0)
(3 3.20978e-09 0)
(3 6.82729e-09 0)
(3 1.43434e-08 0)
(3 2.96585e-08 0)
(2.99999 6.01281e-08 0)
(2.99998 1.19065e-07 0)
(2.99996 2.29412e-07 0)
(2.99992 4.28387e-07 0)
(2.99984 7.71578e-07 0)
(2.99968 1.33205e-06 0)
(2.99934 2.18405e-06 0)
(2.99863 3.35136e-06 0)
(2.99719 4.68737e-06 0)
(2.99423 5.64635e-06 0)
(2.9881 4.92481e-06 0)
(2.97534 7.46448e-08 0)
(2.94834 -1.23818e-05 0)
(2.88918 -3.48106e-05 0)
(2.74863 -6.54289e-05 0)
(2.33914 -0.000104341 0)
(0.685171 0.00177141 0)
(-0.612571 0.13379 0)
(-0.392561 0.248732 0)
(-0.0722333 0.333334 0)
(0.206892 0.417256 0)
(0.389329 0.480845 0)
(0.446995 0.525061 0)
(0.416545 0.544954 0)
(0.279039 0.580679 0)
(0.151687 0.587836 0)
(0.0925341 0.553116 0)
(0.0338444 0.511691 0)
(3 1.32485e-12 0)
(3 8.34286e-12 0)
(3 2.76834e-11 0)
(3 7.20793e-11 0)
(3 1.67841e-10 0)
(3 3.70753e-10 0)
(3 8.00148e-10 0)
(3 1.71203e-09 0)
(3 3.65476e-09 0)
(3 7.79527e-09 0)
(3 1.65879e-08 0)
(3 3.51094e-08 0)
(2.99999 7.36426e-08 0)
(2.99998 1.52515e-07 0)
(2.99996 3.10855e-07 0)
(2.99992 6.21928e-07 0)
(2.99984 1.21913e-06 0)
(2.99968 2.33869e-06 0)
(2.99934 4.38794e-06 0)
(2.99864 8.0524e-06 0)
(2.9972 1.44668e-05 0)
(2.99423 2.55138e-05 0)
(2.98811 4.44513e-05 0)
(2.97535 7.75191e-05 0)
(2.94834 0.000138599 0)
(2.88916 0.000263189 0)
(2.74856 0.000546694 0)
(2.33924 0.00133482 0)
(0.704772 0.00694102 0)
(-0.574838 0.149665 0)
(-0.362453 0.267855 0)
(-0.046984 0.353334 0)
(0.227315 0.439123 0)
(0.400577 0.50333 0)
(0.450951 0.544391 0)
(0.41901 0.572585 0)
(0.291889 0.610489 0)
(0.16757 0.610698 0)
(0.093986 0.573714 0)
(0.0324265 0.508196 0)
(3 1.85055e-12 0)
(3 1.13523e-11 0)
(3 3.66142e-11 0)
(3 9.31216e-11 0)
(3 2.12332e-10 0)
(3 4.59483e-10 0)
(3 9.71405e-10 0)
(3 2.03768e-09 0)
(3 4.27506e-09 0)
(3 9.00105e-09 0)
(3 1.90265e-08 0)
(3 4.03133e-08 0)
(2.99999 8.53738e-08 0)
(2.99998 1.80085e-07 0)
(2.99996 3.77008e-07 0)
(2.99992 7.80799e-07 0)
(2.99984 1.59569e-06 0)
(2.99968 3.21286e-06 0)
(2.99934 6.37011e-06 0)
(2.99864 1.24438e-05 0)
(2.9972 2.39881e-05 0)
(2.99424 4.57557e-05 0)
(2.98812 8.67259e-05 0)
(2.97537 0.000164473 0)
(2.94838 0.000315656 0)
(2.88924 0.000624243 0)
(2.74872 0.00130318 0)
(2.34018 0.00309956 0)
(0.728365 0.0126173 0)
(-0.533281 0.165568 0)
(-0.331773 0.287319 0)
(-0.0232827 0.375819 0)
(0.247319 0.460535 0)
(0.410781 0.525132 0)
(0.455087 0.56479 0)
(0.423042 0.601016 0)
(0.30773 0.640082 0)
(0.187546 0.646315 0)
(0.0971034 0.599266 0)
(0.0305816 0.528544 0)
(3 2.53456e-12 0)
(3 1.52663e-11 0)
(3 4.83279e-11 0)
(3 1.21339e-10 0)
(3 2.73796e-10 0)
(3 5.86148e-10 0)
(3 1.22373e-09 0)
(3 2.52946e-09 0)
(3 5.22095e-09 0)
(3 1.08111e-08 0)
(3 2.25062e-08 0)
(3 4.7118e-08 0)
(2.99999 9.90976e-08 0)
(2.99998 2.08941e-07 0)
(2.99996 4.40395e-07 0)
(2.99992 9.24993e-07 0)
(2.99984 1.92997e-06 0)
(2.99968 3.98945e-06 0)
(2.99934 8.15496e-06 0)
(2.99864 1.64716e-05 0)
(2.99721 3.28881e-05 0)
(2.99425 6.50222e-05 0)
(2.98815 0.000127686 0)
(2.97542 0.000250293 0)
(2.94847 0.000493765 0)
(2.88942 0.000993972 0)
(2.74915 0.00208874 0)
(2.34199 0.00493365 0)
(0.755545 0.0182148 0)
(-0.488835 0.179319 0)
(-0.300369 0.307684 0)
(-0.000379357 0.400811 0)
(0.266187 0.481099 0)
(0.420244 0.546115 0)
(0.459689 0.58641 0)
(0.428135 0.629481 0)
(0.328399 0.670455 0)
(0.210529 0.694837 0)
(0.0992512 0.628143 0)
(0.0296712 0.5593 0)
(3 3.32199e-12 0)
(3 1.98313e-11 0)
(3 6.22888e-11 0)
(3 1.55942e-10 0)
(3 3.51599e-10 0)
(3 7.51891e-10 0)
(3 1.56509e-09 0)
(3 3.2164e-09 0)
(3 6.58016e-09 0)
(3 1.34675e-08 0)
(3 2.76566e-08 0)
(3 5.70759e-08 0)
(2.99999 1.18435e-07 0)
(2.99998 2.47009e-07 0)
(2.99996 5.17174e-07 0)
(2.99992 1.08496e-06 0)
(2.99984 2.27493e-06 0)
(2.99968 4.75454e-06 0)
(2.99934 9.87854e-06 0)
(2.99865 2.0362e-05 0)
(2.99722 4.15912e-05 0)
(2.99427 8.41939e-05 0)
(2.98818 0.000169186 0)
(2.97549 0.00033868 0)
(2.94862 0.00067976 0)
(2.88972 0.00138402 0)
(2.74983 0.00292037 0)
(2.3446 0.00684858 0)
(0.784564 0.0236622 0)
(-0.441989 0.190789 0)
(-0.267305 0.327877 0)
(0.0218389 0.428395 0)
(0.283156 0.501461 0)
(0.429494 0.566577 0)
(0.464985 0.61048 0)
(0.434781 0.658256 0)
(0.353147 0.705641 0)
(0.235312 0.72767 0)
(0.100495 0.666223 0)
(0.0301004 0.598979 0)
(3 4.20759e-12 0)
(3 2.50624e-11 0)
(3 7.86733e-11 0)
(3 1.97519e-10 0)
(3 4.47253e-10 0)
(3 9.60418e-10 0)
(3 2.00476e-09 0)
(3 4.1225e-09 0)
(3 8.41614e-09 0)
(3 1.71389e-08 0)
(3 3.4922e-08 0)
(3 7.13412e-08 0)
(2.99999 1.46306e-07 0)
(2.99998 3.01407e-07 0)
(2.99996 6.23825e-07 0)
(2.99992 1.29652e-06 0)
(2.99984 2.70291e-06 0)
(2.99968 5.64278e-06 0)
(2.99934 1.17719e-05 0)
(2.99865 2.44853e-05 0)
(2.99723 5.06761e-05 0)
(2.9943 0.00010423 0)
(2.98823 0.000213057 0)
(2.97559 0.00043366 0)
(2.94882 0.000883243 0)
(2.89013 0.00181838 0)
(2.75079 0.0038612 0)
(2.34797 0.00902912 0)
(0.81433 0.0296923 0)
(-0.393399 0.202288 0)
(-0.231484 0.345753 0)
(0.0429897 0.456043 0)
(0.297547 0.522783 0)
(0.439155 0.586407 0)
(0.471299 0.638777 0)
(0.443379 0.688664 0)
(0.373763 0.737344 0)
(0.259932 0.732901 0)
(0.108282 0.703507 0)
(0.0306857 0.642528 0)
(3 5.25725e-12 0)
(3 3.1347e-11 0)
(3 9.86669e-11 0)
(3 2.48859e-10 0)
(3 5.66567e-10 0)
(3 1.22319e-09 0)
(3 2.56522e-09 0)
(3 5.29294e-09 0)
(3 1.08236e-08 0)
(3 2.20329e-08 0)
(3 4.47762e-08 0)
(3 9.1028e-08 0)
(2.99999 1.85388e-07 0)
(2.99998 3.78628e-07 0)
(2.99996 7.76e-07 0)
(2.99992 1.59651e-06 0)
(2.99985 3.29704e-06 0)
(2.99968 6.83139e-06 0)
(2.99935 1.41877e-05 0)
(2.99866 2.94932e-05 0)
(2.99724 6.1264e-05 0)
(2.99433 0.000126962 0)
(2.98829 0.000262258 0)
(2.97571 0.000540282 0)
(2.94908 0.00111382 0)
(2.89069 0.0023178 0)
(2.75209 0.0049627 0)
(2.35233 0.0116275 0)
(0.845569 0.036933 0)
(-0.343971 0.215231 0)
(-0.193595 0.3624 0)
(0.0647629 0.476716 0)
(0.309562 0.547411 0)
(0.449856 0.605009 0)
(0.479298 0.663982 0)
(0.450811 0.713152 0)
(0.386923 0.755279 0)
(0.281596 0.742264 0)
(0.123191 0.726683 0)
(0.0339407 0.686988 0)
(3 6.57795e-12 0)
(3 3.93143e-11 0)
(3 1.24193e-10 0)
(3 3.14616e-10 0)
(3 7.19618e-10 0)
(3 1.56089e-09 0)
(3 3.28795e-09 0)
(3 6.81079e-09 0)
(3 1.39705e-08 0)
(3 2.84944e-08 0)
(3 5.79395e-08 0)
(3 1.17664e-07 0)
(2.99999 2.38972e-07 0)
(2.99998 4.85894e-07 0)
(2.99996 9.8986e-07 0)
(2.99993 2.02164e-06 0)
(2.99985 4.14098e-06 0)
(2.99968 8.50849e-06 0)
(2.99935 1.75355e-05 0)
(2.99867 3.62349e-05 0)
(2.99726 7.50187e-05 0)
(2.99436 0.000155466 0)
(2.98837 0.000322239 0)
(2.97587 0.000668072 0)
(2.94941 0.0013886 0)
(2.89141 0.00291465 0)
(2.7538 0.00628916 0)
(2.35786 0.0147765 0)
(0.878779 0.0456202 0)
(-0.294326 0.229458 0)
(-0.15614 0.38018 0)
(0.0886175 0.492061 0)
(0.321239 0.576009 0)
(0.45876 0.623209 0)
(0.486869 0.680207 0)
(0.456575 0.729501 0)
(0.398641 0.771558 0)
(0.301331 0.770737 0)
(0.140114 0.753072 0)
(0.0419299 0.732087 0)
(3 8.31348e-12 0)
(3 4.98143e-11 0)
(3 1.57887e-10 0)
(3 4.01301e-10 0)
(3 9.20866e-10 0)
(3 2.00388e-09 0)
(3 4.23492e-09 0)