/*--------------------------------*- C++ -*----------------------------------*\
  =========                 |
  \\      /  F ield         | OpenFOAM: The Open Source CFD Toolbox
   \\    /   O peration     | Website:  https://openfoam.org
    \\  /    A nd           | Version:  6.0
     \\/     M anipulation  |
\*---------------------------------------------------------------------------*/
FoamFile
{
    version     2.0;
    format      ascii;
    class       volScalarField;
    location    "4.0002168286";
    object      p;
}
// * * * * * * * * * * * * * * * * * * * * * * * * * * * * * * * * * * * * * //

dimensions      [1 -1 -2 0 0 0 0];

internalField   nonuniform List<scalar> 
4800
(
1
1
1
1
1
1
1
1
1
1
1
1
1
1
1
1
1
1
1
1
2.94324
9.53071
10.7416
10.8253
10.8384
10.7054
10.6617
11.0493
11.7506
12.1123
11.8635
11.0055
10.2771
10.528
11.8442
12.8796
12.9006
12.3342
11.9684
12.0608
1
1
1
1
1
1
1
1
1
1
1
1
1
1
1
1
1
1
1
1
2.9585
9.61604
10.5414
10.6667
10.8386
10.9386
11.0239
11.1244
11.1281
11.2378
11.3996
11.6575
11.7918
11.7427
11.7265
11.6823
11.8477
12.0669
12.2133
12.2501
1
1
1
1
1
1
1
1
1
1
1
1
1
1
1
1
1
1
1
1
2.94035
9.63015
10.4318
10.4424
10.629
11.0267
11.3382
11.1816
10.7709
10.5273
10.827
11.7924
12.9253
13.0281
11.7004
10.8494
10.8363
11.5894
11.9634
11.8142
1
1
1
1
1
1
1
1
1
1
1
1
1
1
1
1
1
1
1
1
2.91053
9.56169
10.3691
10.4571
10.7104
11.0675
11.3272
11.2748
10.8717
10.5502
10.8881
11.8771
12.6641
12.642
11.7306
10.7687
10.6409
11.3028
11.6615
11.7988
1
1
1
1
1
1
1
1
1
1
1
1
1
1
1
1
1
1
1
1
2.86054
9.46271
10.4551
10.7012
10.917
10.9958
11.0559
11.1175
11.18
11.3886
11.541
11.5886
11.348
11.3492
11.7431
11.6906
11.6817
11.5466
11.4123
11.5063
1
1
1
1
1
1
1
1
1
1
1
1
1
1
1
1
1
1
1
1
2.79106
9.34059
10.6762
10.8572
10.9272
10.8701
10.7707
10.8819
11.4924
12.1515
12.2263
11.2679
10.305
10.243
11.3194
12.6708
12.5888
11.8334
11.5073
11.6455
1
1
1
1
1
1
1
1
1
1
1
1
1
1
1
1
1
1
1
1
2.7534
9.37116
10.7123
10.8414
10.8878
10.7132
10.6063
10.8937
11.5855
12.0143
11.8432
11.2603
10.5061
10.4
11.4704
12.7518
12.963
12.2464
11.9965
12.0056
1
1
1
1
1
1
1
1
1
1
1
1
1
1
1
1
1
1
1
1
2.73365
9.49928
10.6511
10.6413
10.6885
10.7349
10.8305
11.1913
11.3892
11.2349
11.1676
11.318
11.6755
11.8759
11.9272
12.1043
12.1418
12.5509
12.4985
12.4609
1
1
1
1
1
1
1
1
1
1
1
1
1
1
1
1
1
1
1
1
2.66056
9.46002
10.537
10.4603
10.4649
10.754
11.2613
11.3407
11.0901
10.6358
10.4447
11.0302
12.2885
13.1705
12.5089
11.1271
11.288
12.1384
12.4961
12.2701
1
1
1
1
1
1
1
1
1
1
1
1
1
1
1
1
1
1
1
1
2.55208
9.33268
10.3467
10.3262
10.564
11.0245
11.3174
11.4221
10.9452
10.5533
10.5786
11.4872
12.6014
12.8886
11.926
10.9537
10.7008
11.3524
11.834
11.9259
1
1
1
1
1
1
1
1
1
1
1
1
1
1
1
1
1
1
1
1
2.43669
9.08476
10.224
10.5038
10.9551
11.1378
11.2326
10.9967
10.9122
11.144
11.7646
11.8517
11.7406
11.2395
11.1745
11.3214
11.2831
11.3893
11.3266
11.7275
1
1
1
1
1
1
1
1
1
1
1
1
1
1
1
1
1
1
1
1
2.32994
8.89772
10.307
10.8265
11.0556
11.1417
10.8927
10.7238
10.8958
11.7526
12.4564
12.4564
11.0608
10.1333
10.7995
11.9239
12.2676
11.9404
11.5066
11.8948
1
1
1
1
1
1
1
1
1
1
1
1
1
1
1
1
1
1
1
1
2.23475
8.83841
10.7008
10.8679
11.0113
10.8351
10.5999
10.4711
11.0083
11.6921
12.0419
11.5004
10.7378
10.5562
10.9199
12.0979
12.7028
12.0628
11.792
11.9582
1
1
1
1
1
1
1
1
1
1
1
1
1
1
1
1
1
1
1
1
2.19772
8.97097
10.7934
10.8285
10.6704
10.5119
10.4785
10.8184
11.4364
11.4053
10.9542
10.6946
11.0095
11.5607
11.8451
12.0819
11.8453
11.6836
11.5934
11.6029
1
1
1
1
1
1
1
1
1
1
1
1
1
1
1
1
1
1
1
1
2.1009
8.95244
10.6994
10.523
10.3931
10.4066
10.7733
11.4695
11.5897
11.3259
10.3948
10.1086
10.5173
11.5937
12.5979
11.9342
10.9083
10.9975
11.1112
11.0633
1
1
1
1
1
1
1
1
1
1
1
1
1
1
1
1
1
1
1
1
1.99614
8.73805
10.4512
10.2614
10.3405
10.73
11.3653
11.5935
11.624
10.8214
10.6303
10.855
12.0562
12.4596
12.151
11.0968
10.7194
10.8102
11.1456
11.2452
1
1
1
1
1
1
1
1
1
1
1
1
1
1
1
1
1
1
1
1
1.83607
8.42538
10.1773
10.1691
10.5161
11.2105
11.4065
11.3804
10.7486
10.7068
11.1149
12.3215
12.6549
12.5995
11.2281
10.7321
11.283
11.8373
11.8522
11.7788
1
1
1
1
1
1
1
1
1
1
1
1
1
1
1
1
1
1
1
1
1.70147
8.11946
10.1661
10.4627
10.992
11.1629
11.229
10.6612
10.22
10.3702
11.6487
12.5205
13.0583
11.7203
10.8526
11.2265
12.3471
12.9778
12.5241
12.1213
1
1
1
1
1
1
1
1
1
1
1
1
1
1
1
1
1
1
1
1
1.58634
7.89365
10.368
10.857
11.0092
10.9542
10.6287
10.3208
10.4183
11.1659
11.6865
11.7786
10.7206
10.328
10.9969
12.0737
12.6903
12.8909
12.7618
13.0562
1
1
1
1
1
1
1
1
1
1
1
1
1
1
1
1
1
1
1
1
1.51088
7.92977
10.7219
10.8474
10.9712
10.6138
10.2438
10.4497
11.1298
11.8326
11.6907
10.531
9.33543
9.71701
10.9723
12.374
12.5117
12.3361
12.1709
12.871
1
1
1
1
1
1
1
1
1
1
1
1
1
1
1
1
1
1
1
1
1.4002
7.89365
10.7442
10.7195
10.5405
10.2845
10.2626
10.7305
11.6896
11.9626
11.5713
9.9313
9.34277
9.52461
10.9556
12.1103
12.0344
10.8129
11.4146
12.3008
1
1
1
1
1
1
1
1
1
1
1
1
1
1
1
1
1
1
1
1
1.25638
7.63351
10.6936
10.3694
10.1536
10.2694
10.7445
11.4497
11.5144
11.3971
10.4693
10.549
10.6889
11.5285
11.9198
11.3848
10.2025
10.4246
10.521
10.6627
1
1
1
1
1
1
1
1
1
1
1
1
1
1
1
1
1
1
1
1
1.15499
7.20362
10.3868
10.0296
9.99353
10.5139
11.3935
11.4698
11.3032
10.3171
9.85637
10.657
12.8263
13.2729
12.4056
10.3303
9.57564
9.98146
10.1904
10.2366
1
1
1
1
1
1
1
1
1
1
1
1
1
1
1
1
1
1
1
1
1.09928
6.91305
10.1436
10.0044
10.3896
11.0048
11.3296
11.5663
10.7337
9.92464
10.0404
11.7054
13.0202
13.4082
12.2536
10.2264
9.82208
9.80497
9.9272
9.7147
1
1
1
1
1
1
1
1
1
1
1
1
1
1
1
1
1
1
1
1
1.05191
6.69965
10.009
10.4826
10.9459
10.9924
11.0077
10.5985
10.2633
10.3856
11.4185
11.886
12.0494
12.0091
10.6775
10.8942
11.771
12.2165
11.3214
10.5248
1
1
1
1
1
1
1
1
1
1
1
1
1
1
1
1
1
1
1
1
1.00832
6.60474
10.2891
10.7286
10.9881
11.0547
10.561
9.81163
9.88666
10.961
12.0915
12.1605
11.1198
9.24575
10.099
11.807
13.2685
13.6159
12.9834
12.8204
1
1
1
1
1
1
1
1
1
1
1
1
1
1
1
1
1
1
1
1
1.00015
6.39476
10.4657
10.6242
10.8238
10.5747
10.0085
9.79418
10.1885
11.4654
11.9388
11.6772
9.4448
9.1591
9.85742
11.9741
12.8859
13.2926
13.0526
13.6733
1
1
1
1
1
1
1
1
1
1
1
1
1
1
1
1
1
1
1
1
0.999929
6.03041
10.406
10.4534
10.1776
10.0051
10.1054
10.4823
11.4821
11.3905
11.2963
9.85888
9.46302
9.68898
10.543
11.8339
12.361
11.227
12.4319
13.4249
1
1
1
1
1
1
1
1
1
1
1
1
1
1
1
1
1
1
1
1
0.99996
5.56215
10.1467
10.0192
9.90588
9.87741
10.2306
11.4965
11.7658
11.7257
10.3375
9.15592
9.06224
10.1789
11.9949
12.0367
10.0038
9.46207
9.69792
10.5886
1
1
1
1
1
1
1
1
1
1
1
1
1
1
1
1
1
1
1
1
0.999998
5.16269
9.87237
9.892
9.92405
10.1449
11.0877
11.3761
11.5694
10.9565
9.76296
9.59321
11.0989
12.5136
12.21
10.6463
9.36568
9.45915
9.43088
9.40626
1
1
1
1
1
1
1
1
1
1
1
1
1
1
1
1
1
1
1
1
1
4.78603
9.69793
9.84455
10.2529
10.9543
11.0567
11.0534
10.6876
9.69695
9.77395
11.1319
12.6533
12.5697
11.8426
9.88036
9.06535
9.21102
9.0924
9.03635
1
1
1
1
1
1
1
1
1
1
1
1
1
1
1
1
1
1
1
1
0.999999
4.48058
9.58114
10.3336
10.7958
10.9298
11.0607
10.6485
9.53884
9.41194
9.99857
12.1589
13.0316
13.0323
11.01
9.51692
9.47842
9.75282
9.48732
9.12426
1
1
1
1
1
1
1
1
1
1
1
1
1
1
1
1
1
1
1
1
0.999999
4.26932
9.79824
10.5803
10.7511
10.892
10.4447
9.83017
9.7422
9.86224
11.5088
11.7492
12.1496
10.4149
9.58785
10.0698
12.1356
12.8059
12.2367
11.4063
1
1
1
1
1
1
1
1
1
1
1
1
1
1
1
1
1
1
1
1
1
3.91285
9.79242
10.4695
10.6318
10.1863
9.84878
9.72183
9.9559
11.5595
11.7405
11.6197
9.59465
8.5084
9.18657
10.9398
12.335
13.0083
13.0662
13.548
1
1
1
1
1
1
1
1
1
1
1
1
1
1
1
1
1
1
1
1
1
3.51446
9.4658
10.2343
9.8848
9.83764
9.74838
9.71846
11.1527
11.6125
11.5713
10.5813
8.41596
8.26128
9.0031
10.9356
11.8223
12.6516
12.9439
13.2762
1
1
1
1
1
1
1
1
1
1
1
1
1
1
1
1
1
1
1
1
1
3.07691
9.1082
9.91235
9.70157
9.73598
9.91595
11.0601
11.2803
11.2389
11.1374
9.24096
8.61531
8.79052
9.5301
11.0055
11.3008
8.66451
9.22236
10.905
1
1
1
1
1
1
1
1
1
1
1
1
1
1
1
1
1
1
1
1
1
2.67939
8.80909
9.77027
9.67233
9.93569
10.8617
11.2322
11.389
11.319
9.47202
8.90235
8.74832
10.5135
11.7201
11.0518
8.61702
8.07264
7.8696
8.2039
1
1
1
1
1
1
1
1
1
1
1
1
1
1
1
1
1
1
1
1
1
2.33332
8.49389
9.6649
10.1289
10.7867
10.9483
10.9771
10.9249
9.52259
9.50982
9.32263
11.7536
12.2611
11.7552
10.1371
8.12906
7.83032
7.51506
7.71638
1
1
1
1
1
1
1
1
1
1
1
1
1
1
1
1
1
1
1
1
1
2.0209
8.27351
10.3916
10.7241
10.8427
10.8608
10.6641
9.46496
9.19586
9.24904
11.1701
12.462
12.3893
11.6907
9.32056
8.01894
7.63721
7.28
7.48593
1
1
1
1
1
1
1
1
1
1
1
1
1
1
1
1
1
1
1
1
1
1.64645
8.28252
10.6349
10.5751
10.5987
10.4079
9.62975
9.35698
9.49118
10.5715
11.6314
12.0648
11.9798
10.7049
8.97103
8.41932
8.25004
7.378
6.97443
1
1
1
1
1
1
1
1
1
1
1
1
1
1
1
1
1
1
1
1
1
1.06972
7.01702
10.2049
10.0948
10.0181
9.9528
10.1523
10.4507
10.7054
10.7821
10.4807
9.90474
9.32296
9.14412
9.83798
10.5152
10.4519
9.35133
6.76335
1
1
1
1
1
1
1
1
1
1
1
1
1
1
1
1
1
1
1
1
1
1.00029
4.87795
9.65084
9.9441
10.0514
10.1811
10.2503
10.2804
10.2345
10.0684
9.90129
9.78071
9.75837
9.70842
9.46453
9.13461
8.60876
7.8777
6.59059
1
1
1
1
1
1
1
1
1
1
1
1
1
1
1
1
1
1
1
1
1
0.999999
2.69469
8.75624
9.9114
9.95156
9.97926
9.96055
9.92769
9.89533
9.88605
9.84496
9.73462
9.52869
9.249
8.89903
8.52386
7.9953
7.06159
5.74208
1
1
1
1
1
1
1
1
1
1
1
1
1
1
1
1
1
1
1
1
1
1
1.17688
7.25909
9.9733
9.85345
9.80052
9.77533
9.77067
9.78092
9.75219
9.62567
9.39762
9.12236
8.83396
8.53635
8.20029
7.72486
6.93613
5.73051
1
1
1
1
1
1
1
1
1
1
1
1
1
1
1
1
1
1
1
1
1
1
1.00173
4.88814
9.34245
9.59284
9.60206
9.5887
9.55493
9.52313
9.4598
9.35343
9.19295
8.94983
8.63541
8.26394
7.82623
7.30683
6.65628
5.73135
1
1
1
1
1
1
1
1
1
1
1
1
1
1
1
1
1
1
1
1
1
1
0.999989
2.26092
8.25547
9.47839
9.44994
9.43112
9.37188
9.3027
9.21146
9.12329
9.00228
8.78364
8.47144
8.08689
7.63831
7.10292
6.43714
5.69753
1
1
1
1
1
1
1
1
1
1
1
1
1
1
1
1
1
1
1
1
1
1
0.999998
1.09243
5.98217
9.23109
9.30385
9.2884
9.22507
9.13329
9.01199
8.87933
8.71989
8.51919
8.26004
7.95366
7.55244
7.05819
6.42733
5.78673
1
1
1
1
1
1
1
1
1
1
1
1
1
1
1
1
1
1
1
1
1
1
1
1.00033
2.7894
8.31841
9.19177
9.13524
9.08318
8.99385
8.86388
8.69858
8.4972
8.27756
8.03237
7.75996
7.43441
7.01675
6.47864
5.91365
1
1
1
1
1
1
1
1
1
1
1
1
1
1
1
1
1
1
1
1
1
1
1
0.999999
1.15819
6.19202
9.0662
8.99515
8.96118
8.86571
8.73438
8.56671
8.35713
8.1242
7.8493
7.56247
7.26306
6.92434
6.49919
6.00901
1
1
1
1
1
1
1
1
1
1
1
1
1
1
1
1
1
1
1
1
1
1
1
1
1.00122
2.76928
8.13507
8.84393
8.78335
8.70038
8.57957
8.42851
8.24198
8.01387
7.74028
7.44098
7.12411
6.80959
6.45554
6.03308
1
1
1
1
1
1
1
1
1
1
1
1
1
1
1
1
1
1
1
1
1
1
1
1
1
1.14623
5.70992
8.77356
8.74369
8.61914
8.47809
8.3186
8.13
7.90996
7.65232
7.37129
7.05985
6.7424
6.40035
6.02297
1
1
1
1
1
1
1
1
1
1
1
1
1
1
1
1
1
1
1
1
1
1
1
1
1
1.00112
2.11036
7.59695
8.63294
8.45728
8.35051
8.19278
8.00535
7.79478
7.55881
7.30217
7.01118
6.70232
6.36867
6.02015
1
1
1
1
1
1
1
1
1
1
1
1
1
1
1
1
1
1
1
1
1
1
1
1
1
1
1.05939
4.68395
8.3094
8.37012
8.25426
8.10335
7.91354
7.6963
7.46213
7.21835
6.95063
6.66336
6.35868
6.04073
1
1
1
1
1
1
1
1
1
1
1
1
1
1
1
1
1
1
1
1
1
1
1
1
1
1
1.00023
1.5789
6.48084
8.35557
8.206
8.05866
7.86526
7.65101
7.41427
7.16369
6.90454
6.63394
6.35967
6.06611
1
1
1
1
1
1
1
1
1
1
1
1
1
1
1
1
1
1
1
1
1
1
1
1
1
1
1
1.01682
2.80583
7.54437
8.15304
7.96278
7.79569
7.59817
7.37445
7.12739
6.86973
6.60439
6.3496
6.08072
1
1
1
1
1
1
1
1
1
1
1
1
1
1
1
1
1
1
1
1
1
1
1
1
1
1
1
1.00006
1.14909
4.80931
7.89303
7.8666
7.71879
7.54427
7.347
7.12413
6.88139
6.62428
6.37601
6.12035
1
1
1
1
1
1
1
1
1
1
1
1
1
1
1
1
1
1
1
1
1
1
1
1
1
1
1
1
1.00145
1.66381
5.98039
7.78994
7.64545
7.48254
7.30499
7.10912
6.89568
6.66439
6.42768
6.1825
1
1
1
1
1
1
1
1
1
1
1
1
1
1
1
1
1
1
1
1
1
1
1
1
1
1
1
1
1
1.02205
2.3957
6.6944
7.61776
7.44301
7.27347
7.08761
6.89119
6.68381
6.46411
6.23441
1
1
1
1
1
1
1
1
1
1
1
1
1
1
1
1
1
1
1
1
1
1
1
1
1
1
1
1
1
1.00011
1.09226
3.37633
7.0474
7.46821
7.24991
7.06963
6.87969
6.68243
6.47634
6.26062
1
1
1
1
1
1
1
1
1
1
1
1
1
1
1
1
1
1
1
1
1
1
1
1
1
1
1
1
1
1
1.00087
1.26686
4.40703
7.19497
7.25837
7.05834
6.86265
6.66632
6.47051
6.26567
1
1
1
1
1
1
1
1
1
1
1
1
1
1
1
1
1
1
1
1
1
1
1
1
1
1
1
1
1
1
1
1.0047
1.58649
5.10346
7.14511
7.07501
6.86877
6.6682
6.47816
6.27696
1
1
1
1
1
1
1
1
1
1
1
1
1
1
1
1
1
1
1
1
1
1
1
1
1
1
1
1
1
1
1
1.00002
1.01869
1.95297
5.55298
6.99737
6.90768
6.70367
6.51256
6.31439
1
1
1
1
1
1
1
1
1
1
1
1
1
1
1
1
1
1
1
1
1
1
1
1
1
1
1
1
1
1
1
1
1.0001
1.04614
2.32326
5.78742
6.86256
6.76527
6.56535
6.37253
1
1
1
1
1
1
1
1
1
1
1
1
1
1
1
1
1
1
1
1
1
1
1
1
1
1
1
1
1
1
1
1
1
1.00037
1.08705
2.63355
5.90033
6.73907
6.63189
6.43587
1
1
1
1
1
1
1
1
1
1
1
1
1
1
1
1
1
1
1
1
1
1
1
1
1
1
1
1
1
1
1
1
1
1
1.00094
1.13325
2.8724
5.93082
6.60655
6.5041
1
1
1
1
1
1
1
1
1
1
1
1
1
1
1
1
1
1
1
1
1
1
1
1
1
1
1
1
1
1
1
1
1
1
1
1.0018
1.17852
3.03403
5.89581
6.45076
1
1
1
1
1
1
1
1
1
1
1
1
1
1
1
1
1
1
1
1
1
1
1
1
1
1
1
1
1
1
1
1
1
1
1
1
1.00284
1.21687
3.12586
5.83591
1
1
1
1
1
1
1
1
1
1
1
1
1
1
1
1
1
1
1
1
1
1
1
1
1
1
1
1
1
1
1
1
1
1
1
1
1.00001
1.00418
1.23905
3.47534
1
1
1
1
1
1
1
1
1
1
1
1
1
1
1
1
1
1
1
1
1
1
1
1
1
1
1
1
1
1
1
1
1
1
1
1
1
1.00002
1.00429
1.36862
1
1
1
1
1
1
1
1
1
1
1
1
1
1
1
1
1
1
1
1
1
1
1
1
1
1
1
1
1
1
1
1
1
1
1
1
1
1
1.00002
1.00891
1
1
1
1
1
1
1
1
1
1
1
1
1
1
1
1
1
1
1
1
1
1
1
1
1
1
1
1
1
1
1
1
1
1
1
1
1
1
1
1.00001
1
1
1
1
1
1
1
1
1
1
1
1
1
1
1
1
1
1
1
1
1
1
1
1
1
1
1
1
1
1
1
1
1
1
1
1
1
1
1
1
1
1
1
1
1
1
1
1
1
1
1
1
1
1
1
1
1
1
1
1
1
1
1
1
1
1
1
1
1
1
1
1
1
1
1
1
1
1
1
1
1
1
1
1
1
1
1
1
1
1
1
1
1
1
1
1
1
1
1
1
1
1
1
1
1
1
1
1
1
1
1
1
1
1
1
1
1
1
1
1
1
1
1
1
1
1
1
1
1
1
1
1
1
1
1
1
1
1
1
1
1
1
1
1
1
1
1
1
1
1
1
1
1
1
1
1
1
1
1
1
1
1
1
1
1
1
1
1
1
1
1
1
1
1
1
1
1
1
1
1
1
1
1
1
1
1
1
1
1
1
1
1
1
1
1
1
1
1
1
1
1
1
1
1
1
1
1
1
1
1
1
1
1
1
1
1
1
1
1
1
1
1
1
1
1
1
1
1
1
1
1
1
1
1
1
1
1
1
1
1
1
1
1
1
1
1
1
1
1
1
1
1
1
1
1
1
1
1
1
1
1
1
1
1
1
1
1
1
1
1
1
1
1
1
1
1
1
1
1
1
1
1
1
1
1
1
1
1
1
1
1
1
1
1
1
1
1
1
1
1
1
1
1
1
1
1
1
1
1
1
1
1
1
1
1
1
1
1
1
1
1
1
1
1
1
1
1
1
1
1
1
1
1
1
1
1
1
1
1
1
1
1
1
1
1
1
1
1
1
1
1
1
1
1
1
1
1
1
1
1
1.04247
0.341657
0.563143
0.867856
1.00419
1.08945
1.20303
1.23557
1.2718
1.28857
2.74221
4.71806
5.07704
5.16394
5.10845
5.12021
5.11858
5.08719
5.01624
4.93057
4.81108
4.65255
4.4737
4.30903
4.18018
4.07694
3.98211
3.88521
3.74703
3.57523
3.39826
3.24375
3.12099
3.02019
2.91793
2.81298
2.70597
2.59555
2.50126
2.36142
2.24382
0.684625
0.687205
0.783252
0.939171
1.07172
1.15958
1.21894
1.27262
1.28987
2.6541
4.7229
5.15268
5.20732
5.1247
5.10424
5.0916
5.06401
4.96181
4.84733
4.74233
4.63364
4.50905
4.3679
4.21356
4.0615
3.92323
3.80561
3.68455
3.54831
3.41031
3.2727
3.14093
3.02192
2.91056
2.80567
2.70212
2.59847
2.50438
2.35917
2.84601
1.08677
0.769127
0.751915
0.875153
1.03351
1.15857
1.23413
1.27739
1.28691
2.46021
4.71605
5.23423
5.28842
5.2215
5.1898
5.17084
5.15853
5.05169
4.87982
4.71288
4.58858
4.49496
4.40197
4.28429
4.13765
3.97615
3.79817
3.62996
3.49426
3.37953
3.27039
3.15771
3.03881
2.91759
2.80173
2.69122
2.59133
2.50801
2.36109
3.32021
1.59036
1.05963
0.797128
0.840579
0.949706
1.07691
1.19585
1.29288
1.2909
2.19058
4.74126
5.40543
5.29091
5.17552
5.12754
5.10198
5.09653
5.04108
4.90074
4.74456
4.60676
4.48817
4.37186
4.25218
4.11038
3.95403
3.7895
3.63663
3.50959
3.39528
3.27774
3.15234
3.02585
2.90824
2.80014
2.69538
2.59323
2.5037
2.35367
3.69746
2.09473
1.34365
0.892929
0.887816
0.909087
0.987107
1.11948
1.25965
1.26655
1.92103
4.72637
5.66855
5.30705
5.14116
5.09641
5.08487
5.06876
4.99513
4.86077
4.72711
4.59873
4.47649
4.36096
4.23549
4.08786
3.92337
3.75828
3.61315
3.49577
3.39217
3.28183
3.15548
3.02313
2.9008
2.79287
2.69353
2.59873
2.50808
2.34726
4.02116
2.52363
1.65715
1.15614
1.00335
0.907457
0.929519
1.0348
1.1972
1.21691
1.64569
4.70494
6.06565
5.43065
5.13178
5.0307
4.99306
4.97288
4.92339
4.83178
4.73326
4.617
4.49335
4.36169
4.21619
4.0654
3.91996
3.77708
3.63378
3.4993
3.37918
3.26224
3.13915
3.01386
2.89511
2.78708
2.68721
2.59213
2.5001
2.33898
4.29497
2.89894
1.99144
1.424
1.13621
0.922729
0.940255
0.974717
1.0809
1.15217
1.50407
4.64688
6.39093
5.50202
5.12616
5.01466
4.96955
4.94933
4.94109
4.89228
4.79029
4.66075
4.50642
4.33291
4.16682
4.03275
3.91886
3.80425
3.67521
3.5299
3.38271
3.24524
3.11795
2.99984
2.89032
2.78741
2.6868
2.58605
2.48638
2.32587
4.55186
3.26582
2.3053
1.70598
1.3341
1.02464
0.994439
0.971752
0.991064
1.0899
1.45166
4.39009
6.62555
5.64494
5.13609
5.00421
4.97236
4.94678
4.9093
4.84383
4.73018
4.59622
4.45052
4.29066
4.1355
4.02145
3.93561
3.84348
3.72094
3.56075
3.38156
3.223
3.09468
2.98496
2.88263
2.78231
2.67874
2.56992
2.46733
2.31647
4.80206
3.5971
2.59037
1.97546
1.51515
1.17192
1.06338
0.97138
0.976324
1.03097
1.46918
3.90215
6.51229
5.87385
5.20784
5.00296
4.9473
4.91035
4.84476
4.76799
4.65853
4.5371
4.40748
4.2685
4.13907
4.03992
3.95084
3.84473
3.71357
3.5527
3.37253
3.2074
3.07647
2.97017
2.87166
2.77222
2.66628
2.5507
2.44708
2.30754
4.9847
3.83839
2.83074
2.20179
1.68501
1.35046
1.18865
1.01585
0.987124
1.07849
1.61695
3.23178
6.20354
5.93927
5.30403
5.01196
4.91208
4.8743
4.80312
4.7097
4.60931
4.49986
4.38292
4.26847
4.16763
4.06663
3.94499
3.81092
3.67152
3.52263
3.36441
3.20587
3.06763
2.95843
2.86739
2.76814
2.65395
2.53292
2.43632
2.30657
5.09782
3.99654
3.02416
2.40543
1.85079
1.53316
1.31155
1.08478
1.01417
1.19307
1.90848
2.56984
5.393
5.95203
5.39282
5.03714
4.88596
4.83112
4.76711
4.68008
4.59381
4.49436
4.38768
4.29352
4.19921
4.07737
3.92669
3.76936
3.62112
3.48421
3.34994
3.21087
3.07317
2.95295
2.841
2.73061
2.62216
2.51162
2.43109
2.31311
5.19119
4.1035
3.20358
2.58372
2.01121
1.71311
1.44199
1.1875
1.09846
1.43997
2.28765
2.44839
4.1581
5.79194
5.41941
5.04068
4.85416
4.78092
4.72575
4.66354
4.59639
4.49956
4.39251
4.29577
4.18593
4.04747
3.89072
3.73184
3.58084
3.44928
3.33085
3.21181
3.08129
2.94461
2.81475
2.70006
2.59805
2.49916
2.4346
2.32327
5.27915
4.20233
3.38206
2.74485
2.18165
1.88965
1.55394
1.29686
1.22625
1.78279
2.59232
2.5472
3.04326
5.22488
5.3962
5.04501
4.82881
4.72335
4.66794
4.62938
4.58116
4.48219
4.36623
4.25252
4.12769
3.98777
3.84537
3.70228
3.56008
3.43218
3.31743
3.20362
3.07685
2.93569
2.79603
2.67712
2.58099
2.49834
2.447
2.33361
5.35923
4.30985
3.56333
2.88495
2.36477
2.04591
1.6488
1.4152
1.48554
2.22418
2.72822
2.66352
2.65654
4.14031
5.24746
5.05682
4.8336
4.67453
4.60073
4.57227
4.52619
4.42549
4.30443
4.17509
4.04317
3.91565
3.79876
3.68006
3.55267
3.42414
3.30119
3.18204
3.05599
2.9204
2.78426
2.6677
2.57523
2.5065
2.4628
2.34996
5.42298
4.43024
3.73391
3.01696
2.54935
2.17088
1.7474
1.55451
1.88345
2.72344
2.82979
2.75928
2.67531
3.12779
4.74692
5.0424
4.83152
4.63419
4.53114
4.49032
4.44788
4.35954
4.23941
4.09858
3.96246
3.84859
3.75616
3.66255
3.54976
3.41922
3.28283
3.15232
3.02391
2.89686
2.77492
2.67209
2.58647
2.51884
2.45863
2.31932
5.48451
4.55605
3.87294
3.14712
2.71802
2.26316
1.85514
1.75103
2.44083
3.14239
3.02406
2.87063
2.72959
2.7108
3.80781
4.85458
4.84703
4.62023
4.47783
4.41078
4.36821
4.29789
4.18354
4.0384
3.90662
3.80936
3.72723
3.64154
3.53645
3.40839
3.26464
3.12494
2.99717
2.88274
2.77756
2.6855
2.60088
2.53007
2.44879
2.28907
5.54508
4.68017
3.97123
3.28235
2.85573
2.32979
1.9871
2.11895
3.06748
3.37755
3.22014
3.01874
2.815
2.69248
2.97396
4.26299
4.76369
4.6273
4.46616
4.36039
4.30571
4.24417
4.13182
3.99841
3.88726
3.79909
3.7135
3.62174
3.51591
3.39033
3.24615
3.10384
2.97983
2.87845
2.78582
2.69664
2.59887
2.50329
2.40275
2.25263
5.60694
4.79459
4.03857
3.42613
2.96174
2.41106
2.17584
2.70897
3.6584
3.55003
3.36285
3.15288
2.92956
2.72963
2.66528
3.36598
4.4507
4.62663
4.45726
4.33508
4.267
4.19813
4.09216
3.99093
3.9014
3.80524
3.70067
3.59583
3.48585
3.36378
3.22754
3.09441
2.97923
2.88351
2.79062
2.69293
2.58061
2.47212
2.35851
2.22429
5.66812
4.88716
4.09862
3.57622
3.03552
2.53235
2.47873
3.43289
4.05592
3.80762
3.52548
3.274
3.04961
2.81995
2.65283
2.74311
3.70786
4.45135
4.45348
4.3279
4.24112
4.14736
4.05744
3.98666
3.90484
3.80016
3.68209
3.56456
3.45042
3.33571
3.21429
3.09506
2.98326
2.88083
2.77989
2.67196
2.55426
2.43936
2.31801
2.20639
5.72754
4.94972
4.19172
3.7235
3.09709
2.70533
3.03311
4.12278
4.25655
4.01741
3.6933
3.40304
3.15415
2.92194
2.69579
2.59698
2.91664
3.90476
4.32953
4.29402
4.19979
4.09039
4.01259
3.95175
3.86633
3.75866
3.64151
3.52413
3.411
3.3045
3.19864
3.08913
2.9732
2.86095
2.75239
2.6404
2.52789
2.4073
2.28886
2.20872
5.78278
4.9856
4.32003
3.83018
3.18627
2.97194
3.84616
4.65267
4.42534
4.15857
3.85513
3.54569
3.26753
3.03174
2.7935
2.59824
2.54628
3.10085
3.95447
4.18766
4.12765
4.02618
3.949
3.88698
3.80279
3.70344
3.59354
3.48148
3.37227
3.26906
3.16985
3.06485
2.94555
2.82558
2.71234
2.60231
2.50005
2.37577
2.27004
2.24877
5.83467
5.02343
4.47613
3.88716
3.32512
3.45782
4.67871
4.99526
4.65418
4.31225
3.98894
3.66844
3.37952
3.13277
2.89758
2.66028
2.49299
2.55372
3.228
3.90302
4.03145
3.94825
3.8742
3.81564
3.73694
3.64663
3.54526
3.43685
3.33135
3.23173
3.13334
3.02567
2.90525
2.7831
2.66916
2.56198
2.467
2.34804
2.26899
2.33718
5.87722
5.10304
4.6174
3.91708
3.54233
4.28301
5.32857
5.19668
4.84594
4.46863
4.12104
3.79417
3.50055
3.24549
3.00868
2.75605
2.51872
2.41431
2.60205
3.31532
3.81959
3.85941
3.79422
3.7439
3.67621
3.59403
3.49976
3.3959
3.28993
3.18443
3.07538
2.96661
2.85647
2.74307
2.63465
2.5332
2.44251
2.33472
2.29392
2.4929
5.91706
5.24623
4.69439
4.00224
3.94259
5.28906
5.83163
5.4111
5.02828
4.63395
4.25634
3.91686
3.61729
3.35158
3.10923
2.86758
2.60767
2.40709
2.33888
2.66643
3.35528
3.69164
3.70658
3.66712
3.62255
3.55532
3.46689
3.37075
3.27298
3.15929
3.03394
2.91353
2.80919
2.71093
2.61408
2.5183
2.42547
2.35244
2.34088
2.72533
5.98618
5.42953
4.72101
4.18313
4.76469
6.13421
6.08226
5.66508
5.22058
4.79166
4.39108
4.03975
3.73776
3.4665
3.21063
2.96895
2.71803
2.4677
2.31533
2.31313
2.74675
3.41256
3.54352
3.60085
3.57231
3.53062
3.44719
3.34436
3.2229
3.09649
2.97914
2.87438
2.77293
2.68447
2.61411
2.54334
2.42835
2.38934
2.43821
3.03671
6.10139
5.57141
4.75195
4.51478
5.95189
6.76202
6.27058
5.84742
5.39501
4.94073
4.52973
4.1749
3.86423
3.57608
3.29847
3.04308
2.81241
2.56792
2.34885
2.21802
2.29775
2.85355
3.3087
3.50704
3.51112
3.48779
3.41996
3.32236
3.18649
3.05498
2.94268
2.85505
2.77011
2.67919
2.59564
2.49618
2.43758
2.43482
2.69381
3.35575
6.20627
5.65646
4.87142
5.29482
7.06895
7.12192
6.51911
6.03023
5.55784
5.08291
4.65657
4.29553
3.97475
3.67302
3.38012
3.10769
2.87917
2.65655
2.43285
2.23314
2.14415
2.32064
2.95566
3.32599
3.45998
3.44311
3.39457
3.28162
3.13816
3.01744
2.92291
2.83162
2.73869
2.66177
2.57501
2.47417
2.45719
2.57194
3.13151
3.61539
6.19415
5.75413
5.13448
6.64087
7.79142
7.33416
6.72408
6.18481
5.67399
5.19919
4.78478
4.41671
4.07518
3.75174
3.44298
3.15831
2.92373
2.72423
2.51026
2.27923
2.1148
2.07266
2.43115
2.96823
3.3241
3.36721
3.33349
3.23069
3.1034
2.99118
2.89947
2.80405
2.71996
2.63392
2.52791
2.47138
2.51293
2.92622
3.59271
3.72677
5.77154
5.46074
5.7448
8.07885
8.23141
7.50962
6.89778
6.32578
5.78147
5.30553
4.90046
4.52338
4.15249
3.79711
3.48052
3.19998
2.95334
2.75307
2.56587
2.34549
2.13375
2.001
2.05031
2.53918
3.10068
3.28741
3.24363
3.1727
3.07859
2.98428
2.87327
2.77468
2.68769
2.58664
2.50901
2.50002
2.74813
3.41823
3.86934
3.81336
4.67378
5.19482
7.25004
9.05543
8.3914
7.65549
7.0402
6.4459
5.89674
5.42557
5.01754
4.62684
4.22687
3.83702
3.50285
3.23657
2.9915
2.77094
2.59025
2.39608
2.18161
2.01073
1.93656
2.10882
2.68039
3.12832
3.1537
3.12665
3.05531
2.94071
2.82602
2.72929
2.64227
2.55137
2.51662
2.61518
3.18645
3.85705
3.97464
3.86288
3.13838
5.43367
9.1028
9.44523
8.48832
7.77734
7.17926
6.56523
6.0354
5.57041
5.13217
4.70804
4.29097
3.89016
3.5418
3.262
3.02377
2.7892
2.59207
2.4258
2.22713
2.02697
1.9009
1.88302
2.23518
2.86065
3.09666
3.06346
2.99889
2.89126
2.78293
2.68949
2.59689
2.53916
2.56544
2.96227
3.71698
4.00313
3.98498
3.84909
2.25197
6.53973
10.4309
9.69864
8.57278
7.91969
7.34001
6.72934
6.21203
5.73083
5.24613
4.77578
4.34403
3.94725
3.59308
3.29566
3.06084
2.82424
2.59757
2.42414
2.29165
2.10892
1.90704
1.81423
1.89029
2.42258
2.91576
2.98525
2.93911
2.85541
2.75394
2.65383
2.55997
2.54508
2.77094
3.46347
4.05014
4.06469
3.99224
3.83217
1.5443
7.26649
11.488
9.76264
8.67828
8.08451
7.50996
6.91986
6.39934
5.88638
5.36226
4.85039
4.39257
4.0066
3.66551
3.35561
3.08659
2.87595
2.64274
2.43044
2.26586
2.11025
1.93092
1.79688
1.75067
1.98292
2.55134
2.91476
2.8933
2.82353
2.72606
2.61342
2.56148
2.63986
3.23844
3.87645
4.12317
4.0898
4.0038
3.82503
1.1853
7.96517
11.795
9.84648
8.86338
8.3037
7.70329
7.10797
6.55515
6.01171
5.46164
4.92791
4.45277
4.09415
3.78298
3.46136
3.13693
2.84855
2.6186
2.4251
2.26341
2.13852
1.99796
1.7997
1.69426
1.71651
2.14215
2.69282
2.82205
2.77154
2.6763
2.5909
2.58405
2.95214
3.77657
4.10516
4.12344
4.07381
3.98214
3.82869
1.06794
8.17092
11.5844
9.80559
9.01748
8.45516
7.86364
7.29181
6.66249
6.04764
5.4899
5.01688
4.58586
4.16105
3.78641
3.45849
3.15495
2.86616
2.62874
2.44206
2.28309
2.13065
1.98039
1.81042
1.68002
1.63006
1.78468
2.31118
2.69924
2.67105
2.60844
2.58847
2.76206
3.51393
4.09973
4.17687
4.09406
4.02691
3.95584
3.82584
1.26836
8.12226
11.2828
9.873
9.21662
8.62417
7.97624
7.33445
6.69565
6.08525
5.51624
5.01164
4.57911
4.19007
3.82364
3.48638
3.1691
2.88459
2.64832
2.45613
2.28941
2.13083
1.99065
1.84704
1.68712
1.59579
1.60019
1.92597
2.49342
2.59417
2.57424
2.6337
3.19
4.04875
4.18762
4.15841
4.06855
3.99137
3.93477
3.83312
1.54065
8.01967
10.962
9.92188
9.29112
8.66095
8.03221
7.37957
6.73598
6.12253
5.55334
5.04713
4.5949
4.18718
3.82221
3.48836
3.18137
2.90878
2.67151
2.46929
2.28925
2.12715
1.99081
1.86455
1.71128
1.59646
1.53586
1.63227
2.15269
2.4684
2.56986
2.9501
3.77234
4.28329
4.22789
4.14148
4.06564
3.99938
3.94713
3.84042
1.71534
8.15204
10.7714
9.93213
9.40135
8.80797
8.14366
7.43366
6.77814
6.15073
5.57176
5.06503
4.60995
4.19898
3.83089
3.49696
3.19567
2.93382
2.69811
2.48338
2.28857
2.12166
1.98145
1.87066
1.74127
1.6052
1.50785
1.46641
1.77371
2.23705
2.58658
3.44239
4.14266
4.34577
4.25538
4.16043
4.09709
4.03544
3.98036
3.86504
1.76044
8.18472
10.7024
9.97926
9.46062
8.82062
8.14048
7.45847
6.803
6.21164
5.64681
5.12414
4.64615
4.21244
3.8244
3.48804
3.20109
2.95179
2.72318
2.49821
2.28529
2.11177
1.97342
1.86884
1.78324
1.65501
1.49944
1.40659
1.52152
2.08989
2.99372
3.83171
4.32118
4.34611
4.27827
4.20124
4.14648
4.08659
4.01567
3.86842
1.73718
8.19997
10.6575
9.99379
9.51281
8.88404
8.23241
7.53291
6.9053
6.23513
5.66307
5.12881
4.64208
4.20263
3.81067
3.47928
3.20877
2.97142
2.73742
2.49976
2.2802
2.10227
1.96892
1.86531
1.76751
1.6374
1.47817
1.36516
1.39877
1.96278
3.27359
4.27247
4.46286
4.377
4.29854
4.24759
4.18753
4.10466
4.01213
3.84958
)
;

boundaryField
{
    inlet
    {
        type            fixedValue;
        value           uniform 1;
    }
    outlet
    {
        type            zeroGradient;
    }
    top
    {
        type            symmetryPlane;
    }
    bottom
    {
        type            symmetryPlane;
    }
    step
    {
        type            zeroGradient;
    }
    defaultFaces
    {
        type            empty;
    }
}


// ************************************************************************* //
