/*--------------------------------*- C++ -*----------------------------------*\
  =========                 |
  \\      /  F ield         | OpenFOAM: The Open Source CFD Toolbox
   \\    /   O peration     | Website:  https://openfoam.org
    \\  /    A nd           | Version:  6.0
     \\/     M anipulation  |
\*---------------------------------------------------------------------------*/
FoamFile
{
    version     2.0;
    format      ascii;
    class       volScalarField;
    location    "4.0002168286";
    object      T;
}
// * * * * * * * * * * * * * * * * * * * * * * * * * * * * * * * * * * * * * //

dimensions      [0 0 0 1 0 0 0];

internalField   nonuniform List<scalar> 
4800
(
1
1
1
1
1
1
1
1
1
1
1
1
1
1
1
1
1
1
1
1
1.70496
2.63029
2.73305
2.73599
2.73262
2.72014
2.71551
2.74323
2.79275
2.81678
2.79936
2.73967
2.68504
2.7022
2.79465
2.85773
2.85266
2.80831
2.77582
2.77805
1
1
1
1
1
1
1
1
1
1
1
1
1
1
1
1
1
1
1
1
1.70939
2.63722
2.71879
2.72412
2.73266
2.73679
2.74131
2.74836
2.74875
2.75648
2.76728
2.78305
2.79007
2.78724
2.78556
2.77766
2.78373
2.78981
2.79005
2.78819
1
1
1
1
1
1
1
1
1
1
1
1
1
1
1
1
1
1
1
1
1.70502
2.63848
2.71108
2.70756
2.71729
2.7431
2.7634
2.75203
2.72311
2.70541
2.72567
2.79175
2.86475
2.8704
2.78243
2.71882
2.7118
2.75631
2.77241
2.75779
1
1
1
1
1
1
1
1
1
1
1
1
1
1
1
1
1
1
1
1
1.69885
2.63331
2.70642
2.70872
2.72326
2.74593
2.76252
2.75832
2.73001
2.70649
2.72929
2.79654
2.84663
2.84461
2.78345
2.71217
2.69606
2.73493
2.75046
2.75517
1
1
1
1
1
1
1
1
1
1
1
1
1
1
1
1
1
1
1
1
1.68616
2.62475
2.71249
2.72669
2.73818
2.74063
2.74326
2.74692
2.75127
2.76494
2.77434
2.77519
2.7563
2.75624
2.78308
2.77502
2.76854
2.74935
2.73009
2.73177
1
1
1
1
1
1
1
1
1
1
1
1
1
1
1
1
1
1
1
1
1.66759
2.6139
2.72824
2.7377
2.73881
2.7314
2.72265
2.72962
2.77262
2.81655
2.81949
2.75261
2.68164
2.67606
2.75244
2.83829
2.82683
2.76714
2.73411
2.73829
1
1
1
1
1
1
1
1
1
1
1
1
1
1
1
1
1
1
1
1
1.65894
2.6147
2.72969
2.73608
2.73565
2.71995
2.71042
2.72995
2.77855
2.80694
2.79389
2.7515
2.69594
2.68732
2.76212
2.84228
2.84918
2.79207
2.76368
2.7591
1
1
1
1
1
1
1
1
1
1
1
1
1
1
1
1
1
1
1
1
1.65431
2.62277
2.72372
2.72061
2.72089
2.72125
2.726
2.75103
2.76437
2.75293
2.74674
2.75487
2.77618
2.78907
2.79259
2.79858
2.79517
2.80993
2.79436
2.78672
1
1
1
1
1
1
1
1
1
1
1
1
1
1
1
1
1
1
1
1
1.63563
2.61652
2.71438
2.70666
2.7039
2.72187
2.75644
2.76111
2.74256
2.70981
2.69409
2.73339
2.81811
2.87389
2.82993
2.73174
2.7356
2.78195
2.79241
2.77239
1
1
1
1
1
1
1
1
1
1
1
1
1
1
1
1
1
1
1
1
1.60484
2.60225
2.69963
2.69593
2.71029
2.74105
2.75994
2.76586
2.73192
2.70324
2.70321
2.76573
2.8377
2.85479
2.79115
2.71811
2.6921
2.72686
2.74537
2.74565
1
1
1
1
1
1
1
1
1
1
1
1
1
1
1
1
1
1
1
1
1.57186
2.5794
2.68941
2.7082
2.73814
2.74868
2.75346
2.73529
2.7291
2.74438
2.78579
2.79002
2.77826
2.74391
2.73838
2.74285
2.73237
2.72586
2.70936
2.73064
1
1
1
1
1
1
1
1
1
1
1
1
1
1
1
1
1
1
1
1
1.53965
2.56191
2.69453
2.73085
2.74483
2.74873
2.72873
2.71556
2.72719
2.78631
2.83096
2.82773
2.73192
2.66409
2.71116
2.78321
2.79633
2.76117
2.7196
2.73924
1
1
1
1
1
1
1
1
1
1
1
1
1
1
1
1
1
1
1
1
1.51129
2.55531
2.72261
2.73309
2.74102
2.72639
2.70744
2.69658
2.73439
2.78174
2.80338
2.76398
2.70789
2.69378
2.7197
2.79325
2.82171
2.76799
2.73578
2.73976
1
1
1
1
1
1
1
1
1
1
1
1
1
1
1
1
1
1
1
1
1.50254
2.56359
2.72819
2.72979
2.71653
2.7026
2.69818
2.72075
2.76426
2.76114
2.72803
2.70715
2.72641
2.763
2.78214
2.79133
2.76366
2.74156
2.7211
2.71408
1
1
1
1
1
1
1
1
1
1
1
1
1
1
1
1
1
1
1
1
1.47095
2.55765
2.72075
2.70775
2.69628
2.69503
2.71877
2.76681
2.77437
2.7548
2.68725
2.66312
2.68831
2.76514
2.8321
2.77971
2.69795
2.69215
2.68658
2.67438
1
1
1
1
1
1
1
1
1
1
1
1
1
1
1
1
1
1
1
1
1.43809
2.53613
2.70356
2.68895
2.69273
2.71836
2.76115
2.77489
2.77581
2.71935
2.70392
2.71737
2.79788
2.82326
2.80211
2.72182
2.68276
2.67726
2.68716
2.68385
1
1
1
1
1
1
1
1
1
1
1
1
1
1
1
1
1
1
1
1
1.38282
2.50841
2.68459
2.68233
2.70531
2.75286
2.76397
2.75978
2.71416
2.71076
2.73764
2.81751
2.83526
2.8292
2.73862
2.69542
2.7186
2.74522
2.73305
2.71651
1
1
1
1
1
1
1
1
1
1
1
1
1
1
1
1
1
1
1
1
1.33298
2.4785
2.68338
2.7034
2.73954
2.74909
2.75136
2.7087
2.67516
2.6846
2.77448
2.8296
2.8583
2.77184
2.7124
2.72935
2.7897
2.81701
2.77448
2.73494
1
1
1
1
1
1
1
1
1
1
1
1
1
1
1
1
1
1
1
1
1.28065
2.44951
2.69435
2.72965
2.73941
2.73336
2.70759
2.68336
2.68936
2.74179
2.77639
2.77934
2.70195
2.6731
2.72169
2.78625
2.81042
2.80933
2.78633
2.79035
1
1
1
1
1
1
1
1
1
1
1
1
1
1
1
1
1
1
1
1
1.24767
2.43966
2.71303
2.72483
2.73345
2.70682
2.6783
2.69211
2.73909
2.7871
2.7759
2.69201
2.59688
2.62524
2.7187
2.8042
2.79756
2.77069
2.74361
2.7747
1
1
1
1
1
1
1
1
1
1
1
1
1
1
1
1
1
1
1
1
1.19104
2.41663
2.70835
2.70853
2.69843
2.68066
2.67843
2.71063
2.77756
2.79527
2.76679
2.64634
2.59595
2.6082
2.71656
2.78662
2.76619
2.66895
2.6932
2.73667
1
1
1
1
1
1
1
1
1
1
1
1
1
1
1
1
1
1
1
1
1.12688
2.38441
2.69846
2.67935
2.66723
2.67712
2.71128
2.76052
2.7645
2.75516
2.68879
2.69149
2.69402
2.75624
2.78489
2.7368
2.63643
2.64064
2.62982
2.62633
1
1
1
1
1
1
1
1
1
1
1
1
1
1
1
1
1
1
1
1
1.08185
2.3491
2.67732
2.65348
2.65271
2.69203
2.75541
2.7605
2.74712
2.67775
2.64187
2.69715
2.84355
2.87031
2.81587
2.66176
2.58723
2.60569
2.60363
2.59268
1
1
1
1
1
1
1
1
1
1
1
1
1
1
1
1
1
1
1
1
1.05343
2.32492
2.66276
2.6518
2.68063
2.72595
2.74924
2.76427
2.70595
2.64668
2.65391
2.7724
2.85366
2.87572
2.80358
2.65347
2.60361
2.58572
2.58231
2.55042
1
1
1
1
1
1
1
1
1
1
1
1
1
1
1
1
1
1
1
1
1.02703
2.3037
2.65676
2.69034
2.72242
2.72456
2.72439
2.6948
2.67051
2.67948
2.75319
2.78307
2.78759
2.782
2.6969
2.70181
2.74371
2.758
2.6786
2.60377
1
1
1
1
1
1
1
1
1
1
1
1
1
1
1
1
1
1
1
1
1.0033
2.29512
2.68435
2.71222
2.7278
2.72987
2.69288
2.63621
2.64108
2.71986
2.79745
2.79912
2.72286
2.58588
2.65357
2.76517
2.83805
2.84246
2.78537
2.76008
1
1
1
1
1
1
1
1
1
1
1
1
1
1
1
1
1
1
1
1
1.00004
2.27116
2.70154
2.70962
2.7198
2.69783
2.65313
2.63458
2.6623
2.7548
2.78627
2.76407
2.59979
2.57659
2.63362
2.77523
2.81267
2.82116
2.78778
2.80765
1
1
1
1
1
1
1
1
1
1
1
1
1
1
1
1
1
1
1
1
0.999979
2.22764
2.70226
2.7032
2.67747
2.65972
2.66218
2.68573
2.75598
2.74842
2.73882
2.63486
2.59858
2.6164
2.68137
2.76527
2.77507
2.6873
2.74239
2.78462
1
1
1
1
1
1
1
1
1
1
1
1
1
1
1
1
1
1
1
1
0.999989
2.16821
2.6858
2.67257
2.65963
2.65271
2.67333
2.75999
2.77514
2.77002
2.67128
2.57758
2.561
2.6475
2.78716
2.77859
2.6169
2.55901
2.55659
2.60559
1
1
1
1
1
1
1
1
1
1
1
1
1
1
1
1
1
1
1
1
0.999999
2.11226
2.66274
2.66334
2.66272
2.67472
2.73821
2.7526
2.7625
2.71715
2.62767
2.61116
2.72072
2.81866
2.8012
2.68444
2.56596
2.55599
2.53341
2.51376
1
1
1
1
1
1
1
1
1
1
1
1
1
1
1
1
1
1
1
1
1
2.05238
2.6458
2.65954
2.6894
2.73653
2.73805
2.73257
2.70073
2.62433
2.62825
2.7249
2.82388
2.82024
2.77593
2.62814
2.53981
2.53266
2.5035
2.48161
1
1
1
1
1
1
1
1
1
1
1
1
1
1
1
1
1
1
1
1
1
1.99871
2.63222
2.69659
2.729
2.73601
2.74165
2.70567
2.61659
2.60254
2.64235
2.79397
2.84509
2.84502
2.71631
2.5999
2.56741
2.5687
2.52592
2.48067
1
1
1
1
1
1
1
1
1
1
1
1
1
1
1
1
1
1
1
1
1
1.96085
2.64292
2.71256
2.72509
2.73432
2.69907
2.64596
2.63323
2.63647
2.75492
2.76606
2.78352
2.66924
2.61253
2.64234
2.76465
2.78436
2.72437
2.65052
1
1
1
1
1
1
1
1
1
1
1
1
1
1
1
1
1
1
1
1
1
1.89339
2.63286
2.70025
2.71357
2.6825
2.65392
2.63923
2.65064
2.76298
2.77182
2.75705
2.60718
2.51749
2.57821
2.70668
2.77442
2.79494
2.77191
2.77968
1
1
1
1
1
1
1
1
1
1
1
1
1
1
1
1
1
1
1
1
1
1.8149
2.59278
2.67733
2.65509
2.6537
2.64658
2.63947
2.74224
2.76749
2.76092
2.6844
2.50833
2.49485
2.56132
2.70503
2.74005
2.75651
2.74839
2.75414
1
1
1
1
1
1
1
1
1
1
1
1
1
1
1
1
1
1
1
1
1
1.71808
2.55144
2.64677
2.63775
2.64412
2.65823
2.74096
2.75215
2.74467
2.72995
2.58235
2.52212
2.53539
2.60148
2.71106
2.70493
2.48678
2.50104
2.59577
1
1
1
1
1
1
1
1
1
1
1
1
1
1
1
1
1
1
1
1
1
1.61744
2.51276
2.62906
2.63168
2.65631
2.7276
2.75325
2.76113
2.75
2.60983
2.55379
2.52152
2.67407
2.76447
2.71543
2.51016
2.4329
2.3857
2.38937
1
1
1
1
1
1
1
1
1
1
1
1
1
1
1
1
1
1
1
1
1
1.51305
2.47015
2.61196
2.65782
2.71343
2.73077
2.73426
2.72664
2.61962
2.61386
2.58505
2.76084
2.7952
2.76661
2.64929
2.46408
2.40965
2.34986
2.34046
1
1
1
1
1
1
1
1
1
1
1
1
1
1
1
1
1
1
1
1
1
1.40943
2.43133
2.65484
2.69115
2.70926
2.7146
2.70444
2.61661
2.59421
2.5941
2.7329
2.81383
2.80764
2.76451
2.58695
2.45503
2.39377
2.32724
2.31513
1
1
1
1
1
1
1
1
1
1
1
1
1
1
1
1
1
1
1
1
1
1.26653
2.40997
2.66512
2.67041
2.67791
2.67216
2.61876
2.60364
2.61775
2.70004
2.77051
2.79639
2.79104
2.70271
2.5662
2.50511
2.4663
2.35055
2.30195
1
1
1
1
1
1
1
1
1
1
1
1
1
1
1
1
1
1
1
1
1
1.02856
2.2959
2.63217
2.62926
2.6295
2.63066
2.65222
2.6811
2.70548
2.71556
2.69982
2.66193
2.61654
2.59711
2.64387
2.68736
2.67862
2.59032
2.41172
1
1
1
1
1
1
1
1
1
1
1
1
1
1
1
1
1
1
1
1
1
1.00011
2.04687
2.60004
2.61703
2.62544
2.63732
2.64754
2.65549
2.6596
2.65603
2.65206
2.64935
2.65048
2.64377
2.61913
2.59137
2.54334
2.48852
2.42511
1
1
1
1
1
1
1
1
1
1
1
1
1
1
1
1
1
1
1
1
1
1
1.61028
2.49862
2.61064
2.61334
2.61538
2.61573
2.61797
2.62298
2.6318
2.63861
2.6391
2.62872
2.60728
2.57635
2.54077
2.4909
2.40613
2.29477
1
1
1
1
1
1
1
1
1
1
1
1
1
1
1
1
1
1
1
1
1
1
1.07545
2.32171
2.61223
2.60526
2.60063
2.59845
2.59979
2.60508
2.61024
2.60962
2.60148
2.58683
2.56805
2.54479
2.51481
2.47124
2.39947
2.28522
1
1
1
1
1
1
1
1
1
1
1
1
1
1
1
1
1
1
1
1
1
1
1.00076
2.03412
2.55657
2.58444
2.58389
2.58202
2.5794
2.57929
2.57924
2.57781
2.57271
2.56107
2.54207
2.51519
2.47918
2.43341
2.37357
2.28189
1
1
1
1
1
1
1
1
1
1
1
1
1
1
1
1
1
1
1
1
1
1
0.999997
1.47086
2.40723
2.5578
2.5623
2.56415
2.56118
2.55772
2.55381
2.55152
2.54742
2.53624
2.51681
2.48944
2.45417
2.40835
2.3458
2.27229
1
1
1
1
1
1
1
1
1
1
1
1
1
1
1
1
1
1
1
1
1
1
0.999999
1.03896
2.16517
2.52052
2.54136
2.54364
2.54142
2.53737
2.53161
2.5254
2.51702
2.50513
2.48823
2.46693
2.43621
2.39472
2.33673
2.27568
1
1
1
1
1
1
1
1
1
1
1
1
1
1
1
1
1
1
1
1
1
1
1
1.00016
1.59981
2.3917
2.5143
2.51509
2.51671
2.51489
2.51035
2.50282
2.4915
2.47758
2.46063
2.44061
2.41538
2.38072
2.33217
2.27863
1
1
1
1
1
1
1
1
1
1
1
1
1
1
1
1
1
1
1
1
1
1
1
1
1.06603
2.16742
2.48948
2.48808
2.49126
2.48981
2.48668
2.48059
2.47026
2.45655
2.43756
2.4158
2.39154
2.36262
2.32442
2.27798
1
1
1
1
1
1
1
1
1
1
1
1
1
1
1
1
1
1
1
1
1
1
1
1
1.00052
1.58517
2.3578
2.46091
2.46025
2.46037
2.45846
2.45437
2.44734
2.436
2.41887
2.39718
2.37172
2.34457
2.3121
2.27154
1
1
1
1
1
1
1
1
1
1
1
1
1
1
1
1
1
1
1
1
1
1
1
1
1
1.06093
2.09947
2.44481
2.44511
2.43922
2.43342
2.42774
2.42085
2.41151
2.39795
2.38015
2.35693
2.33057
2.29932
2.26275
1
1
1
1
1
1
1
1
1
1
1
1
1
1
1
1
1
1
1
1
1
1
1
1
1
1.00046
1.4059
2.28016
2.4204
2.40962
2.40701
2.40073
2.39289
2.38386
2.37277
2.35889
2.33986
2.31634
2.28758
2.25514
1
1
1
1
1
1
1
1
1
1
1
1
1
1
1
1
1
1
1
1
1
1
1
1
1
1
1.02476
1.94727
2.37687
2.39578
2.38818
2.37956
2.36933
2.35805
2.34614
2.33353
2.31793
2.29866
2.27516
2.24774
1
1
1
1
1
1
1
1
1
1
1
1
1
1
1
1
1
1
1
1
1
1
1
1
1
1
1.00009
1.23288
2.15732
2.37703
2.36889
2.3616
2.35078
2.33877
2.32554
2.31156
2.29672
2.27986
2.26073
2.23764
1
1
1
1
1
1
1
1
1
1
1
1
1
1
1
1
1
1
1
1
1
1
1
1
1
1
1
1.00691
1.57324
2.25028
2.34852
2.33691
2.32908
2.31864
2.3061
2.2918
2.27657
2.26009
2.2433
2.22376
1
1
1
1
1
1
1
1
1
1
1
1
1
1
1
1
1
1
1
1
1
1
1
1
1
1
1
1.00002
1.06159
1.9368
2.31071
2.31507
2.30796
2.299
2.2883
2.27558
2.26113
2.24504
2.22883
2.21103
1
1
1
1
1
1
1
1
1
1
1
1
1
1
1
1
1
1
1
1
1
1
1
1
1
1
1
1
1.00055
1.25772
2.07697
2.29352
2.28576
2.27783
2.26896
2.25838
2.24603
2.23182
2.21661
2.20014
1
1
1
1
1
1
1
1
1
1
1
1
1
1
1
1
1
1
1
1
1
1
1
1
1
1
1
1
1
1.00892
1.46406
2.13705
2.26603
2.25608
2.24848
2.23923
2.22856
2.21654
2.20301
2.1883
1
1
1
1
1
1
1
1
1
1
1
1
1
1
1
1
1
1
1
1
1
1
1
1
1
1
1
1
1
1.00004
1.03754
1.67124
2.17125
2.24366
2.22842
2.21911
2.2091
2.19825
2.18631
2.17343
1
1
1
1
1
1
1
1
1
1
1
1
1
1
1
1
1
1
1
1
1
1
1
1
1
1
1
1
1
1
1.00031
1.1079
1.84307
2.19089
2.21662
2.20298
2.19076
2.17906
2.16773
2.15601
1
1
1
1
1
1
1
1
1
1
1
1
1
1
1
1
1
1
1
1
1
1
1
1
1
1
1
1
1
1
1
1.00177
1.22507
1.92859
2.18832
2.18647
2.17394
2.16205
2.15138
2.13992
1
1
1
1
1
1
1
1
1
1
1
1
1
1
1
1
1
1
1
1
1
1
1
1
1
1
1
1
1
1
1
1
1.00733
1.33516
1.97977
2.16297
2.15907
2.14693
2.13674
2.12606
1
1
1
1
1
1
1
1
1
1
1
1
1
1
1
1
1
1
1
1
1
1
1
1
1
1
1
1
1
1
1
1
1.00003
1.01827
1.43119
1.99837
2.13836
2.13386
2.12223
2.11229
1
1
1
1
1
1
1
1
1
1
1
1
1
1
1
1
1
1
1
1
1
1
1
1
1
1
1
1
1
1
1
1
1
1.00012
1.03469
1.49976
2.00314
2.11554
2.10981
2.09812
1
1
1
1
1
1
1
1
1
1
1
1
1
1
1
1
1
1
1
1
1
1
1
1
1
1
1
1
1
1
1
1
1
1
1.00032
1.05311
1.54595
1.99834
2.09258
2.08654
1
1
1
1
1
1
1
1
1
1
1
1
1
1
1
1
1
1
1
1
1
1
1
1
1
1
1
1
1
1
1
1
1
1
1
1.00062
1.07079
1.57323
1.9853
2.06907
1
1
1
1
1
1
1
1
1
1
1
1
1
1
1
1
1
1
1
1
1
1
1
1
1
1
1
1
1
1
1
1
1
1
1
1
1.00101
1.08539
1.5817
1.97928
1
1
1
1
1
1
1
1
1
1
1
1
1
1
1
1
1
1
1
1
1
1
1
1
1
1
1
1
1
1
1
1
1
1
1
1
1
1.00148
1.09257
1.67267
1
1
1
1
1
1
1
1
1
1
1
1
1
1
1
1
1
1
1
1
1
1
1
1
1
1
1
1
1
1
1
1
1
1
1
1
1
1
1.00156
1.14736
1
1
1
1
1
1
1
1
1
1
1
1
1
1
1
1
1
1
1
1
1
1
1
1
1
1
1
1
1
1
1
1
1
1
1
1
1
1
1
1.00345
1
1
1
1
1
1
1
1
1
1
1
1
1
1
1
1
1
1
1
1
1
1
1
1
1
1
1
1
1
1
1
1
1
1
1
1
1
1
1
1
1
1
1
1
1
1
1
1
1
1
1
1
1
1
1
1
1
1
1
1
1
1
1
1
1
1
1
1
1
1
1
1
1
1
1
1
1
1
1
1
1
1
1
1
1
1
1
1
1
1
1
1
1
1
1
1
1
1
1
1
1
1
1
1
1
1
1
1
1
1
1
1
1
1
1
1
1
1
1
1
1
1
1
1
1
1
1
1
1
1
1
1
1
1
1
1
1
1
1
1
1
1
1
1
1
1
1
1
1
1
1
1
1
1
1
1
1
1
1
1
1
1
1
1
1
1
1
1
1
1
1
1
1
1
1
1
1
1
1
1
1
1
1
1
1
1
1
1
1
1
1
1
1
1
1
1
1
1
1
1
1
1
1
1
1
1
1
1
1
1
1
1
1
1
1
1
1
1
1
1
1
1
1
1
1
1
1
1
1
1
1
1
1
1
1
1
1
1
1
1
1
1
1
1
1
1
1
1
1
1
1
1
1
1
1
1
1
1
1
1
1
1
1
1
1
1
1
1
1
1
1
1
1
1
1
1
1
1
1
1
1
1
1
1
1
1
1
1
1
1
1
1
1
1
1
1
1
1
1
1
1
1
1
1
1
1
1
1
1
1
1
1
1
1
1
1
1
1
1
1
1
1
1
1
1
1
1
1
1
1
1
1
1
1
1
1
1
1
1
1
1
1
1
1
1
1
1
1
1
1
1
1
1
1
1
1
1
1
1
1
1
1
1
1
1
1
1
1
1
1
1
1
1
1
1
1
1
1
1
1
1
1
1
1
1
1
1
1
1
1
1
1
1
1
1
1
1
1
1
1
1.62866
1.40227
1.58948
1.72566
1.72365
1.72703
1.74462
1.75315
1.77665
1.7922
2.35623
2.79879
2.87328
2.88608
2.87162
2.85888
2.83751
2.80849
2.77196
2.73086
2.68281
2.62913
2.57383
2.52435
2.48469
2.45327
2.42709
2.4017
2.36806
2.32709
2.28315
2.24187
2.20602
2.17519
2.14636
2.11972
2.0948
2.07059
2.0505
2.01947
1.93027
1.57594
1.53378
1.56249
1.61406
1.65373
1.67281
1.69555
1.72989
1.74882
2.30952
2.78891
2.87589
2.88064
2.86007
2.839
2.8135
2.78412
2.74266
2.69763
2.65246
2.60657
2.55968
2.5134
2.46968
2.43103
2.39833
2.37085
2.34285
2.31127
2.27679
2.23956
2.20217
2.168
2.13737
2.11064
2.08666
2.06455
2.04519
2.01421
1.95092
1.61522
1.469
1.41816
1.46708
1.52944
1.57687
1.6062
1.63509
1.653
2.1793
2.73924
2.84559
2.84425
2.8198
2.78842
2.75444
2.72541
2.68554
2.63588
2.5852
2.53858
2.49728
2.45878
2.42179
2.38666
2.35401
2.32203
2.29291
2.26738
2.2415
2.2124
2.18039
2.14716
2.11467
2.08571
2.06093
2.04109
2.02603
1.99837
1.98684
1.67406
1.5057
1.38019
1.38966
1.42566
1.46967
1.51234
1.5541
1.56495
1.97885
2.62931
2.77005
2.74115
2.69892
2.65622
2.616
2.58953
2.56384
2.52733
2.48689
2.44486
2.40404
2.36522
2.33058
2.29908
2.27219
2.24926
2.22982
2.21195
2.19181
2.16649
2.13591
2.10288
2.07175
2.04493
2.02226
2.0035
1.98931
1.96581
2.02302
1.74663
1.54908
1.38996
1.3738
1.37513
1.39831
1.44491
1.4954
1.50422
1.76844
2.46133
2.65977
2.59927
2.54859
2.50616
2.47366
2.45315
2.4318
2.40462
2.3764
2.34497
2.31164
2.27909
2.24795
2.21877
2.19292
2.1717
2.15565
2.14323
2.13012
2.11137
2.08484
2.05359
2.02333
1.99734
1.9762
1.95967
1.94631
1.92409
2.06213
1.81459
1.61478
1.4606
1.39888
1.35748
1.36446
1.40244
1.45742
1.46583
1.6071
2.32055
2.56809
2.48131
2.42348
2.38215
2.35891
2.34629
2.3332
2.31583
2.298
2.27563
2.24988
2.22183
2.19224
2.16433
2.14085
2.12146
2.10459
2.08967
2.07533
2.05803
2.03535
2.00863
1.98134
1.95636
1.93509
1.91784
1.90363
1.88188
2.09539
1.87639
1.68906
1.53456
1.43939
1.35673
1.36257
1.37416
1.41265
1.43817
1.54961
2.24864
2.51244
2.40485
2.34641
2.31606
2.30048
2.29283
2.28875
2.27905
2.26253
2.24149
2.21551
2.18541
2.15573
2.13138
2.11167
2.09423
2.0772
2.05895
2.03946
2.01914
1.99747
1.97449
1.9511
1.92834
1.9069
1.88727
1.86983
1.84593
2.12263
1.9349
1.75498
1.60933
1.50189
1.39436
1.37924
1.3703
1.37824
1.41634
1.53643
2.18251
2.49752
2.38296
2.31405
2.28699
2.27581
2.26837
2.26085
2.25012
2.23275
2.21182
2.18811
2.16154
2.1352
2.11472
2.09893
2.08389
2.06588
2.04289
2.01664
1.99231
1.97118
1.95123
1.93086
1.90976
1.88788
1.86564
1.84577
1.82043
2.14505
1.98137
1.80827
1.67383
1.55441
1.44549
1.40513
1.37037
1.37235
1.39365
1.55344
2.09414
2.46836
2.39379
2.30974
2.27501
2.26018
2.25089
2.23923
2.22701
2.21004
2.19072
2.16961
2.14686
2.12514
2.10752
2.09165
2.07408
2.05362
2.02901
2.0012
1.97506
1.9536
1.9351
1.9166
1.89674
1.87474
1.85051
1.82924
1.80316
2.15735
2.00946
1.84776
1.72258
1.59971
1.50145
1.44846
1.38727
1.37511
1.40882
1.60753
1.9698
2.42638
2.39297
2.31158
2.2682
2.24719
2.23719
2.22442
2.20973
2.19396
2.17597
2.15626
2.13673
2.11933
2.10222
2.08225
2.06022
2.03796
2.01482
1.98999
1.96455
1.94168
1.92302
1.90666
1.88757
1.86452
1.83928
1.8191
1.79307
2.16267
2.02458
1.87594
1.76198
1.63943
1.55355
1.48734
1.41059
1.38336
1.44849
1.69004
1.83401
2.32485
2.38337
2.31191
2.26181
2.23528
2.22162
2.20898
2.19496
2.18129
2.1648
2.14642
2.12992
2.11381
2.09383
2.06979
2.04496
2.02154
1.9999
1.97865
1.95631
1.93365
1.91326
1.89346
1.87273
1.85142
1.8289
1.81209
1.78748
2.16684
2.03277
1.90034
1.79279
1.67365
1.59983
1.52547
1.44305
1.41255
1.53365
1.77601
1.80456
2.12356
2.34655
2.2991
2.24776
2.21837
2.20151
2.18953
2.17875
2.16782
2.15237
2.13469
2.11807
2.09964
2.07735
2.05305
2.02886
2.00568
1.98517
1.96643
1.94735
1.92609
1.90299
1.88017
1.85938
1.84011
1.82056
1.8072
1.78394
2.16961
2.0401
1.9236
1.81802
1.70701
1.64088
1.55483
1.47575
1.45519
1.64244
1.83087
1.8144
1.90465
2.25539
2.27519
2.22892
2.19654
2.17617
2.16364
2.15631
2.14864
2.13388
2.11588
2.09708
2.07643
2.05449
2.03328
2.01246
1.99164
1.97248
1.9548
1.93687
1.91618
1.89239
1.8682
1.84716
1.82965
1.81384
1.80336
1.78063
2.16877
2.04765
1.94611
1.83794
1.74053
1.67344
1.57643
1.51023
1.53364
1.75333
1.84622
1.8277
1.81543
2.0808
2.23214
2.20711
2.17451
2.14825
2.13337
2.12789
2.12134
2.10759
2.09014
2.07003
2.04894
2.02898
2.01201
1.99582
1.97828
1.95992
1.94158
1.92304
1.90251
1.87993
1.85698
1.83689
1.82064
1.80837
1.80031
1.77841
2.16452
2.0557
1.96556
1.8555
1.77236
1.69668
1.59665
1.54769
1.64336
1.85081
1.85356
1.83549
1.81107
1.88775
2.14141
2.18166
2.15057
2.12042
2.1024
2.0955
2.09006
2.07911
2.06313
2.04245
2.02126
2.00367
1.99047
1.97836
1.96408
1.94654
1.92663
1.90633
1.88571
1.86499
1.84489
1.82793
1.81376
1.80297
1.79269
1.76512
2.15783
2.06258
1.97864
1.87155
1.79918
1.71157
1.61795
1.59698
1.77648
1.91155
1.88465
1.84782
1.81422
1.79382
1.98766
2.13624
2.13138
2.09766
2.07596
2.06467
2.05923
2.0513
2.03703
2.01686
1.99729
1.98256
1.97066
1.95974
1.94728
1.9312
1.91107
1.88988
1.86973
1.85138
1.83443
1.81989
1.80678
1.79597
1.78164
1.75063
2.14975
2.0672
1.98382
1.88659
1.81825
1.71988
1.64639
1.68136
1.89427
1.93912
1.90773
1.86423
1.8178
1.78434
1.83
2.03631
2.09914
2.07914
2.05599
2.03912
2.03157
2.02477
2.01149
1.9942
1.97866
1.96562
1.95338
1.94159
1.92902
1.91388
1.89485
1.87433
1.85537
1.83947
1.82499
1.81132
1.7962
1.78061
1.76261
1.73444
2.14132
2.06844
1.98263
1.90068
1.82962
1.72944
1.68533
1.80625
1.9799
1.95755
1.91968
1.87593
1.8275
1.78253
1.75642
1.88105
2.03747
2.05921
2.03553
2.01719
2.00744
1.99948
1.98745
1.97558
1.96402
1.95062
1.93616
1.92258
1.90927
1.8947
1.87761
1.8597
1.8432
1.82898
1.81489
1.79976
1.78169
1.76393
1.74417
1.71939
2.13211
2.06604
1.97973
1.91416
1.83408
1.74462
1.74414
1.93806
2.02534
1.98484
1.93405
1.88468
1.83727
1.78671
1.74548
1.75385
1.91209
2.01667
2.01569
1.99757
1.98503
1.97344
1.96429
1.9575
1.94794
1.93388
1.91775
1.90244
1.88861
1.87522
1.86075
1.84586
1.83098
1.81653
1.80144
1.78449
1.76556
1.7471
1.72608
1.70634
2.12161
2.05916
1.98072
1.92571
1.83529
1.7726
1.83985
2.03361
2.03926
2.00186
1.94722
1.89331
1.84296
1.793
1.7431
1.71128
1.76469
1.92245
1.98
1.97469
1.96116
1.94705
1.93983
1.93485
1.92544
1.91164
1.89621
1.88117
1.8675
1.85544
1.84363
1.83078
1.81588
1.8003
1.78431
1.76705
1.74969
1.73046
1.70981
1.69879
2.11016
2.04811
1.98458
1.92899
1.83978
1.81398
1.96747
2.08546
2.05147
2.00835
1.95718
1.90201
1.84863
1.79946
1.74756
1.70486
1.6804
1.78068
1.91116
1.94226
1.93432
1.92133
1.91322
1.90789
1.89915
1.88752
1.87395
1.86011
1.84701
1.83527
1.82446
1.81244
1.7973
1.78086
1.76477
1.74849
1.7334
1.71362
1.69592
1.6992
2.09807
2.03639
1.9905
1.92528
1.85413
1.88179
2.07488
2.11032
2.0649
2.01355
1.96114
1.90617
1.85282
1.8035
1.75419
1.70326
1.66272
1.66845
1.78478
1.88674
1.90538
1.89527
1.88668
1.88165
1.87406
1.86437
1.85252
1.8394
1.82696
1.81562
1.80434
1.79165
1.77655
1.76033
1.7445
1.72909
1.71575
1.69666
1.68752
1.70701
2.08408
2.02944
1.99311
1.9171
1.87884
1.99406
2.13752
2.11843
2.07085
2.0169
1.96339
1.90946
1.85734
1.80877
1.76141
1.70908
1.66043
1.62991
1.66272
1.78568
1.86054
1.86814
1.86155
1.85745
1.85141
1.84306
1.83251
1.8203
1.80799
1.79569
1.78213
1.7687
1.75514
1.74049
1.72563
1.71159
1.6999
1.68222
1.68341
1.72954
2.06849
2.02938
1.98803
1.91666
1.92456
2.1151
2.17547
2.12584
2.0753
2.02052
1.96477
1.91105
1.86033
1.81243
1.7663
1.71859
1.66581
1.62496
1.60253
1.66334
1.7807
1.82804
1.83778
1.83468
1.83144
1.82509
1.8154
1.80461
1.79368
1.7801
1.76425
1.74829
1.73488
1.72273
1.71008
1.69743
1.68577
1.67585
1.68161
1.76826
2.05557
2.02978
1.97527
1.92944
2.01664
2.1903
2.18148
2.13345
2.07884
2.02204
1.96511
1.91196
1.86355
1.81742
1.77146
1.726
1.67698
1.6267
1.59457
1.58626
1.66994
1.77804
1.80077
1.81545
1.81317
1.81014
1.80129
1.78956
1.77482
1.75918
1.74495
1.73146
1.71807
1.70733
1.70014
1.69294
1.67483
1.67527
1.68896
1.8163
2.04936
2.02486
1.95802
1.96006
2.14104
2.22799
2.17836
2.132
2.07899
2.02156
1.96579
1.91487
1.86798
1.82197
1.77505
1.7293
1.68589
1.63782
1.59384
1.56335
1.5782
1.68212
1.75605
1.79159
1.79548
1.79428
1.7876
1.7766
1.75982
1.74332
1.72934
1.71894
1.70882
1.69747
1.68819
1.67499
1.66668
1.67328
1.72748
1.85481
2.04456
2.01172
1.96074
2.02841
2.2332
2.23476
2.17954
2.12983
2.07728
2.02023
1.96571
1.91703
1.87127
1.82553
1.77845
1.7319
1.69032
1.64801
1.6036
1.56317
1.54147
1.57834
1.69582
1.75584
1.78175
1.78093
1.77638
1.76268
1.74461
1.72932
1.71748
1.70616
1.69471
1.68587
1.67561
1.65964
1.66331
1.69032
1.79665
1.87771
2.03555
2.00401
1.97449
2.14748
2.26915
2.23095
2.1779
2.12598
2.07189
2.01776
1.96772
1.921
1.87473
1.82771
1.77986
1.73298
1.69154
1.65416
1.61298
1.56706
1.53318
1.52408
1.59878
1.69563
1.75586
1.76618
1.76208
1.74905
1.73308
1.71871
1.70654
1.69377
1.68326
1.67244
1.65724
1.65302
1.6656
1.74698
1.86072
1.87863
2.00828
1.97294
2.02043
2.26206
2.2863
2.22916
2.1776
2.12423
2.06877
2.0171
1.97082
1.92511
1.87694
1.82704
1.77891
1.73341
1.6911
1.65473
1.61939
1.57677
1.53429
1.50734
1.52045
1.62225
1.72114
1.75313
1.74601
1.73691
1.72521
1.71275
1.69675
1.6827
1.67077
1.65643
1.64602
1.65156
1.70138
1.81993
1.88687
1.87958
1.93955
1.96421
2.15974
2.33216
2.28831
2.23279
2.18042
2.12505
2.07043
2.02122
1.97638
1.93052
1.88014
1.82692
1.77721
1.73459
1.69386
1.65568
1.62318
1.58672
1.54488
1.50893
1.49795
1.53896
1.65421
1.73183
1.73402
1.73074
1.72052
1.70276
1.68507
1.67035
1.65757
1.64303
1.64427
1.66592
1.77001
1.87525
1.89032
1.87689
1.73329
2.00978
2.33769
2.37108
2.29828
2.24035
2.18722
2.12961
2.07773
2.03039
1.98336
1.93468
1.8831
1.82962
1.77929
1.73614
1.69804
1.65947
1.62583
1.59625
1.55919
1.51877
1.49214
1.49643
1.57638
1.69752
1.73414
1.72626
1.71402
1.69576
1.67719
1.66131
1.64558
1.63864
1.64744
1.72179
1.84456
1.88549
1.88386
1.86697
1.44369
2.11936
2.44874
2.3926
2.30582
2.24975
2.19694
2.13998
2.09028
2.04231
1.99149
1.93867
1.88619
1.83457
1.78564
1.74252
1.70723
1.67028
1.63253
1.60321
1.58118
1.54835
1.50472
1.48944
1.51128
1.63026
1.72257
1.72172
1.71176
1.69522
1.67552
1.6562
1.63769
1.639
1.68147
1.79745
1.8841
1.88829
1.87936
1.8594
1.1701
2.0971
2.49658
2.3869
2.30786
2.25756
2.20704
2.154
2.10556
2.05574
2.00226
1.94648
1.89247
1.84368
1.7995
1.75755
1.71943
1.68847
1.6516
1.61696
1.58971
1.56353
1.52805
1.49501
1.49424
1.54988
1.67381
1.72614
1.71618
1.69808
1.67689
1.65397
1.64128
1.65668
1.76053
1.85514
1.89301
1.88969
1.87953
1.85715
1.05055
2.15922
2.51217
2.3905
2.31995
2.27522
2.22507
2.17302
2.12351
2.07284
2.01826
1.96161
1.90842
1.86687
1.82923
1.78768
1.74266
1.70037
1.66581
1.63523
1.60794
1.58618
1.56024
1.51509
1.49311
1.49993
1.60265
1.71475
1.71382
1.70064
1.67785
1.65823
1.65104
1.71588
1.84428
1.8915
1.89747
1.89122
1.87958
1.86049
1.02312
2.3016
2.54385
2.41479
2.35114
2.30513
2.25457
2.20418
2.14836
2.09217
2.03843
1.99092
1.94618
1.89944
1.85466
1.81294
1.77193
1.7305
1.69475
1.66446
1.63633
1.6065
1.57583
1.53781
1.50512
1.49302
1.53077
1.65761
1.71117
1.69736
1.67757
1.66475
1.6932
1.81417
1.89721
1.91273
1.90244
1.89401
1.88474
1.86824
1.13202
2.43179
2.61588
2.4913
2.41896
2.36024
2.30037
2.24285
2.18548
2.12999
2.07644
2.02694
1.98248
1.94008
1.89699
1.85421
1.81069
1.76854
1.73062
1.69698
1.66514
1.63194
1.60023
1.56559
1.52369
1.4969
1.49385
1.57734
1.69911
1.69368
1.68201
1.68636
1.77814
1.90313
1.92521
1.92329
1.91279
1.90258
1.89501
1.88117
1.2825
2.50447
2.69657
2.59203
2.50866
2.4342
2.3689
2.3068
2.24719
2.1901
2.13515
2.08352
2.03447
1.98734
1.94208
1.89702
1.85166
1.80774
1.76615
1.72741
1.68987
1.6529
1.61896
1.58567
1.54341
1.50772
1.48629
1.50883
1.6391
1.68977
1.6961
1.7572
1.88448
1.95276
1.94605
1.93585
1.92654
1.91777
1.91062
1.89517
1.3692
2.54417
2.75161
2.67054
2.60159
2.52984
2.4583
2.38637
2.32105
2.25767
2.19675
2.14027
2.08625
2.03412
1.98389
1.9344
1.88569
1.83944
1.79463
1.75045
1.70688
1.66617
1.62903
1.59776
1.56059
1.51887
1.48775
1.46596
1.54956
1.65777
1.71637
1.85584
1.95406
1.97634
1.96392
1.95133
1.94318
1.93484
1.92697
1.90953
1.37684
2.54176
2.77307
2.71103
2.65662
2.58918
2.5177
2.4459
2.37612
2.3114
2.24718
2.18455
2.12352
2.06421
2.00717
1.9538
1.90449
1.85808
1.81215
1.76385
1.71465
1.671
1.63321
1.60204
1.57492
1.53564
1.4886
1.4514
1.48164
1.62545
1.80055
1.92735
1.98743
1.98636
1.97627
1.96523
1.9574
1.94883
1.93851
1.91645
1.35318
2.5328
2.77433
2.72102
2.67557
2.61382
2.54671
2.47362
2.40554
2.33099
2.26386
2.19785
2.13384
2.072
2.01279
1.95883
1.91127
1.86641
1.81877
1.76714
1.71591
1.67085
1.63388
1.60218
1.57109
1.53037
1.48276
1.44022
1.44732
1.59451
1.8476
1.99487
2.00739
1.99466
1.98241
1.974
1.96479
1.95305
1.93999
1.916
)
;

boundaryField
{
    inlet
    {
        type            fixedValue;
        value           uniform 1;
    }
    outlet
    {
        type            inletOutlet;
        inletValue      uniform 1;
        value           nonuniform List<scalar> 
40
(
2.01985
2.01443
1.99846
1.96593
1.92399
1.88177
1.84584
1.8205
1.80338
1.7934
1.78801
1.7847
1.78137
1.77846
1.76454
1.74983
1.73392
1.71909
1.70639
1.69915
1.69965
1.70728
1.72937
1.7677
1.8156
1.85422
1.87758
1.87856
1.87974
1.87632
1.86621
1.85884
1.85677
1.86025
1.86843
1.88194
1.89594
1.90999
1.91629
1.91563
)
;
    }
    top
    {
        type            symmetryPlane;
    }
    bottom
    {
        type            symmetryPlane;
    }
    step
    {
        type            zeroGradient;
    }
    defaultFaces
    {
        type            empty;
    }
}


// ************************************************************************* //
