/*--------------------------------*- C++ -*----------------------------------*\
  =========                 |
  \\      /  F ield         | OpenFOAM: The Open Source CFD Toolbox
   \\    /   O peration     | Website:  https://openfoam.org
    \\  /    A nd           | Version:  6.0
     \\/     M anipulation  |
\*---------------------------------------------------------------------------*/
FoamFile
{
    version     2.0;
    format      ascii;
    class       volVectorField;
    location    "4.0002168286";
    object      U;
}
// * * * * * * * * * * * * * * * * * * * * * * * * * * * * * * * * * * * * * //

dimensions      [0 1 -1 0 0 0 0];

internalField   nonuniform List<vector> 
4800
(
(3 1.11188e-16 0)
(3 9.15089e-17 0)
(3 2.32851e-16 0)
(3 6.41191e-16 0)
(3 1.31317e-15 0)
(3 4.07188e-16 0)
(3 1.19637e-16 0)
(3 -8.14293e-16 0)
(3 -3.30107e-16 0)
(3 -6.93872e-16 0)
(3 -5.52866e-16 0)
(3 -4.10961e-16 0)
(3 -6.33824e-17 0)
(3 7.60965e-16 0)
(3 5.55991e-16 0)
(3 1.70924e-16 0)
(3 -3.09831e-16 0)
(3 -1.39543e-15 0)
(3 -1.68027e-15 0)
(3 -6.03459e-16 0)
(2.12354 0.00754408 0)
(0.818535 0.0151807 0)
(0.715144 0.00557436 0)
(0.679446 -0.00513479 0)
(0.635353 -0.00984517 0)
(0.588371 0.00254915 0)
(0.532784 0.0188488 0)
(0.500617 0.0315083 0)
(0.485246 0.0171144 0)
(0.460534 -0.0243312 0)
(0.425613 -0.0421984 0)
(0.358052 -0.0258892 0)
(0.285231 0.0411793 0)
(0.245162 0.0619781 0)
(0.241115 0.0371373 0)
(0.214802 -0.0303266 0)
(0.167302 -0.0570995 0)
(0.114454 -0.0574573 0)
(0.0618902 -0.0568057 0)
(0.0234286 -0.0706282 0)
(3 1.01104e-16 0)
(3 8.38749e-16 0)
(3 8.75876e-16 0)
(3 8.20786e-16 0)
(3 1.14712e-15 0)
(3 1.10231e-15 0)
(3 7.87013e-18 0)
(3 -1.21155e-15 0)
(3 -5.13427e-16 0)
(3 -7.20238e-16 0)
(3 -1.48335e-16 0)
(3 -7.76073e-17 0)
(3 3.52407e-16 0)
(3 1.65982e-15 0)
(3 8.15413e-16 0)
(3 6.97087e-16 0)
(3 2.16525e-17 0)
(3 -8.80458e-16 0)
(3 -1.07523e-15 0)
(3 -3.07015e-16 0)
(2.12406 0.0189241 0)
(0.823958 0.030285 0)
(0.707531 0.0335707 0)
(0.671008 0.00764322 0)
(0.630619 -0.0141099 0)
(0.59009 -0.0210262 0)
(0.556744 0.0178546 0)
(0.516032 0.0794605 0)
(0.477498 0.0921393 0)
(0.438058 0.0442769 0)
(0.395797 -0.0590226 0)
(0.354988 -0.102143 0)
(0.320194 -0.062436 0)
(0.276584 0.0586241 0)
(0.235747 0.100611 0)
(0.191236 0.0535861 0)
(0.139637 -0.0476195 0)
(0.0985113 -0.105144 0)
(0.0531226 -0.130546 0)
(0.021657 -0.150286 0)
(3 3.2003e-17 0)
(3 5.42644e-16 0)
(3 1.62403e-15 0)
(3 1.47008e-15 0)
(3 6.38692e-17 0)
(3 3.38501e-16 0)
(3 -1.66426e-16 0)
(3 -3.83532e-16 0)
(3 -2.47163e-16 0)
(3 1.05037e-16 0)
(3 1.24098e-15 0)
(3 1.36151e-15 0)
(3 1.36499e-15 0)
(3 1.11082e-15 0)
(3 -1.46563e-16 0)
(3 2.95883e-16 0)
(3 5.23179e-16 0)
(3 4.76929e-16 0)
(3 1.03574e-15 0)
(3 2.98241e-16 0)
(2.13194 0.0228622 0)
(0.827323 0.0315779 0)
(0.699385 0.0280418 0)
(0.660102 0.0200668 0)
(0.622269 0.0135821 0)
(0.597116 0.0181967 0)
(0.567891 0.0388624 0)
(0.527552 0.0579037 0)
(0.466483 0.0560991 0)
(0.409531 0.0300666 0)
(0.367903 -0.00180341 0)
(0.359828 -0.00297685 0)
(0.345826 0.0327538 0)
(0.300619 0.0594601 0)
(0.228284 0.0567947 0)
(0.161633 0.0041672 0)
(0.114667 -0.0295926 0)
(0.0878342 -0.0295085 0)
(0.0494943 -0.0274765 0)
(0.0188428 -0.0246732 0)
(3 -3.6377e-17 0)
(3 2.0181e-16 0)
(3 6.94402e-16 0)
(3 7.15769e-16 0)
(3 -4.94059e-17 0)
(3 -2.06973e-16 0)
(3 2.62163e-16 0)
(3 2.44274e-16 0)
(3 -5.00459e-17 0)
(3 -1.69776e-16 0)
(3 -4.02624e-17 0)
(3 6.82639e-16 0)
(3 3.45404e-16 0)
(3 5.3108e-16 0)
(3 -7.62705e-16 0)
(3 -6.05136e-16 0)
(3 -1.57687e-16 0)
(3 6.33497e-16 0)
(3 9.70869e-16 0)
(3 5.48132e-16 0)
(2.14146 0.0282784 0)
(0.827577 0.0277207 0)
(0.696477 0.0305826 0)
(0.660574 0.0396483 0)
(0.625326 0.0567864 0)
(0.595294 0.0608259 0)
(0.566328 0.0382826 0)
(0.528832 0.0179372 0)
(0.470809 0.0241964 0)
(0.412162 0.0525103 0)
(0.377234 0.0856785 0)
(0.371153 0.105487 0)
(0.348376 0.0822719 0)
(0.291225 0.020086 0)
(0.222597 -0.0104558 0)
(0.158406 0.0124498 0)
(0.120693 0.0652788 0)
(0.0961384 0.100129 0)
(0.0551519 0.125631 0)
(0.0217773 0.140225 0)
(3 3.07291e-16 0)
(3 -9.11276e-17 0)
(3 -2.79358e-17 0)
(3 3.28221e-16 0)
(3 3.84291e-16 0)
(3 1.12342e-16 0)
(3 4.75205e-16 0)
(3 2.60032e-16 0)
(3 -1.65143e-17 0)
(3 -8.4353e-17 0)
(3 -4.37206e-16 0)
(3 -1.03385e-16 0)
(3 2.68362e-16 0)
(3 6.2841e-16 0)
(3 -2.9758e-16 0)
(3 -9.70472e-16 0)
(3 -1.80549e-15 0)
(3 -8.36758e-16 0)
(3 -3.67432e-16 0)
(3 4.9035e-16 0)
(2.15888 0.0365487 0)
(0.822893 0.0308997 0)
(0.704572 0.0305834 0)
(0.671116 0.0655026 0)
(0.632084 0.084408 0)
(0.591681 0.0859085 0)
(0.553561 0.056028 0)
(0.513994 -0.00536315 0)
(0.473986 -0.0253213 0)
(0.44019 0.01738 0)
(0.404636 0.133417 0)
(0.363342 0.17904 0)
(0.321525 0.123521 0)
(0.263959 0.0349002 0)
(0.218418 -0.00558227 0)
(0.187662 0.0339062 0)
(0.144599 0.112207 0)
(0.121013 0.156011 0)
(0.0647223 0.172928 0)
(0.0238313 0.199943 0)
(3 -1.43673e-16 0)
(3 2.46513e-17 0)
(3 -1.69848e-16 0)
(3 3.49199e-17 0)
(3 1.77391e-16 0)
(3 -1.83774e-16 0)
(3 -5.31134e-16 0)
(3 -4.73467e-16 0)
(3 -5.42631e-16 0)
(3 -2.43721e-16 0)
(3 -4.24091e-16 0)
(3 -5.00345e-16 0)
(3 -3.23165e-16 0)
(3 -1.39101e-16 0)
(3 2.42534e-16 0)
(3 -9.12511e-16 0)
(3 -2.24487e-15 0)
(3 -2.12804e-15 0)
(3 -2.68046e-17 0)
(3 3.8262e-17 0)
(2.18248 0.0476416 0)
(0.819887 0.044312 0)
(0.713896 0.0668958 0)
(0.677101 0.0796693 0)
(0.633725 0.0887361 0)
(0.588819 0.0765154 0)
(0.537935 0.0452259 0)
(0.498244 0.0221109 0)
(0.478156 0.0299128 0)
(0.45868 0.0719007 0)
(0.429438 0.0971227 0)
(0.362811 0.0988901 0)
(0.288274 0.0605418 0)
(0.240747 0.0370599 0)
(0.220541 0.0517718 0)
(0.206071 0.116094 0)
(0.157575 0.13718 0)
(0.114976 0.130361 0)
(0.0668185 0.111184 0)
(0.0258267 0.107516 0)
(3 -2.92191e-16 0)
(3 -3.08301e-16 0)
(3 -1.94586e-16 0)
(3 2.31128e-16 0)
(3 4.34778e-16 0)
(3 -8.50791e-16 0)
(3 -4.64852e-16 0)
(3 -1.8165e-16 0)
(3 -2.34316e-16 0)
(3 -3.51699e-16 0)
(3 2.97208e-16 0)
(3 1.72559e-16 0)
(3 -4.69603e-19 0)
(3 -5.18099e-16 0)
(3 -5.97862e-16 0)
(3 -9.75561e-16 0)
(3 -9.25652e-16 0)
(3 -5.44147e-16 0)
(3 1.49134e-17 0)
(3 4.91718e-17 0)
(2.20358 0.0639368 0)
(0.830083 0.0711449 0)
(0.713532 0.090187 0)
(0.678564 0.078952 0)
(0.633221 0.0665715 0)
(0.583997 0.054904 0)
(0.532817 0.0600013 0)
(0.501535 0.0795712 0)
(0.487932 0.0997582 0)
(0.46103 0.0967057 0)
(0.424484 0.0404435 0)
(0.364027 -0.000835187 0)
(0.300819 0.0324998 0)
(0.247198 0.0970921 0)
(0.232383 0.139104 0)
(0.211642 0.142045 0)
(0.153601 0.114367 0)
(0.102774 0.0573316 0)
(0.0604096 0.0159024 0)
(0.0246259 -0.0102079 0)
(3 1.61807e-17 0)
(3 -3.89124e-16 0)
(3 -2.47616e-16 0)
(3 -3.03124e-17 0)
(3 -4.46854e-16 0)
(3 -1.00705e-16 0)
(3 7.40065e-16 0)
(3 8.23474e-16 0)
(3 4.82941e-16 0)
(3 8.0246e-16 0)
(3 6.60486e-16 0)
(3 7.37501e-16 0)
(3 5.20048e-17 0)
(3 -5.50924e-16 0)
(3 -1.20442e-15 0)
(3 -6.11834e-17 0)
(3 2.89113e-16 0)
(3 5.1838e-17 0)
(3 -1.52808e-16 0)
(3 -6.34524e-16 0)
(2.22813 0.0786169 0)
(0.841906 0.0967333 0)
(0.711408 0.109374 0)
(0.673168 0.0865815 0)
(0.628161 0.0535549 0)
(0.584867 0.0440848 0)
(0.549371 0.0728151 0)
(0.522291 0.137949 0)
(0.487428 0.161064 0)
(0.445384 0.12855 0)
(0.392645 0.0458175 0)
(0.349475 -0.0219981 0)
(0.320341 -0.0265178 0)
(0.292609 0.0575638 0)
(0.253961 0.173694 0)
(0.199665 0.182769 0)
(0.125448 0.111388 0)
(0.0923132 0.0862775 0)
(0.0557326 0.0807542 0)
(0.0244412 0.0590108 0)
(3 8.39875e-17 0)
(3 -2.46201e-16 0)
(3 -1.7552e-16 0)
(3 -1.06567e-15 0)
(3 -1.31654e-15 0)
(3 9.01654e-17 0)
(3 8.9007e-16 0)
(3 4.00339e-16 0)
(3 7.51121e-16 0)
(3 6.19126e-16 0)
(3 9.7562e-16 0)
(3 9.75958e-16 0)
(3 9.47562e-16 0)
(3 -4.92704e-16 0)
(3 -1.15939e-15 0)
(3 -2.26435e-16 0)
(3 -4.46609e-16 0)
(3 -7.08573e-17 0)
(3 -1.03267e-15 0)
(3 -7.64867e-16 0)
(2.26499 0.0875615 0)
(0.853543 0.110717 0)
(0.709416 0.106867 0)
(0.665796 0.0764503 0)
(0.621382 0.0696216 0)
(0.592542 0.0722276 0)
(0.570224 0.121725 0)
(0.53296 0.152089 0)
(0.486232 0.155797 0)
(0.420474 0.102893 0)
(0.368811 0.0727539 0)
(0.333907 0.0683045 0)
(0.335606 0.120552 0)
(0.307854 0.157709 0)
(0.269332 0.142496 0)
(0.186181 0.0885241 0)
(0.122825 0.107877 0)
(0.100534 0.148471 0)
(0.057406 0.15067 0)
(0.0198377 0.146519 0)
(3 1.29081e-16 0)
(3 6.89549e-17 0)
(3 -9.99572e-17 0)
(3 -1.03454e-15 0)
(3 -1.19906e-15 0)
(3 -4.17001e-16 0)
(3 1.28153e-15 0)
(3 4.63597e-16 0)
(3 3.9868e-16 0)
(3 1.26721e-16 0)
(3 6.24076e-16 0)
(3 4.54588e-16 0)
(3 1.21761e-17 0)
(3 -5.68607e-16 0)
(3 -8.54054e-16 0)
(3 -1.18298e-15 0)
(3 -8.57323e-16 0)
(3 -5.54025e-16 0)
(3 -1.02548e-15 0)
(3 -3.10259e-16 0)
(2.31374 0.0875311 0)
(0.859645 0.109959 0)
(0.70068 0.0901983 0)
(0.663008 0.0865665 0)
(0.630289 0.0955135 0)
(0.606367 0.13297 0)
(0.577586 0.131641 0)
(0.540258 0.12035 0)
(0.474932 0.0908597 0)
(0.418401 0.0984824 0)
(0.37969 0.130394 0)
(0.366579 0.202411 0)
(0.351246 0.238052 0)
(0.300389 0.220982 0)
(0.239348 0.106855 0)
(0.177046 0.0681882 0)
(0.143957 0.116428 0)
(0.112007 0.186785 0)
(0.0582161 0.236052 0)
(0.0217502 0.233334 0)
(3 1.79058e-16 0)
(3 6.06104e-18 0)
(3 -9.72217e-16 0)
(3 -1.09849e-15 0)
(3 -8.47332e-16 0)
(3 -2.02498e-16 0)
(3 -8.63154e-17 0)
(3 -4.39847e-16 0)
(3 -2.88625e-16 0)
(3 -1.25438e-16 0)
(3 -2.81409e-16 0)
(3 1.99542e-16 0)
(3 -5.59403e-16 0)
(3 -1.84124e-17 0)
(3 -4.0494e-16 0)
(3 -1.68296e-15 0)
(3 -1.33754e-15 0)
(3 -6.27425e-16 0)
(3 -2.62824e-16 0)
(3 -1.30308e-15 0)
(2.35963 0.0873928 0)
(0.861351 0.103052 0)
(0.699959 0.0941067 0)
(0.673557 0.108673 0)
(0.645619 0.147453 0)
(0.609714 0.15563 0)
(0.57143 0.139347 0)
(0.524193 0.0883384 0)
(0.470381 0.0444851 0)
(0.438215 0.0592891 0)
(0.421044 0.159262 0)
(0.384562 0.257721 0)
(0.344244 0.291604 0)
(0.265859 0.202804 0)
(0.206019 0.115 0)
(0.194711 0.0922254 0)
(0.165534 0.143283 0)
(0.136564 0.190275 0)
(0.0681434 0.177386 0)
(0.0214457 0.189651 0)
(3 -1.72344e-17 0)
(3 -1.53018e-16 0)
(3 -5.78912e-16 0)
(3 -4.29927e-16 0)
(3 -9.81469e-17 0)
(3 -7.09135e-16 0)
(3 -1.93648e-15 0)
(3 -1.60782e-15 0)
(3 -1.85346e-15 0)
(3 2.5922e-17 0)
(3 -2.85482e-16 0)
(3 -1.03986e-16 0)
(3 -6.67279e-16 0)
(3 -7.3579e-16 0)
(3 -3.55203e-16 0)
(3 -1.12717e-15 0)
(3 -1.24569e-15 0)
(3 -9.77554e-16 0)
(3 -8.91446e-16 0)
(3 -2.40418e-15 0)
(2.40544 0.0869163 0)
(0.855996 0.0999398 0)
(0.711933 0.112705 0)
(0.686583 0.155689 0)
(0.651102 0.163314 0)
(0.610862 0.15079 0)
(0.564432 0.12138 0)
(0.514267 0.0769972 0)
(0.475019 0.0789569 0)
(0.462344 0.138932 0)
(0.437056 0.181024 0)
(0.407757 0.179098 0)
(0.322609 0.127953 0)
(0.246141 0.107823 0)
(0.190511 0.145469 0)
(0.206163 0.178018 0)
(0.174303 0.187005 0)
(0.129655 0.151798 0)
(0.0649865 0.109744 0)
(0.0278859 0.116162 0)
(3 -1.94734e-16 0)
(3 -3.59e-16 0)
(3 -1.52101e-16 0)
(3 2.58379e-17 0)
(3 -1.64253e-16 0)
(3 -2.37727e-16 0)
(3 -1.33765e-15 0)
(3 -1.55267e-15 0)
(3 -1.65222e-15 0)
(3 -5.90288e-16 0)
(3 -2.11485e-16 0)
(3 6.81629e-17 0)
(3 3.52621e-16 0)
(3 -8.4192e-16 0)
(3 -1.62896e-15 0)
(3 -8.40664e-16 0)
(3 6.77027e-17 0)
(3 1.21955e-16 0)
(3 -1.16933e-16 0)
(3 -3.58083e-16 0)
(2.44895 0.0979642 0)
(0.865701 0.120027 0)
(0.724898 0.16644 0)
(0.693538 0.169233 0)
(0.650769 0.165715 0)
(0.607521 0.143171 0)
(0.55517 0.107359 0)
(0.513936 0.113496 0)
(0.493011 0.161019 0)
(0.473741 0.200402 0)
(0.441755 0.183723 0)
(0.381544 0.0857223 0)
(0.314437 -0.00131446 0)
(0.267819 0.0454737 0)
(0.226695 0.156281 0)
(0.20834 0.217206 0)
(0.168323 0.192785 0)
(0.114874 0.125504 0)
(0.0630165 0.0917618 0)
(0.030983 0.0781742 0)
(3 -7.43433e-17 0)
(3 6.08233e-17 0)
(3 -1.51247e-16 0)
(3 -6.92804e-16 0)
(3 -5.7907e-16 0)
(3 -4.448e-16 0)
(3 -6.70961e-16 0)
(3 -6.96659e-16 0)
(3 -5.96373e-16 0)
(3 -3.60835e-16 0)
(3 6.04092e-16 0)
(3 8.73048e-16 0)
(3 3.30746e-16 0)
(3 -6.90646e-16 0)
(3 -1.05354e-15 0)
(3 -4.50141e-16 0)
(3 3.42495e-16 0)
(3 1.2234e-15 0)
(3 5.0972e-16 0)
(3 -1.11207e-16 0)
(2.48622 0.117005 0)
(0.889357 0.163058 0)
(0.72741 0.180832 0)
(0.694997 0.167842 0)
(0.650602 0.147773 0)
(0.598743 0.121226 0)
(0.557894 0.124564 0)
(0.537661 0.16113 0)
(0.514266 0.224204 0)
(0.478393 0.235581 0)
(0.413045 0.178904 0)
(0.349527 0.0800412 0)
(0.324608 0.0301852 0)
(0.304494 0.0395391 0)
(0.277661 0.15661 0)
(0.216066 0.245922 0)
(0.145718 0.218687 0)
(0.0919533 0.138669 0)
(0.0639212 0.139396 0)
(0.0323968 0.124463 0)
(3 -8.69668e-17 0)
(3 6.47234e-16 0)
(3 1.08562e-17 0)
(3 -1.64455e-16 0)
(3 -4.79974e-16 0)
(3 -6.89282e-16 0)
(3 -3.79756e-16 0)
(3 -1.09702e-15 0)
(3 -9.29823e-16 0)
(3 5.47047e-16 0)
(3 9.545e-16 0)
(3 1.09474e-15 0)
(3 4.2937e-16 0)
(3 1.22153e-18 0)
(3 1.96964e-16 0)
(3 -1.79615e-16 0)
(3 -2.37271e-16 0)
(3 -2.6721e-16 0)
(3 7.23383e-16 0)
(3 7.2483e-17 0)
(2.54496 0.125927 0)
(0.90681 0.192835 0)
(0.723669 0.193968 0)
(0.692432 0.154407 0)
(0.643127 0.125344 0)
(0.601955 0.130156 0)
(0.575973 0.163081 0)
(0.55671 0.221313 0)
(0.521648 0.225324 0)
(0.476612 0.186167 0)
(0.394718 0.135965 0)
(0.332384 0.148451 0)
(0.304955 0.174978 0)
(0.310455 0.236359 0)
(0.291041 0.241393 0)
(0.226579 0.217627 0)
(0.123983 0.155765 0)
(0.0913692 0.191358 0)
(0.0689614 0.213633 0)
(0.0327004 0.206697 0)
(3 9.5749e-17 0)
(3 -6.92898e-17 0)
(3 1.32498e-16 0)
(3 -1.8627e-16 0)
(3 -2.6599e-16 0)
(3 -3.84298e-16 0)
(3 -2.29396e-16 0)
(3 -2.36831e-16 0)
(3 3.94984e-16 0)
(3 1.50856e-15 0)
(3 8.71181e-16 0)
(3 8.89248e-16 0)
(3 1.36505e-15 0)
(3 8.22875e-16 0)
(3 7.76496e-16 0)
(3 1.39249e-16 0)
(3 -5.68556e-16 0)
(3 -4.52122e-16 0)
(3 7.57001e-16 0)
(3 1.02947e-15 0)
(2.60128 0.121508 0)
(0.92594 0.194639 0)
(0.718864 0.182967 0)
(0.681341 0.138896 0)
(0.644213 0.127991 0)
(0.620842 0.153875 0)
(0.597693 0.219034 0)
(0.562134 0.223447 0)
(0.523675 0.189672 0)
(0.451187 0.118503 0)
(0.405285 0.0959071 0)
(0.370413 0.186719 0)
(0.355111 0.351142 0)
(0.309082 0.399548 0)
(0.267974 0.327752 0)
(0.197707 0.162581 0)
(0.141294 0.163261 0)
(0.107555 0.222771 0)
(0.0785699 0.238025 0)
(0.034563 0.211855 0)
(3 7.2678e-17 0)
(3 -2.79201e-16 0)
(3 -3.23245e-16 0)
(3 -6.76279e-16 0)
(3 -7.10495e-16 0)
(3 -5.13224e-16 0)
(3 -7.84684e-16 0)
(3 7.83427e-16 0)
(3 1.22234e-15 0)
(3 1.02051e-15 0)
(3 3.97672e-16 0)
(3 3.32094e-16 0)
(3 5.10575e-16 0)
(3 1.1376e-15 0)
(3 1.19016e-16 0)
(3 -2.5394e-17 0)
(3 1.303e-16 0)
(3 3.1898e-16 0)
(3 4.57159e-16 0)
(3 7.5671e-16 0)
(2.66209 0.110219 0)
(0.935651 0.18745 0)
(0.706461 0.159184 0)
(0.680774 0.150282 0)
(0.655799 0.168547 0)
(0.642325 0.216526 0)
(0.608739 0.22276 0)
(0.562027 0.231057 0)
(0.496388 0.17272 0)
(0.446804 0.1182 0)
(0.428845 0.13943 0)
(0.434791 0.261523 0)
(0.388747 0.360211 0)
(0.322033 0.411392 0)
(0.213928 0.296736 0)
(0.175869 0.189604 0)
(0.157717 0.18828 0)
(0.12196 0.226124 0)
(0.0618295 0.217312 0)
(0.0321475 0.162685 0)
(3 2.18873e-16 0)
(3 -2.61807e-16 0)
(3 -5.5495e-16 0)
(3 -2.99541e-16 0)
(3 -4.5014e-16 0)
(3 -2.8935e-16 0)
(3 -3.58895e-16 0)
(3 6.61868e-16 0)
(3 3.47972e-16 0)
(3 -6.52008e-16 0)
(3 -3.97933e-16 0)
(3 -4.97923e-16 0)
(3 -3.86616e-16 0)
(3 3.11157e-16 0)
(3 -7.8032e-17 0)
(3 4.53657e-16 0)
(3 1.25978e-15 0)
(3 1.20209e-15 0)
(3 1.05135e-15 0)
(3 9.07163e-16 0)
(2.72081 0.105427 0)
(0.941778 0.178378 0)
(0.709804 0.151924 0)
(0.696529 0.178878 0)
(0.677293 0.234014 0)
(0.647739 0.239965 0)
(0.610077 0.2346 0)
(0.555335 0.180363 0)
(0.489873 0.163938 0)
(0.447948 0.188206 0)
(0.452074 0.266078 0)
(0.44426 0.27465 0)
(0.415362 0.270743 0)
(0.301831 0.198165 0)
(0.201849 0.213344 0)
(0.179793 0.259377 0)
(0.173052 0.328216 0)
(0.122157 0.337904 0)
(0.0490926 0.308199 0)
(0.0263408 0.242298 0)
(3 -5.2228e-17 0)
(3 1.92814e-17 0)
(3 3.20568e-16 0)
(3 -2.12254e-16 0)
(3 -1.61776e-16 0)
(3 -2.42335e-16 0)
(3 9.00158e-16 0)
(3 1.0722e-15 0)
(3 1.59411e-16 0)
(3 -7.90042e-16 0)
(3 -9.15173e-16 0)
(3 -7.32077e-16 0)
(3 -4.1728e-16 0)
(3 -6.03414e-16 0)
(3 -2.55971e-16 0)
(3 4.26158e-16 0)
(3 8.06127e-16 0)
(3 1.01431e-15 0)
(3 1.27825e-15 0)
(3 1.18534e-15 0)
(2.79277 0.110021 0)
(0.9507 0.192258 0)
(0.731874 0.190042 0)
(0.727624 0.229667 0)
(0.692253 0.247041 0)
(0.652167 0.251963 0)
(0.605612 0.200627 0)
(0.548275 0.159177 0)
(0.508541 0.166043 0)
(0.491115 0.266295 0)
(0.469472 0.338422 0)
(0.434027 0.336834 0)
(0.364376 0.186103 0)
(0.297459 0.0685845 0)
(0.237403 0.152871 0)
(0.226752 0.318706 0)
(0.183246 0.380838 0)
(0.11773 0.400922 0)
(0.0403116 0.361275 0)
(0.0333974 0.367612 0)
(3 -1.4421e-16 0)
(3 1.53854e-16 0)
(3 1.01798e-15 0)
(3 1.09758e-15 0)
(3 4.32874e-16 0)
(3 3.16223e-17 0)
(3 1.50505e-15 0)
(3 1.31858e-15 0)
(3 2.9387e-16 0)
(3 -3.58649e-16 0)
(3 -1.43619e-15 0)
(3 -9.57818e-16 0)
(3 -8.58776e-16 0)
(3 -5.27918e-16 0)
(3 -5.73485e-17 0)
(3 -3.01018e-16 0)
(3 7.43691e-17 0)
(3 7.21838e-16 0)
(3 1.14359e-15 0)
(3 8.90148e-16 0)
(2.8578 0.115731 0)
(0.994992 0.23656 0)
(0.766692 0.241093 0)
(0.74552 0.238172 0)
(0.706189 0.236756 0)
(0.653624 0.210722 0)
(0.592572 0.177094 0)
(0.555005 0.154608 0)
(0.54542 0.203323 0)
(0.529224 0.285317 0)
(0.485874 0.320841 0)
(0.413004 0.247703 0)
(0.32492 0.117236 0)
(0.283724 0.119233 0)
(0.293392 0.170693 0)
(0.26898 0.316474 0)
(0.201363 0.378537 0)
(0.125783 0.39583 0)
(0.0462377 0.407137 0)
(0.0416944 0.435471 0)
(3 -4.76128e-17 0)
(3 1.94332e-16 0)
(3 1.00362e-15 0)
(3 1.62877e-15 0)
(3 1.10038e-15 0)
(3 1.32454e-15 0)
(3 5.65483e-16 0)
(3 4.82572e-16 0)
(3 9.02362e-16 0)
(3 3.39939e-16 0)
(3 -3.88166e-16 0)
(3 -3.98028e-16 0)
(3 -2.60257e-16 0)
(3 -3.20406e-16 0)
(3 2.31741e-16 0)
(3 1.97049e-16 0)
(3 3.09003e-16 0)
(3 7.50032e-17 0)
(3 2.11948e-16 0)
(3 2.04006e-16 0)
(2.94641 0.082385 0)
(1.04541 0.269286 0)
(0.780993 0.258692 0)
(0.756753 0.241242 0)
(0.709682 0.210378 0)
(0.651934 0.175269 0)
(0.60125 0.183107 0)
(0.573473 0.240369 0)
(0.565188 0.299096 0)
(0.534762 0.280166 0)
(0.490922 0.22694 0)
(0.388563 0.166341 0)
(0.319999 0.175196 0)
(0.300606 0.219879 0)
(0.322524 0.299038 0)
(0.29604 0.313825 0)
(0.207743 0.293408 0)
(0.115964 0.199646 0)
(0.076566 0.268373 0)
(0.048216 0.312519 0)
(3 -8.28034e-17 0)
(3 9.82304e-17 0)
(3 3.75765e-16 0)
(3 1.50054e-15 0)
(3 1.93545e-15 0)
(3 8.39697e-16 0)
(3 2.52975e-16 0)
(3 8.16516e-17 0)
(3 8.08798e-16 0)
(3 1.12134e-15 0)
(3 1.17374e-15 0)
(3 1.48555e-16 0)
(3 -3.35822e-16 0)
(3 -7.61212e-16 0)
(3 -5.65238e-16 0)
(3 6.98557e-16 0)
(3 3.98836e-16 0)
(3 2.94176e-16 0)
(3 2.6719e-16 0)
(3 1.35688e-16 0)
(2.97768 0.0368775 0)
(1.07944 0.26143 0)
(0.790769 0.249076 0)
(0.761075 0.224779 0)
(0.703323 0.182684 0)
(0.659769 0.174122 0)
(0.632311 0.23968 0)
(0.610978 0.334116 0)
(0.566952 0.357988 0)
(0.521438 0.330658 0)
(0.447943 0.169112 0)
(0.396279 0.10577 0)
(0.363075 0.179367 0)
(0.343689 0.333163 0)
(0.332781 0.416522 0)
(0.273411 0.350073 0)
(0.170996 0.174229 0)
(0.131717 0.161227 0)
(0.0948647 0.169558 0)
(0.0508563 0.138262 0)
(3 1.64161e-16 0)
(3 3.20324e-16 0)
(3 -6.66483e-16 0)
(3 8.48258e-16 0)
(3 8.57035e-16 0)
(3 8.31555e-16 0)
(3 5.66933e-16 0)
(3 1.9433e-16 0)
(3 7.11705e-16 0)
(3 1.57517e-15 0)
(3 1.25736e-15 0)
(3 3.8725e-16 0)
(3 -7.97044e-16 0)
(3 -7.85325e-16 0)
(3 -4.27065e-16 0)
(3 1.15881e-15 0)
(3 8.33793e-16 0)
(3 6.73598e-16 0)
(3 6.00899e-16 0)
(3 4.97753e-16 0)
(2.9764 0.0169017 0)
(1.09581 0.229337 0)
(0.784316 0.218993 0)
(0.752414 0.199287 0)
(0.703788 0.206384 0)
(0.684072 0.245234 0)
(0.671321 0.31097 0)
(0.630177 0.341932 0)
(0.585154 0.351198 0)
(0.496629 0.247091 0)
(0.421341 0.208076 0)
(0.394559 0.225846 0)
(0.421006 0.399556 0)
(0.368917 0.451354 0)
(0.325007 0.412905 0)
(0.222061 0.267475 0)
(0.154696 0.198151 0)
(0.124089 0.197433 0)
(0.0910044 0.19651 0)
(0.0498482 0.172007 0)
(3 4.31659e-16 0)
(3 1.65493e-16 0)
(3 -2.71609e-16 0)
(3 -8.76519e-16 0)
(3 -2.47801e-16 0)
(3 4.13337e-16 0)
(3 1.90571e-16 0)
(3 7.80439e-16 0)
(3 8.48574e-16 0)
(3 7.97179e-16 0)
(3 5.05776e-16 0)
(3 2.1337e-16 0)
(3 4.35857e-17 0)
(3 7.21806e-16 0)
(3 9.42706e-16 0)
(3 5.18452e-16 0)
(3 7.14248e-16 0)
(3 3.05227e-16 0)
(3 7.18849e-16 0)
(3 9.43006e-16 0)
(2.97981 0.018468 0)
(1.10402 0.212884 0)
(0.767581 0.201801 0)
(0.751015 0.201456 0)
(0.723689 0.257114 0)
(0.702097 0.326965 0)
(0.675818 0.32274 0)
(0.641883 0.302607 0)
(0.567917 0.23509 0)
(0.485853 0.227494 0)
(0.441118 0.260509 0)
(0.453901 0.415877 0)
(0.4448 0.452871 0)
(0.375778 0.463355 0)
(0.29395 0.371194 0)
(0.196686 0.230841 0)
(0.165323 0.236939 0)
(0.136904 0.259597 0)
(0.106293 0.281831 0)
(0.0494704 0.244879 0)
(3 -2.4568e-16 0)
(3 -2.48546e-16 0)
(3 4.541e-18 0)
(3 2.94799e-16 0)
(3 5.03035e-16 0)
(3 3.39707e-16 0)
(3 -4.0446e-16 0)
(3 9.77334e-16 0)
(3 5.22104e-16 0)
(3 -2.4748e-17 0)
(3 -2.51561e-16 0)
(3 -8.67955e-16 0)
(3 7.89692e-16 0)
(3 1.94125e-15 0)
(3 2.38935e-15 0)
(3 5.73845e-16 0)
(3 2.70481e-16 0)
(3 6.86752e-16 0)
(3 1.0773e-15 0)
(3 2.69498e-16 0)
(2.99082 0.0167281 0)
(1.12533 0.222895 0)
(0.75644 0.219808 0)
(0.759416 0.258472 0)
(0.738915 0.313378 0)
(0.704581 0.341456 0)
(0.668226 0.347747 0)
(0.61754 0.278141 0)
(0.55533 0.180372 0)
(0.521953 0.183528 0)
(0.515035 0.343526 0)
(0.490985 0.476738 0)
(0.436932 0.546252 0)
(0.353041 0.491957 0)
(0.223248 0.309387 0)
(0.201074 0.282329 0)
(0.197916 0.387869 0)
(0.139688 0.458789 0)
(0.0764206 0.379381 0)
(0.0417165 0.267915 0)
(3 -3.12909e-16 0)
(3 -1.94776e-16 0)
(3 4.00725e-16 0)
(3 4.15498e-17 0)
(3 1.39431e-16 0)
(3 3.97917e-16 0)
(3 6.48109e-16 0)
(3 -3.45234e-16 0)
(3 -3.45288e-16 0)
(3 -3.31727e-16 0)
(3 -3.35478e-16 0)
(3 -1.84002e-16 0)
(3 6.34153e-16 0)
(3 9.62059e-16 0)
(3 9.76991e-16 0)
(3 1.66411e-15 0)
(3 1.57493e-15 0)
(3 1.13959e-15 0)
(3 1.24291e-15 0)
(3 5.46791e-18 0)
(3.0014 0.00453218 0)
(1.14583 0.252422 0)
(0.765978 0.261214 0)
(0.759812 0.299047 0)
(0.741137 0.309171 0)
(0.714411 0.318998 0)
(0.666547 0.294055 0)
(0.592169 0.23298 0)
(0.54629 0.239546 0)
(0.54783 0.298194 0)
(0.554367 0.390835 0)
(0.532011 0.415441 0)
(0.449868 0.38053 0)
(0.311292 0.234142 0)
(0.223773 0.312361 0)
(0.250216 0.431963 0)
(0.23927 0.535 0)
(0.155501 0.572995 0)
(0.0553243 0.557066 0)
(0.042764 0.523804 0)
(3 4.50112e-17 0)
(3 8.17723e-17 0)
(3 2.85432e-16 0)
(3 -7.75001e-16 0)
(3 -3.6582e-16 0)
(3 8.10578e-18 0)
(3 1.93225e-16 0)
(3 -8.35795e-16 0)
(3 -4.17325e-16 0)
(3 -6.43416e-16 0)
(3 -2.74293e-16 0)
(3 1.48595e-16 0)
(3 1.70334e-16 0)
(3 2.1149e-16 0)
(3 7.76666e-16 0)
(3 1.78338e-15 0)
(3 1.56762e-15 0)
(3 1.65454e-15 0)
(3 1.97059e-15 0)
(3 7.82528e-16 0)
(3.00024 0.000136116 0)
(1.19168 0.289754 0)
(0.77286 0.287767 0)
(0.754247 0.313425 0)
(0.731299 0.318084 0)
(0.701881 0.278993 0)
(0.640223 0.241082 0)
(0.597593 0.254342 0)
(0.574204 0.313042 0)
(0.585022 0.417688 0)
(0.564218 0.400089 0)
(0.523973 0.342597 0)
(0.395388 0.156247 0)
(0.328408 0.206318 0)
(0.285691 0.319092 0)
(0.293663 0.510404 0)
(0.25632 0.600804 0)
(0.166655 0.631789 0)
(0.0578056 0.603544 0)
(0.0545429 0.619398 0)
(3 -7.92319e-17 0)
(3 5.8798e-16 0)
(3 -2.14956e-16 0)
(3 -7.15163e-16 0)
(3 2.64994e-16 0)
(3 9.89849e-16 0)
(3 3.76293e-16 0)
(3 -1.61755e-16 0)
(3 -3.02721e-16 0)
(3 -3.93669e-16 0)
(3 5.30917e-16 0)
(3 1.11932e-16 0)
(3 1.49227e-16 0)
(3 1.71141e-16 0)
(3 7.97251e-17 0)
(3 4.27895e-17 0)
(3 2.15071e-16 0)
(3 1.11813e-15 0)
(3 1.60523e-15 0)
(3 9.88397e-16 0)
(3.00006 -4.15436e-05 0)
(1.25212 0.296764 0)
(0.782138 0.291121 0)
(0.750737 0.29922 0)
(0.711828 0.275364 0)
(0.67202 0.243197 0)
(0.6417 0.229857 0)
(0.625642 0.285356 0)
(0.621682 0.419059 0)
(0.587959 0.456711 0)
(0.548355 0.456344 0)
(0.454158 0.234416 0)
(0.404094 0.110945 0)
(0.372432 0.145161 0)
(0.370846 0.314752 0)
(0.352446 0.528788 0)
(0.28113 0.605116 0)
(0.173913 0.509441 0)
(0.0758104 0.596268 0)
(0.0587571 0.642838 0)
(3 -2.27757e-16 0)
(3 2.12658e-17 0)
(3 -1.05067e-15 0)
(3 -8.01294e-16 0)
(3 9.81121e-17 0)
(3 4.19034e-17 0)
(3 -1.23799e-17 0)
(3 3.53775e-16 0)
(3 9.96997e-17 0)
(3 7.24903e-16 0)
(3 6.40779e-16 0)
(3 3.85507e-16 0)
(3 3.96518e-16 0)
(3 -4.49369e-17 0)
(3 -8.93383e-17 0)
(3 -1.34001e-15 0)
(3 -2.02493e-16 0)
(3 -3.83285e-16 0)
(3 2.6919e-16 0)
(3 3.57973e-16 0)
(3.00002 -2.70967e-05 0)
(1.31627 0.290837 0)
(0.786276 0.273012 0)
(0.735769 0.259592 0)
(0.696782 0.254807 0)
(0.661717 0.263069 0)
(0.643535 0.29302 0)
(0.653939 0.39617 0)
(0.631166 0.41811 0)
(0.605761 0.416118 0)
(0.520796 0.321181 0)
(0.410427 0.252302 0)
(0.37534 0.21988 0)
(0.395921 0.311721 0)
(0.429837 0.489344 0)
(0.389902 0.50996 0)
(0.237438 0.355778 0)
(0.168982 0.31854 0)
(0.127866 0.335999 0)
(0.070978 0.391627 0)
(3 2.5678e-17 0)
(3 -1.91111e-16 0)
(3 -7.9369e-16 0)
(3 5.88544e-17 0)
(3 -3.90675e-17 0)
(3 -5.06897e-16 0)
(3 9.83054e-17 0)
(3 4.61456e-16 0)
(3 5.27855e-16 0)
(3 5.88075e-16 0)
(3 3.70971e-16 0)
(3 1.06891e-15 0)
(3 1.34321e-16 0)
(3 5.10267e-17 0)
(3 3.16239e-16 0)
(3 -1.07923e-15 0)
(3 -1.40801e-15 0)
(3 -8.15551e-16 0)
(3 -4.04727e-16 0)
(3 -1.13276e-15 0)
(3 -1.85924e-06 0)
(1.38689 0.292432 0)
(0.783867 0.265409 0)
(0.726897 0.254324 0)
(0.691962 0.251304 0)
(0.668185 0.286359 0)
(0.668428 0.398525 0)
(0.65588 0.418802 0)
(0.630853 0.417844 0)
(0.581999 0.353136 0)
(0.493283 0.244665 0)
(0.436826 0.277502 0)
(0.438869 0.491413 0)
(0.441738 0.609003 0)
(0.435204 0.571979 0)
(0.340438 0.431698 0)
(0.224869 0.287446 0)
(0.181314 0.31127 0)
(0.136171 0.313967 0)
(0.0722535 0.293022 0)
(3 3.80688e-16 0)
(3 1.01474e-16 0)
(3 3.90225e-16 0)
(3 4.26477e-16 0)
(3 -7.35555e-16 0)
(3 -1.3818e-15 0)
(3 -6.55627e-16 0)
(3 -3.49487e-17 0)
(3 1.69023e-16 0)
(3 4.15246e-17 0)
(3 7.79459e-16 0)
(3 8.42457e-16 0)
(3 -1.04662e-16 0)
(3 1.4269e-16 0)
(3 -8.38113e-17 0)
(3 -1.03786e-15 0)
(3 -2.00953e-15 0)
(3 -1.33795e-15 0)
(3 -7.03029e-16 0)
(3 -1.91361e-15 0)
(3 2.35167e-07 0)
(1.47204 0.301545 0)
(0.777301 0.269519 0)
(0.720529 0.263369 0)
(0.701013 0.30162 0)
(0.691922 0.37636 0)
(0.673973 0.411802 0)
(0.650441 0.442731 0)
(0.614567 0.396693 0)
(0.537853 0.270658 0)
(0.500247 0.259912 0)
(0.506285 0.413521 0)
(0.511273 0.62113 0)
(0.435178 0.682788 0)
(0.384523 0.611357 0)
(0.284022 0.38917 0)
(0.226145 0.317665 0)
(0.190232 0.342538 0)
(0.139795 0.351492 0)
(0.0756035 0.320974 0)
(3 -1.79645e-17 0)
(3 -1.60496e-16 0)
(3 7.34378e-16 0)
(3 1.08348e-15 0)
(3 2.23927e-16 0)
(3 -1.26709e-15 0)
(3 -1.30825e-15 0)
(3 -9.62682e-16 0)
(3 -4.28747e-16 0)
(3 2.8567e-16 0)
(3 5.04771e-16 0)
(3 6.12962e-16 0)
(3 2.19804e-16 0)
(3 -2.76506e-17 0)
(3 -7.18184e-16 0)
(3 -6.07513e-16 0)
(3 -1.44762e-15 0)
(3 -1.31057e-15 0)
(3 -1.89037e-15 0)
(3 -1.73889e-15 0)
(3 -3.33391e-07 0)
(1.56234 0.329062 0)
(0.782481 0.289704 0)
(0.734179 0.333545 0)
(0.711138 0.370986 0)
(0.692003 0.384092 0)
(0.677989 0.393954 0)
(0.648203 0.361354 0)
(0.56725 0.290116 0)
(0.527782 0.299884 0)
(0.512776 0.36384 0)
(0.562074 0.526019 0)
(0.540306 0.582784 0)
(0.475768 0.618291 0)
(0.344314 0.525954 0)
(0.2528 0.402779 0)
(0.229107 0.409868 0)
(0.205341 0.4522 0)
(0.144263 0.416997 0)
(0.073632 0.361994 0)
(3 -1.58962e-16 0)
(3 -1.72785e-16 0)
(3 2.93678e-16 0)
(3 1.48882e-16 0)
(3 1.22877e-16 0)
(3 6.46782e-17 0)
(3 -4.5133e-16 0)
(3 -4.9422e-16 0)
(3 -4.05802e-16 0)
(3 -6.63571e-17 0)
(3 1.76578e-16 0)
(3 6.74152e-16 0)
(3 1.19668e-15 0)
(3 6.13902e-16 0)
(3 -1.3244e-17 0)
(3 -9.96766e-17 0)
(3 -7.72976e-16 0)
(3 -7.78141e-16 0)
(3 -2.57908e-15 0)
(3 -1.39845e-15 0)
(3 -3.84872e-07 0)
(1.66408 0.36497 0)
(0.806709 0.345619 0)
(0.74051 0.373823 0)
(0.713473 0.384118 0)
(0.69052 0.392544 0)
(0.659019 0.348077 0)
(0.605589 0.272855 0)
(0.575491 0.260473 0)
(0.550571 0.306977 0)
(0.580607 0.512427 0)
(0.574573 0.572378 0)
(0.540947 0.607583 0)
(0.432889 0.466972 0)
(0.321133 0.377019 0)
(0.288192 0.485704 0)
(0.313792 0.723774 0)
(0.227239 0.811089 0)
(0.102618 0.761905 0)
(0.0645844 0.674828 0)
(3 -2.66291e-17 0)
(3 2.69007e-16 0)
(3 -2.83998e-16 0)
(3 -8.62093e-16 0)
(3 -2.66113e-16 0)
(3 4.95592e-16 0)
(3 7.08524e-16 0)
(3 7.62748e-17 0)
(3 -2.93282e-16 0)
(3 -6.64153e-16 0)
(3 -1.10198e-16 0)
(3 1.88905e-16 0)
(3 9.42641e-16 0)
(3 1.00762e-15 0)
(3 6.86289e-16 0)
(3 4.70614e-16 0)
(3 9.13068e-16 0)
(3 -7.26687e-16 0)
(3 -2.21054e-15 0)
(3 -6.774e-16 0)
(3 -1.11982e-07 0)
(1.78804 0.374773 0)
(0.829003 0.379334 0)
(0.746671 0.383406 0)
(0.718451 0.379596 0)
(0.674655 0.331112 0)
(0.629238 0.296021 0)
(0.597352 0.291281 0)
(0.57426 0.309829 0)
(0.612369 0.483231 0)
(0.597466 0.512398 0)
(0.601632 0.548993 0)
(0.497271 0.380873 0)
(0.397746 0.272019 0)
(0.368212 0.37972 0)
(0.38841 0.596034 0)
(0.359984 0.769213 0)
(0.268291 0.864207 0)
(0.116547 0.889122 0)
(0.0748478 0.910253 0)
(3 1.30106e-17 0)
(3 9.01167e-17 0)
(3 3.8397e-17 0)
(3 -4.972e-17 0)
(3 3.51776e-16 0)
(3 9.25439e-16 0)
(3 3.38013e-17 0)
(3 -4.21557e-16 0)
(3 -1.85558e-16 0)
(3 -3.687e-16 0)
(3 -4.03857e-16 0)
(3 -4.35257e-16 0)
(3 -1.73069e-16 0)
(3 3.80165e-16 0)
(3 8.34755e-16 0)
(3 9.70535e-16 0)
(3 1.29077e-15 0)
(3 -1.20426e-15 0)
(3 -2.05656e-15 0)
(3 -1.31489e-15 0)
(3 -6.93634e-09 0)
(1.92285 0.374155 0)
(0.854039 0.386218 0)
(0.747747 0.365871 0)
(0.705448 0.316808 0)
(0.661593 0.299225 0)
(0.63067 0.304452 0)
(0.60001 0.317552 0)
(0.628299 0.4761 0)
(0.616241 0.501229 0)
(0.602787 0.498367 0)
(0.572472 0.41238 0)
(0.444734 0.250365 0)
(0.411948 0.290393 0)
(0.437687 0.394797 0)
(0.453516 0.624224 0)
(0.416299 0.760641 0)
(0.309361 0.890089 0)
(0.126974 0.934552 0)
(0.081497 0.959399 0)
(3 -2.05505e-16 0)
(3 1.94002e-17 0)
(3 1.33962e-16 0)
(3 6.04553e-16 0)
(3 6.76266e-16 0)
(3 1.91938e-16 0)
(3 -3.25767e-16 0)
(3 -5.92644e-16 0)
(3 -6.58955e-16 0)
(3 -6.60762e-16 0)
(3 -3.97679e-16 0)
(3 9.68877e-17 0)
(3 5.77176e-16 0)
(3 2.83578e-16 0)
(3 1.00419e-15 0)
(3 1.32637e-15 0)
(3 4.3175e-16 0)
(3 -9.4841e-16 0)
(3 -2.20029e-15 0)
(3 -1.77098e-15 0)
(3 -4.91268e-09 0)
(2.08221 0.367426 0)
(0.874239 0.388818 0)
(0.74078 0.33555 0)
(0.702814 0.304522 0)
(0.661583 0.310131 0)
(0.633658 0.316786 0)
(0.648108 0.453189 0)
(0.634492 0.505023 0)
(0.613932 0.533412 0)
(0.592135 0.518202 0)
(0.488603 0.297275 0)
(0.468308 0.214705 0)
(0.452829 0.280276 0)
(0.485117 0.444503 0)
(0.526993 0.665338 0)
(0.442274 0.738001 0)
(0.296193 0.512447 0)
(0.212032 0.634021 0)
(0.0954479 0.814076 0)
(3 -1.5165e-16 0)
(3 -1.98172e-16 0)
(3 5.78004e-16 0)
(3 3.14105e-16 0)
(3 6.23283e-17 0)
(3 -3.34369e-16 0)
(3 3.79616e-16 0)
(3 -6.99167e-16 0)