/*--------------------------------*- C++ -*----------------------------------*\
  =========                 |
  \\      /  F ield         | OpenFOAM: The Open Source CFD Toolbox
   \\    /   O peration     | Website:  https://openfoam.org
    \\  /    A nd           | Version:  6.0
     \\/     M anipulation  |
\*---------------------------------------------------------------------------*/
FoamFile
{
    version     2.0;
    format      ascii;
    class       surfaceScalarField;
    location    "2";
    object      phi;
}
// * * * * * * * * * * * * * * * * * * * * * * * * * * * * * * * * * * * * * //

dimensions      [1 0 -1 0 0 0 0];

internalField   nonuniform List<scalar> 
8300
(
0.0006419
9.06146e-10
0.00020077
0.000568647
2.47477e-08
7.32456e-05
0.000529377
7.56628e-08
3.91498e-05
0.000466623
1.48356e-07
6.25772e-05
0.000384376
2.26103e-07
8.19343e-05
0.000264961
-1.07561e-08
0.000119724
0.000417922
2.86253e-06
-0.000157111
0.000322782
1.02771e-05
8.46811e-05
0.000343778
0.000111315
-0.000131361
9.6086e-05
0.000246407
0.00064183
4.07912e-08
0.000200803
0.000568612
4.92025e-08
7.31988e-05
0.000529355
2.06767e-07
3.91114e-05
0.00046644
4.13864e-07
6.26363e-05
0.00038289
8.6251e-07
8.28849e-05
0.000268202
2.37465e-06
0.000112299
0.000417531
7.1894e-06
-0.00015369
0.000311424
2.75398e-05
8.88091e-05
0.000358301
0.000128122
-6.43521e-05
0.000179324
0.000273861
0.000641984
7.19467e-08
0.000200668
0.000568523
8.80472e-08
7.34147e-05
0.000529765
3.18756e-07
3.86505e-05
0.000467106
6.40277e-07
6.24255e-05
0.000384657
1.27037e-06
8.20703e-05
0.000267131
3.14586e-06
0.00011648
0.000419284
9.02162e-06
-0.000152353
0.000309449
2.03934e-05
0.000117192
0.000344121
0.000177393
-8.60051e-05
0.000273052
0.000249645
0.000642198
1.01963e-07
0.000200446
0.000568407
1.34169e-07
7.37492e-05
0.000530227
4.78401e-07
3.802e-05
0.00046772
9.56672e-07
6.21925e-05
0.000385297
1.87793e-06
8.18203e-05
0.000268765
4.37954e-06
0.000115223
0.000422707
1.33053e-05
-0.000156218
0.000311149
3.38885e-05
9.67274e-05
0.000323914
0.000290498
-0.000127399
0.000397105
0.000200505
0.000642472
1.53152e-07
0.000200163
0.000568229
1.92275e-07
7.41828e-05
0.000530914
6.99769e-07
3.70961e-05
0.000468552
1.39625e-06
6.19223e-05
0.000386147
2.71751e-06
8.1578e-05
0.000268863
6.32116e-06
0.000115252
0.000416423
1.8483e-05
-0.00015205
0.000306688
4.74257e-05
9.62315e-05
0.000313946
0.000397812
-0.000115842
0.0005413
0.000170464
0.000642886
2.25492e-07
0.000199734
0.000567968
2.85562e-07
7.48244e-05
0.000531872
1.04273e-06
3.575e-05
0.000469682
2.01287e-06
6.15705e-05
0.000387232
3.85223e-06
8.13173e-05
0.000270157
9.15982e-06
0.000114191
0.000415537
2.57905e-05
-0.000152356
0.000304318
6.63941e-05
9.22876e-05
0.000299797
0.000527571
-0.000126244
0.000700158
0.000141619
0.000643453
3.05446e-07
0.00019917
0.000567563
4.91802e-07
7.56823e-05
0.000533145
1.43284e-06
3.40206e-05
0.000471515
2.63397e-06
6.1001e-05
0.00039076
4.68229e-06
7.99158e-05
0.000269252
1.00232e-05
0.000120668
0.000411423
3.10983e-05
-0.00014856
0.000299385
8.05732e-05
9.89473e-05
0.000285023
0.000669007
-0.000127208
0.000876433
0.000109276
0.000643595
4.26937e-07
0.00019899
0.000566999
7.15332e-07
7.63697e-05
0.000533767
1.92532e-06
3.27334e-05
0.000472915
3.45353e-06
6.00225e-05
0.000392541
6.03495e-06
7.90187e-05
0.000274765
1.29267e-05
0.000114789
0.000407827
3.98825e-05
-0.000141389
0.000296887
9.9335e-05
9.21703e-05
0.000273243
0.00082488
-0.000133
0.00107263
7.69852e-05
0.000643666
5.47542e-07
0.000198929
0.0005662
9.25755e-07
7.72535e-05
0.000534363
2.46313e-06
3.12886e-05
0.000474901
4.40777e-06
5.84966e-05
0.000396517
7.6953e-06
7.6708e-05
0.00028058
1.65431e-05
0.000112297
0.000389017
5.17802e-05
-0.000120353
0.000294036
0.000132754
6.13919e-05
0.000263718
0.00100279
-0.000148757
0.0013075
2.84511e-05
0.000643745
0.000198824
7.07794e-07
0.000565179
7.84066e-05
1.08303e-06
0.000535171
2.94552e-05
3.00174e-06
0.000477782
5.65161e-05
5.26629e-06
0.00040234
7.38106e-05
9.30709e-06
0.000292194
0.000106444
2.02108e-05
0.000370547
-9.5193e-05
6.86947e-05
0.00029493
3.78913e-05
0.000170177
0.00025739
-0.000189273
0.0012284
-6.43181e-05
0.00162825
0.000903007
8.62549e-09
0.000137309
0.000858954
5.83231e-08
0.000117237
0.000787499
1.75786e-07
0.000110415
0.000756275
4.43678e-07
9.33302e-05
0.000753949
1.04193e-06
8.31401e-05
0.000785325
2.78415e-06
8.56495e-05
0.000558772
7.40141e-06
6.23249e-05
0.000596743
2.68256e-05
2.04735e-05
-8.13411e-05
0.000305435
0.000238631
0.000164864
-1.99603e-06
0.000903003
6.33229e-08
0.000137301
0.000858875
1.61398e-07
0.00011722
0.000787369
3.97663e-07
0.000110388
0.00075629
9.26653e-07
9.32187e-05
0.000755243
2.10813e-06
8.28326e-05
0.000781358
4.8199e-06
8.41341e-05
0.000562246
1.30329e-05
5.97081e-05
0.000620795
4.19701e-05
1.49929e-05
0.000369478
0.000380422
0.000110161
0.000619926
0.000187527
0.000902936
1.12645e-07
0.000137241
0.000859086
2.76846e-07
0.000117146
0.000787076
6.52426e-07
0.000110404
0.000755837
1.4849e-06
9.30976e-05
0.000754181
3.31989e-06
8.2531e-05
0.000783765
7.7172e-06
8.38434e-05
0.000566035
1.94106e-05
5.8511e-05
0.000633018
7.18182e-05
1.99142e-05
0.00022948
0.000633136
6.32858e-05
0.000986403
0.000112578
0.000902817
1.60582e-07
0.000137136
0.000859384
4.13591e-07
0.000117042
0.000786604
9.83164e-07
0.000110466
0.000755108
2.22128e-06
9.2948e-05
0.000753176
4.902e-06
8.21422e-05
0.000781651
1.12518e-05
8.32254e-05
0.000557641
2.85723e-05
5.86876e-05
0.000614617
9.83311e-05
1.29892e-05
0.00021485
0.000896571
7.24292e-06
0.00132849
7.25708e-05
0.000902652
2.46351e-07
0.000136985
0.000859689
6.28565e-07
0.000116929
0.000785712
1.46099e-06
0.000110593
0.000753892
3.21534e-06
9.27429e-05
0.000751819
6.94736e-06
8.16054e-05
0.000780107
1.57791e-05
8.23814e-05
0.000558387
3.96875e-05
5.84071e-05
0.000609115
0.000134443
9.50518e-06
0.000235692
0.00118046
-2.83729e-05
0.00169786
3.59471e-05
0.000902394
3.99258e-07
0.000136749
0.000860026
1.01413e-06
0.000116805
0.000784216
2.20025e-06
0.000110816
0.000752027
4.53706e-06
9.24296e-05
0.00075002
9.47627e-06
8.07882e-05
0.000777838
2.09665e-05
8.11466e-05
0.00055344
5.35185e-05
5.80779e-05
0.000598821
0.000174253
7.16265e-06
0.000232371
0.00147628
-5.78869e-05
0.00206555
4.75381e-06
0.000901976
8.03192e-07
0.000136356
0.000860217
1.75316e-06
0.0001167
0.000782384
3.22202e-06
0.000110825
0.000749926
6.07733e-06
9.19073e-05
0.000747201
1.23277e-05
7.97851e-05
0.000780705
2.77581e-05
8.032e-05
0.000556686
7.11317e-05
5.77005e-05
0.000598873
0.000224922
6.53617e-06
0.000243084
0.00178844
-8.59921e-05
0.00243671
-2.0624e-05
0.000902747
1.22217e-06
0.000135393
0.000861903
2.55395e-06
0.000116407
0.000783553
4.42169e-06
0.000109875
0.000750593
7.92889e-06
9.11181e-05
0.000747429
1.57215e-05
7.87788e-05
0.000776693
3.50769e-05
7.81319e-05
0.000558649
9.12627e-05
5.63121e-05
0.000592259
0.000282361
1.11235e-06
0.00024515
0.00211286
-0.000112676
0.00280991
-5.35093e-05
0.000904282
1.53478e-06
0.000133912
0.00086496
3.22077e-06
0.0001159
0.000786743
5.55054e-06
0.000108366
0.000753232
9.86994e-06
9.00512e-05
0.00074857
1.94955e-05
7.75696e-05
0.000776247
4.38555e-05
7.57864e-05
0.000576426
0.000116107
5.45635e-05
0.000589425
0.000343966
-1.32034e-05
0.000259937
0.00243708
-0.000145621
0.0031844
-8.86573e-05
0.000906003
0.000132107
1.83836e-06
0.000868658
0.000115261
3.70138e-06
0.000790894
0.000106444
6.31114e-06
0.000757322
8.86813e-05
1.12558e-05
0.000752646
7.59516e-05
2.19956e-05
0.000782209
7.20934e-05
4.85738e-05
0.00062564
4.91783e-05
0.000128218
0.000604084
-3.61283e-05
0.000439592
0.000291297
-0.000178014
0.00273653
-0.000131157
0.00353958
0.000915043
5.35504e-09
6.16946e-05
0.000953076
5.42541e-08
7.91476e-05
0.000982933
1.82802e-07
8.03709e-05
0.000998073
4.74089e-07
7.7709e-05
0.000996728
1.17224e-06
8.32916e-05
0.000992225
3.02464e-06
8.70948e-05
0.000956904
8.39036e-06
8.90705e-05
0.000907129
3.10534e-05
3.91112e-05
0.000826003
0.000289578
2.68602e-05
0.000406353
0.000415596
0.000915027
2.28581e-08
6.16896e-05
0.000953024
1.4194e-07
7.91341e-05
0.000982838
3.97782e-07
8.03565e-05
0.000997955
9.67488e-07
7.76012e-05
0.000996553
2.32366e-06
8.30683e-05
0.000991035
5.87254e-06
8.67771e-05
0.000954561
1.62943e-05
8.81923e-05
0.000906484
5.85226e-05
3.56193e-05
0.000734642
0.000585443
-1.71617e-05
0.00107674
0.000249706
0.000914977
3.92923e-08
6.16818e-05
0.000952902
2.51008e-07
7.91107e-05
0.00098287
6.72856e-07
8.0158e-05
0.000997891
1.58432e-06
7.74526e-05
0.000996107
3.73841e-06
8.28876e-05
0.000990086
9.38759e-06
8.63053e-05
0.000951111
2.61049e-05
8.76332e-05
0.000900039
9.7417e-05
3.21138e-05
0.000619556
0.000992396
-6.64625e-05
0.0015692
0.000237733
0.000914886
5.49842e-08
6.16686e-05
0.000952691
4.02151e-07
7.90845e-05
0.000983013
1.0486e-06
7.97646e-05
0.000997939
2.39127e-06
7.72076e-05
0.000995655
5.522e-06
8.26265e-05
0.000988777
1.3728e-05
8.57431e-05
0.000949236
3.81035e-05
8.62866e-05
0.000893231
0.000138709
2.76366e-05
0.000611653
0.0013879
-0.000110039
0.00206491
0.000186674
0.00091474
8.80772e-08
6.16467e-05
0.000952357
6.55729e-07
7.90568e-05
0.000983243
1.5997e-06
7.91523e-05
0.000998134
3.40581e-06
7.68292e-05
0.000995336
7.66031e-06
8.22487e-05
0.000987561
1.88935e-05
8.4955e-05
0.000947049
5.24389e-05
8.45593e-05
0.00088475
0.00018684
2.36007e-05
0.00058817
0.00178369
-0.000131096
0.00254273
0.000144642
0.000914497
1.69497e-07
6.16063e-05
0.000951833
1.1052e-06
7.90173e-05
0.000983856
2.21101e-06
7.81772e-05
0.000998936
4.48674e-06
7.62584e-05
0.000995527
1.00896e-05
8.17486e-05
0.000986498
2.50709e-05
8.39584e-05
0.000944411
7.00674e-05
8.24782e-05
0.000876316
0.000242413
1.96146e-05
0.000561034
0.00219103
-0.000153477
0.00299675
0.000110108
0.000914079
3.76043e-07
6.15077e-05
0.000951119
1.82519e-06
7.89348e-05
0.000984376
2.74432e-06
7.70319e-05
0.000999579
5.63211e-06
7.55489e-05
0.000995394
1.29667e-05
8.10688e-05
0.000985528
3.27192e-05
8.24854e-05
0.000941206
9.20096e-05
7.99654e-05
0.000866436
0.000308141
1.54672e-05
0.000538437
0.00260096
-0.000171494
0.00343579
7.72263e-05
0.000913336
5.96909e-07
6.12739e-05
0.000950258
2.56983e-06
7.87322e-05
0.000983018
3.60584e-06
7.62493e-05
0.000997702
7.0993e-06
7.49533e-05
0.000993285
1.63016e-05
7.98314e-05
0.000982295
4.1376e-05
8.04029e-05
0.00093708
0.000117332
7.61029e-05
0.000857155
0.00037995
9.08786e-06
0.00051932
0.00301585
-0.000193247
0.00385237
4.75053e-05
0.00091228
7.65839e-07
6.09045e-05
0.00094914
3.177e-06
7.84233e-05
0.000981416
4.4056e-06
7.52835e-05
0.000995702
8.67703e-06
7.41698e-05
0.000991386
1.99473e-05
7.82015e-05
0.000980214
5.06969e-05
7.75656e-05
0.000936412
0.000144921
7.06811e-05
0.000849234
0.000453569
1.8231e-07
0.000513181
0.00341944
-0.000216681
0.00426386
1.14136e-05
0.000910985
6.04349e-05
8.98851e-07
0.000947815
7.8033e-05
3.56658e-06
0.000979558
7.41517e-05
4.94516e-06
0.000993746
7.324e-05
9.90537e-06
0.000990807
7.62215e-05
2.25651e-05
0.000983012
7.41119e-05
5.63799e-05
0.000951723
6.39154e-05
0.000161347
0.000851612
-1.23445e-05
0.000529636
0.000494134
-0.000244918
0.00384054
-4.33467e-05
0.0046682
0.000887826
2.10169e-09
1.35407e-05
0.000922861
4.36214e-08
4.4068e-05
0.000959991
1.53893e-07
4.30858e-05
0.000985597
3.97838e-07
5.17031e-05
0.00102058
1.05881e-06
4.72471e-05
0.00105712
2.89066e-06
4.76423e-05
0.00108435
8.44591e-06
5.33408e-05
0.00105853
3.37354e-05
3.12891e-05
0.000793168
0.000309522
-2.31684e-05
0.000849608
0.000357001
0.00088781
3.99104e-09
1.35521e-05
0.000922812
1.12229e-07
4.40628e-05
0.000960097
2.71298e-07
4.29524e-05
0.000985688
7.85064e-07
5.16195e-05
0.00102046
2.17471e-06
4.71721e-05
0.0010565
6.01493e-06
4.75985e-05
0.00108249
1.7667e-05
5.29517e-05
0.00105269
7.02891e-05
2.89321e-05
0.000619502
0.000769929
-5.00033e-05
0.00150491
0.000211952
0.000887762
5.87565e-09
1.35923e-05
0.000922733
2.07957e-07
4.40429e-05
0.000959894
4.50566e-07
4.2817e-05
0.000985414
1.27002e-06
5.1443e-05
0.00101997
3.50478e-06
4.69917e-05
0.00105513
9.69364e-06
4.74366e-05
0.00107948
2.86508e-05
5.22941e-05
0.00103994
0.000116117
2.57729e-05
0.000536227
0.00127823
-7.6445e-05
0.00211513
0.000162105
0.000887671
8.32678e-09
1.36701e-05
0.000922603
3.55139e-07
4.40033e-05
0.000959473
7.23985e-07
4.26205e-05
0.000984904
1.90612e-06
5.1135e-05
0.00101922
5.13063e-06
4.66676e-05
0.00105342
1.40879e-05
4.71185e-05
0.00107525
4.17227e-05
5.13708e-05
0.0010267
0.000168551
2.36086e-05
0.000534033
0.0017456
-8.96857e-05
0.00269492
0.000139022
0.000887512
1.68802e-08
1.38007e-05
0.000922387
6.01985e-07
4.39334e-05
0.000958864
1.09686e-06
4.23015e-05
0.000984275
2.6586e-06
5.06594e-05
0.00101846
7.01292e-06
4.61626e-05
0.00105161
1.9239e-05
4.66121e-05
0.00107012
5.72441e-05
5.05045e-05
0.00101405
0.00022699
2.10441e-05
0.000517524
0.00221476
-0.000108034
0.00323325
0.000121874
0.000887245
4.34757e-08
1.40099e-05
0.00092205
1.00009e-06
4.38109e-05
0.000958059
1.45497e-06
4.18095e-05
0.000983642
3.3554e-06
4.99705e-05
0.00101793
8.99923e-06
4.54569e-05
0.00104994
2.51659e-05
4.59786e-05
0.00106443
7.57091e-05
4.94838e-05
0.00100026
0.000291884
1.86889e-05
0.000497853
0.00268103
-0.000121479
0.00373812
0.000101108
0.000886802
1.03982e-07
1.43221e-05
0.000921614
1.54958e-06
4.3566e-05
0.000957153
1.70486e-06
4.12442e-05
0.000982978
3.9449e-06
4.91266e-05
0.00101734
1.1139e-05
4.45446e-05
0.00104779
3.21033e-05
4.50497e-05
0.00105768
9.78383e-05
4.78878e-05
0.00098523
0.000364673
1.49268e-05
0.00048248
0.00314711
-0.000138983
0.00420603
8.97181e-05
0.000886108
1.71593e-07
1.47758e-05
0.000921143
2.09378e-06
4.3143e-05
0.00095631
2.09087e-06
4.06968e-05
0.00098253
4.76207e-06
4.79068e-05
0.0010161
1.37422e-05
4.36355e-05
0.00104446
4.01864e-05
4.39029e-05
0.00104941
0.000123347
4.5568e-05
0.000970109
0.000442143
1.06656e-05
0.000464786
0.0036019
-0.000146923
0.00464419
7.22136e-05
0.000885172
2.23358e-07
1.53601e-05
0.000920593
2.51979e-06
4.25652e-05
0.000955421
2.44226e-06
4.01031e-05
0.000982207
5.70532e-06
4.64271e-05
0.0010149
1.67109e-05
4.25044e-05
0.00104113
4.9019e-05
4.24334e-05
0.00104146
0.000150993
4.26029e-05
0.000955983
0.000521152
6.3487e-06
0.000466731
0.00403779
-0.00016748
0.00503702
8.34463e-05
0.000884045
1.60393e-05
2.55672e-07
0.000919987
4.18596e-05
2.74332e-06
0.000954455
3.9442e-05
2.67973e-06
0.000981969
4.47215e-05
6.69066e-06
0.00101422
4.12377e-05
1.9392e-05
0.00104065
4.0843e-05
5.577e-05
0.00104326
3.94275e-05
0.000172732
0.000952013
-9.63228e-07
0.000600634
0.000443327
-0.000282206
0.00457966
0.000102727
0.00533215
0.000853394
6.77252e-09
-2.39212e-10
0.000897412
4.57343e-08
4.06547e-09
0.000940407
8.54879e-08
4.56119e-09
0.000991823
2.76323e-07
8.35322e-09
0.00103816
8.85417e-07
1.3144e-08
0.00108306
2.69325e-06
3.63707e-08
0.001128
8.30614e-06
9.52325e-08
0.00112516
3.40883e-05
3.15473e-07
0.000764231
0.000331154
1.11386e-06
0.00111714
1.16779e-06
0.000853402
1.69171e-08
-2.49092e-10
0.000897392
1.14274e-07
3.3613e-09
0.000940295
1.30131e-07
4.29753e-09
0.000991653
5.24095e-07
1.11916e-08
0.00103786
1.82074e-06
2.06644e-08
0.0010824
5.68165e-06
5.05482e-08
0.0011258
1.77351e-05
1.08754e-07
0.00111476
7.42393e-05
4.95797e-08
0.000512255
0.000877561
6.88159e-07
0.00183829
2.23172e-07
0.000853438
3.21593e-08
-5.59067e-10
0.000897373
2.17053e-07
3.28864e-09
0.000940102
2.16482e-07
2.2698e-09
0.000991226
8.30508e-07
9.3747e-09
0.0010371
2.90694e-06
2.01141e-08
0.00108102
9.11957e-06
5.10448e-08
0.00112212
2.87753e-05
1.26196e-07
0.00109845
0.000123546
2.90101e-07
0.000455036
0.00143896
3.57893e-07
0.00245324
-5.25778e-07
0.000853508
5.63838e-08
-1.04078e-09
0.000897344
3.79803e-07
2.23317e-09
0.000939816
3.65314e-07
1.69901e-09
0.00099055
1.21503e-06
1.20852e-08
0.0010359
4.17783e-06
2.77414e-08
0.00107893
1.31132e-05
6.52628e-08
0.00111702
4.18461e-05
1.50032e-07
0.00108341
0.00018075
1.10776e-07
0.000480865
0.00194583
8.32257e-07
0.00307023
2.09025e-07
0.000853624
9.51269e-08
-9.57998e-10
0.000897289
6.41696e-07
3.17747e-09
0.000939427
5.29642e-07
1.51118e-09
0.000989672
1.61562e-06
9.23937e-09
0.00103437
5.60269e-06
2.05934e-08
0.0010762
1.77994e-05
4.90224e-08
0.00111108
5.72957e-05
1.15818e-07
0.00106882
0.000243966
1.25013e-07
0.000452282
0.00244903
3.447e-07
0.00364169
2.82642e-08
0.000853817
1.50737e-07
-6.07361e-10
0.00089725
1.01187e-06
2.83009e-09
0.000938917
6.73962e-07
1.90008e-09
0.00098854
1.95176e-06
6.73133e-09
0.00103248
7.08744e-06
1.37643e-08
0.00107307
2.31061e-05
3.2931e-08
0.00110446
7.5228e-05
8.39106e-08
0.00105332
0.000313702
1.555e-07
0.00043317
0.00294257
9.55579e-08
0.00417354
-8.5902e-08
0.00085412
2.17646e-07
-3.3729e-10
0.000897231
1.45669e-06
2.46403e-09
0.000938398
7.53331e-07
2.03361e-09
0.000987244
2.22572e-06
2.89423e-09
0.00103014
8.71306e-06
6.03055e-09
0.00106893
2.92962e-05
1.7356e-08
0.00109547
9.64665e-05
4.64631e-08
0.00103414
0.000389635
9.618e-08
0.000395033
0.00343766
5.08532e-08
0.00465617
-1.14804e-07
0.000854578
2.83092e-07
-4.05813e-11
0.000897279
1.88748e-06
1.47992e-09
0.000937933
7.97839e-07
2.00783e-09
0.000985529
2.52882e-06
2.21034e-09
0.0010272
1.06466e-05
4.01753e-09
0.00106375
3.65825e-05
1.21094e-08
0.00108451
0.000121144
4.12753e-08
0.00101534
0.000469019
1.47035e-07
0.000388372
0.00391286
5.5586e-09
0.0051146
5.83294e-09
0.000855184
3.31985e-07
3.86322e-11
0.000897417
2.20733e-06
8.50892e-10
0.000937519
7.98292e-07
1.70549e-09
0.000983515
2.95187e-06
1.22383e-09
0.00102364
1.29934e-05
1.33757e-09
0.00105771
4.48609e-05
4.63467e-09
0.00107274
0.000148591
1.89547e-08
0.000997957
0.000549717
7.43198e-08
0.000381079
0.0043575
5.86395e-08
0.00557708
-3.52379e-08
0.000855893
5.62762e-12
3.58874e-07
0.000897663
5.76358e-10
2.28805e-06
0.000937124
1.33377e-09
7.74882e-07
0.000981093
5.63535e-10
3.6939e-06
0.00101966
-2.03196e-10
1.5627e-05
0.00105301
1.08471e-10
5.22596e-05
0.00106681
3.04981e-09
0.000174068
0.000986136
9.72196e-09
0.000628983
-7.03364e-06
-1.60498e-08
0.00506391
1.23656e-07
0.00567035
0.000853387
6.88257e-09
-1.35343e-05
0.000897415
4.65806e-08
-4.4072e-05
0.000940412
8.67964e-08
-4.30811e-05
0.000991823
2.78396e-07
-5.16853e-05
0.00103819
8.89413e-07
-4.72528e-05
0.00108314
2.70321e-06
-4.76342e-05
0.00112811
8.32797e-06
-5.32281e-05
0.00112529
3.40123e-05
-3.06485e-05
0.000763732
0.000330306
2.69639e-05
0.00111714
-0.000355183
0.000853397
1.71059e-08
-1.35473e-05
0.000897395
1.15493e-07
-4.40654e-05
0.000940299
1.30603e-07
-4.29452e-05
0.000991652
5.24956e-07
-5.15929e-05
0.00103789
1.82249e-06
-4.71642e-05
0.00108247
5.68387e-06
-4.75295e-05
0.00112585
1.77317e-05
-5.26967e-05
0.00111482
7.4215e-05
-2.89338e-05
0.000511766
0.000876924
5.17902e-05
0.00183893
-0.00021264
0.000853433
3.22177e-08
-1.3588e-05
0.000897375
2.17648e-07
-4.40443e-05
0.000940105
2.17114e-07
-4.28145e-05
0.000991223
8.31659e-07
-5.1419e-05
0.00103713
2.90917e-06
-4.69825e-05
0.00108109
9.12446e-06
-4.73797e-05
0.0011222
2.87855e-05
-5.20819e-05
0.00109842
0.00012346
-2.50206e-05
0.000454583
0.00143782
7.80999e-05
0.00245279
-0.00016254
0.000853505
5.63841e-08
-1.36689e-05
0.000897346
3.79619e-07
-4.40046e-05
0.000939818
3.65247e-07
-4.26181e-05
0.000990542
1.21493e-06
-5.11005e-05
0.00103593
4.17745e-06
-4.66466e-05
0.00107898
1.31099e-05
-4.70089e-05
0.00111707
4.18292e-05
-5.10402e-05
0.00108333
0.000180619
-2.32162e-05
0.000480785
0.00194479
9.12704e-05
0.00306948
-0.000138412
0.000853619
9.50065e-08
-1.37971e-05
0.000897291
6.40919e-07
-4.39352e-05
0.00093943
5.29277e-07
-4.22989e-05
0.000989665
1.61449e-06
-5.06322e-05
0.00103439
5.59902e-06
-4.61455e-05
0.00107626
1.77869e-05
-4.65405e-05
0.00111113
5.72483e-05
-5.02492e-05
0.00106874
0.00024373
-2.05642e-05
0.000452408
0.00244845
0.000108073
0.0036411
-0.000121869
0.000853812
1.50603e-07
-1.40061e-05
0.000897252
1.01099e-06
-4.38131e-05
0.000938919
6.73705e-07
-4.18068e-05
0.000988536
1.9503e-06
-4.99513e-05
0.00103249
7.08253e-06
-4.5447e-05
0.00107311
2.30902e-05
-4.59372e-05
0.00110451
7.51731e-05
-4.93313e-05
0.00105329
0.000313457
-1.83079e-05
0.000433177
0.00294222
0.000121425
0.00417297
-0.000101318
0.000854115
2.17549e-07
-1.4318e-05
0.000897232
1.45621e-06
-4.35687e-05
0.0009384
7.52981e-07
-4.12412e-05
0.000987248
2.22421e-06
-4.91249e-05
0.00103014
8.70748e-06
-4.4538e-05
0.00106896
2.92785e-05
-4.50376e-05
0.0010955
9.64067e-05
-4.78105e-05
0.00103416
0.000389414
-1.4763e-05
0.000395211
0.00343739
0.000138861
0.00465558
-8.97771e-05
0.000854575
2.83073e-07
-1.4773e-05
0.00089728
1.88746e-06
-4.31453e-05
0.000937934
7.97651e-07
-4.06941e-05
0.000985534
2.52789e-06
-4.79077e-05
0.00102721
1.06432e-05
-4.36361e-05
0.00106376
3.65714e-05
-4.38971e-05
0.00108455
0.000121106
-4.5542e-05
0.00101539
0.000468876
-1.04786e-05
0.000388334
0.00391276
0.00014686
0.00511397
-7.22063e-05
0.000855182
3.32013e-07
-1.53583e-05
0.000897418
2.20755e-06
-4.25671e-05
0.000937521
7.98388e-07
-4.01013e-05
0.00098352
2.95178e-06
-4.64298e-05
0.00102365
1.29927e-05
-4.25098e-05
0.00105773
4.48579e-05
-4.24377e-05
0.00107276
0.000148579
-4.26152e-05
0.000998014
0.000549662
-6.33477e-06
0.000381565
0.00435749
0.000167084
0.00557656
-8.31638e-05
0.000855892
-1.6038e-05
3.58919e-07
0.000897664
-4.18611e-05
2.28835e-06
0.000937126
-3.94408e-05
7.75172e-07
0.000981097
-4.47243e-05
3.69437e-06
0.00101966
-4.12438e-05
1.56279e-05
0.00105301
-4.08497e-05
5.22614e-05
0.00106682
-3.94482e-05
0.000174073
0.000986173
9.00809e-07
0.000628974
-7.11641e-06
0.000282011
0.00506419
-0.000102457
0.00566971
0.000887834
2.54996e-09
-6.16972e-05
0.000922875
4.68519e-08
-7.91628e-05
0.000960015
1.58149e-07
-8.03841e-05
0.000985643
4.01755e-07
-7.77219e-05
0.0010206
1.06405e-06
-8.32839e-05
0.00105721
2.90845e-06
-8.71731e-05
0.00108464
8.51543e-06
-8.91731e-05
0.00105913
3.39072e-05
-3.90463e-05
0.000795628
0.000307224
-2.24376e-05
0.000851751
-0.000413661
0.000887816
5.12187e-09
-6.16918e-05
0.000922822
1.16478e-07
-7.91447e-05
0.000960127
2.75751e-07
-8.03714e-05
0.000985763
7.92049e-07
-7.7627e-05
0.00102055
2.18515e-06
-8.30883e-05
0.00105667
6.03059e-06
-8.67862e-05
0.00108285
1.76742e-05
-8.80399e-05
0.00105283
6.99371e-05
-3.49615e-05
0.000618991
0.000767597
1.97545e-05
0.00150797
-0.00025199
0.000887766
6.77483e-09
-6.16814e-05
0.000922742
2.1157e-07
-7.91195e-05
0.000959908
4.54588e-07
-8.01623e-05
0.000985472
1.27381e-06
-7.74726e-05
0.00102006
3.50806e-06
-8.29034e-05
0.00105532
9.70007e-06
-8.63441e-05
0.00107989
2.86778e-05
-8.76651e-05
0.0010399
0.000116114
-3.12923e-05
0.000535817
0.00127361
7.08127e-05
0.00211382
-0.000234423
0.000887673
8.20446e-09
-6.16691e-05
0.000922611
3.53638e-07
-7.90892e-05
0.000959486
7.24112e-07
-7.9766e-05
0.000984979
1.90965e-06
-7.72382e-05
0.00101935
5.14045e-06
-8.26707e-05
0.00105366
1.41061e-05
-8.57504e-05
0.0010757
4.17419e-05
-8.61525e-05
0.00102656
0.000168194
-2.62997e-05
0.00053489
0.00174287
0.00010879
0.00269324
-0.000184977
0.000887516
1.59829e-08
-6.16459e-05
0.000922395
5.99452e-07
-7.90656e-05
0.000958875
1.09495e-06
-7.91533e-05
0.000984329
2.65767e-06
-7.68443e-05
0.00101854
7.01303e-06
-8.2253e-05
0.00105182
1.92349e-05
-8.49909e-05
0.00107047
5.71835e-05
-8.43662e-05
0.00101387
0.000226329
-2.23012e-05
0.00051826
0.0022132
0.000129085
0.00323194
-0.000144475
0.000887249
4.26931e-08
-6.1607e-05
0.000922058
9.97356e-07
-7.90261e-05
0.000958069
1.45428e-06
-7.81801e-05
0.000983676
3.35533e-06
-7.62674e-05
0.00101797
8.99679e-06
-8.17459e-05
0.00105005
2.51499e-05
-8.39875e-05
0.00106464
7.56286e-05
-8.24138e-05
0.00100024
0.000291285
-1.91003e-05
0.000498272
0.00268008
0.000152408
0.00373693
-0.000110139
0.000886806
1.0337e-07
-6.15088e-05
0.000921621
1.54894e-06
-7.89441e-05
0.000957159
1.70447e-06
-7.70313e-05
0.000982981
3.94206e-06
-7.55431e-05
0.00101734
1.11282e-05
-8.10567e-05
0.00104787
3.20685e-05
-8.25434e-05
0.0010578
9.77021e-05
-7.98835e-05
0.000985328
0.000364027
-1.52974e-05
0.000482685
0.0031464
0.000171047
0.00420491
-7.73189e-05
0.000886112
1.71503e-07
-6.12762e-05
0.000921149
2.0944e-06
-7.87389e-05
0.000956317
2.09147e-06
-7.62505e-05
0.000982533
4.76176e-06
-7.49557e-05
0.0010161
1.37385e-05
-7.98427e-05
0.00104447
4.0172e-05
-8.04439e-05
0.00104948
0.000123291
-7.62269e-05
0.000970339
0.000441868
-9.48903e-06
0.000464737
0.00360172
0.000192954
0.00464319
-4.77966e-05
0.000885175
2.23532e-07
-6.09067e-05
0.000920598
2.5209e-06
-7.84281e-05
0.000955427
2.44354e-06
-7.52855e-05
0.00098221
5.70696e-06
-7.41738e-05
0.0010149
1.67132e-05
-7.82148e-05
0.00104113
4.9023e-05
-7.76014e-05
0.00104149
0.000150998
-7.08005e-05
0.000956178
0.000521111
-6.03386e-07
0.000466606
0.00403802
0.000216221
0.00503628
-1.1615e-05
0.000884048
-6.04368e-05
2.55892e-07
0.000919991
-7.80364e-05
2.74444e-06
0.000954461
-7.41536e-05
2.68122e-06
0.000981972
-7.32434e-05
6.69307e-06
0.00101423
-7.62316e-05
1.93967e-05
0.00104065
-7.41361e-05
5.57813e-05
0.00104328
-6.39879e-05
0.000172765
0.000952128
1.21015e-05
0.000600652
0.000442898
0.000244446
0.0045807
4.33238e-05
0.00533118
0.000915061
8.38815e-09
-0.000137336
0.0009531
6.07706e-08
-0.000117269
0.000982946
1.88783e-07
-0.000110426
0.000998108
4.75811e-07
-9.33677e-05
0.00099685
1.16091e-06
-8.32013e-05
0.000992104
2.96726e-06
-8.53901e-05
0.000957196
8.30864e-06
-6.25352e-05
0.000906157
3.27518e-05
-2.07122e-05
0.000835319
0.000292427
-0.000247428
0.000423442
-4.42265e-06
0.00091504
2.68426e-08
-0.000137318
0.000953044
1.51335e-07
-0.000117244
0.000982846
4.11455e-07
-0.000110402
0.000997974
9.85301e-07
-9.32746e-05
0.000996654
2.35149e-06
-8.29748e-05
0.000991468
5.93563e-06
-8.45851e-05
0.000956876
1.64411e-05
-6.15861e-05
0.000906818
5.70698e-05
-9.20883e-06
0.000737898
0.000580728
-0.000103156
0.00107777
-0.000170971
0.000914986
4.54865e-08
-0.000137253
0.000952918
2.6161e-07
-0.000117167
0.000982894
6.83847e-07
-0.000110416
0.000997951
1.59065e-06
-9.31457e-05
0.000996301
3.72814e-06
-8.26445e-05
0.000990552
9.32744e-06
-8.40412e-05
0.000952373
2.59658e-05
-5.90654e-05
0.000899925
9.80663e-05
-1.97898e-05
0.000623388
0.000984645
-6.00068e-05
0.00156605
-0.000101636
0.000914889
5.19534e-08
-0.000137133
0.000952701
3.98214e-07
-0.000117044
0.00098304
1.04877e-06
-0.000110478
0.000997999
2.40172e-06
-9.30174e-05
0.000995796
5.55846e-06
-8.23187e-05
0.000989564
1.38421e-05
-8.40251e-05
0.000951928
3.83356e-05
-6.07799e-05
0.000893788
0.000137936
-8.07118e-06
0.000612802
0.00138522
-1.41583e-05
0.00206364
-7.18896e-05
0.000914748
8.51715e-08
-0.000136994
0.000952371
6.50177e-07
-0.000116947
0.000983267
1.59445e-06
-0.000110603
0.0009982
3.40728e-06
-9.27947e-05
0.000995532
7.67955e-06
-8.17262e-05
0.000987919
1.89576e-05
-8.25175e-05
0.000948798
5.25723e-05
-5.94758e-05
0.000884908
0.000185896
-6.44548e-06
0.000589805
0.00178148
2.43955e-05
0.00254191
-3.4926e-05
0.000914506
1.67261e-07
-0.000136762
0.000951847
1.10058e-06
-0.000116824
0.000983867
2.20956e-06
-0.000110824
0.000998973
4.48938e-06
-9.24693e-05
0.000995645
1.01045e-05
-8.08688e-05
0.000986629
2.51195e-05
-8.11677e-05
0.000945222
7.0155e-05
-5.86063e-05
0.000876328
0.000241825
-6.24055e-06
0.000562574
0.00218943
5.46521e-05
0.00299549
-3.1015e-06
0.000914089
3.76183e-07
-0.000136372
0.000951133
1.82577e-06
-0.000116722
0.000984394
2.74537e-06
-0.000110834
0.000999625
5.63271e-06
-9.19321e-05
0.000995499
1.29641e-05
-7.98209e-05
0.000985362
3.26948e-05
-8.00326e-05
0.000941572
9.19178e-05
-5.79137e-05
0.000866508
0.000307192
-5.73956e-06
0.000540106
0.0025998
8.34927e-05
0.00343427
2.21105e-05
0.000913345
5.97994e-07
-0.000135406
0.000950269
2.57263e-06
-0.000116421
0.000983034
3.60952e-06
-0.000109886
0.000997726
7.10546e-06
-9.11371e-05
0.00099331
1.6313e-05
-7.88112e-05
0.00098224
4.13991e-05
-7.81485e-05
0.000936922
0.000117386
-5.64585e-05
0.000857203
0.000380044
-2.80667e-06
0.000520341
0.00301596
0.000110203
0.00385107
5.36621e-05
0.000912287
7.66953e-07
-0.000133922
0.000949149
3.17992e-06
-0.000115909
0.000981429
4.40966e-06
-0.000108375
0.000995718
8.68389e-06
-9.0062e-05
0.000991398
1.99609e-05
-7.75855e-05
0.000980192
5.0729e-05
-7.58037e-05
0.000936266
0.000145009
-5.45901e-05
0.000849215
0.000453848
1.24258e-05
0.000513298
0.00342051
0.000144131
0.00426324
8.76035e-05
0.00091099
-0.000132115
8.99693e-07
0.000947821
-0.000115267
3.56893e-06
0.000979568
-0.00010645
4.94861e-06
0.000993759
-8.86883e-05
9.9112e-06
0.000990818
-7.59614e-05
2.25766e-05
0.000983012
-7.21074e-05
5.64077e-05
0.000951645
-4.91761e-05
0.000161433
0.000851539
3.59483e-05
0.00052982
0.000493298
0.000177313
0.00384261
0.000129505
0.00466806
0.000903043
1.81522e-08
-0.000200851
0.000858815
6.76386e-08
-7.31167e-05
0.000787567
1.85087e-07
-3.9373e-05
0.00075647
4.51321e-07
-6.27297e-05
0.000754755
1.04033e-06
-8.25795e-05
0.000783803
2.54153e-06
-0.000116889
0.000564056
6.60616e-06
0.000150878
0.000599668
3.14854e-05
-8.75245e-05
-8.28069e-05
0.000315018
0.000117589
0.000162515
-0.000251869
0.000903027
7.03978e-08
-0.000200845
0.000858802
1.76198e-07
-7.31335e-05
0.000787403
4.16834e-07
-3.92436e-05
0.000756324
9.53141e-07
-6.27097e-05
0.00075504
2.16283e-06
-8.28389e-05
0.000781755
5.07164e-06
-0.000113817
0.000567333
1.37581e-05
0.000145711
0.000618365
3.85251e-05
-6.7067e-05
0.000362094
0.000382188
8.36962e-05
0.000630463
-0.00027695
0.000902956
1.30969e-07
-0.000200713
0.000859009
2.94639e-07
-7.33439e-05
0.000787134
6.67021e-07
-3.8797e-05
0.000755958
1.49076e-06
-6.25198e-05
0.000754359
3.31032e-06
-8.21588e-05
0.000784116
7.49766e-06
-0.00011646
0.000574221
1.87215e-05
0.000145185
0.00063945
7.52144e-05
-0.000122252
0.000244404
0.000633154
8.25231e-05
0.000986033
-0.0002125
0.000902811
1.48717e-07
-0.000200415
0.000859424
4.07187e-07
-7.37772e-05
0.000786716
9.8251e-07
-3.80965e-05
0.000755155
2.2299e-06
-6.2203e-05
0.000752495
4.92305e-06
-8.13513e-05
0.000783206
1.15287e-05
-0.000118601
0.000560164
2.91909e-05
0.000152375
0.00060988
9.74017e-05
-7.97867e-05
0.000230323
0.000901348
9.50805e-05
0.0013329
-0.000187993
0.000902665
2.41374e-07
-0.0002002
0.000859611
6.20215e-07
-7.41143e-05
0.0007858
1.45578e-06
-3.72753e-05
0.000754037
3.22269e-06
-6.20356e-05
0.000752165
6.9861e-06
-8.19459e-05
0.000778974
1.5863e-05
-0.000113659
0.000561971