/*--------------------------------*- C++ -*----------------------------------*\
  =========                 |
  \\      /  F ield         | OpenFOAM: The Open Source CFD Toolbox
   \\    /   O peration     | Website:  https://openfoam.org
    \\  /    A nd           | Version:  6.0
     \\/     M anipulation  |
\*---------------------------------------------------------------------------*/
FoamFile
{
    version     2.0;
    format      ascii;
    class       volVectorField;
    location    "0.499826";
    object      U;
}
// * * * * * * * * * * * * * * * * * * * * * * * * * * * * * * * * * * * * * //

dimensions      [0 1 -1 0 0 0 0];

internalField   nonuniform List<vector> 
192000
(
(3 9.22592e-16 0)
(3 -3.78987e-16 0)
(3 1.06535e-15 0)
(3 -1.07789e-15 0)
(3 5.09419e-16 0)
(3 5.82629e-15 0)
(3 -2.73203e-15 0)
(3 -8.00523e-15 0)
(3 -2.35499e-15 0)
(3 1.7831e-15 0)
(3 -1.3518e-15 0)
(3 1.77632e-15 0)
(3 1.80497e-15 0)
(3 4.65828e-15 0)
(3 2.57755e-15 0)
(3 1.04716e-15 0)
(3 1.89472e-15 0)
(3 2.40725e-16 0)
(3 -1.06289e-17 0)
(3 1.46941e-15 0)
(3 -1.20398e-15 0)
(3 3.30554e-15 0)
(3 3.42375e-15 0)
(3 3.93471e-15 0)
(3 1.28975e-15 0)
(2.03923 0.00423685 0)
(0.739617 0.00699351 0)
(0.609244 0.00724463 0)
(0.554004 0.00725987 0)
(0.484945 0.00709027 0)
(0.432087 0.00660829 0)
(0.394488 0.00643081 0)
(0.366292 0.0065675 0)
(0.336663 0.00673826 0)
(0.299654 0.00710338 0)
(0.251188 0.00800566 0)
(0.196969 0.00888653 0)
(0.141505 0.00898131 0)
(0.0851816 0.00854841 0)
(0.0276067 0.00873227 0)
(3 -3.26774e-16 0)
(3 9.52271e-16 0)
(3 1.31453e-15 0)
(3 1.2093e-15 0)
(3 5.28214e-16 0)
(3 4.2682e-15 0)
(3 7.60045e-16 0)
(3 -2.84842e-15 0)
(3 3.60773e-15 0)
(3 1.74578e-15 0)
(3 2.73781e-15 0)
(3 3.00452e-15 0)
(3 4.31975e-15 0)
(3 -2.42074e-15 0)
(3 8.02838e-16 0)
(3 7.49427e-16 0)
(3 -7.90311e-17 0)
(3 4.48231e-16 0)
(3 -6.79035e-17 0)
(3 -3.56336e-16 0)
(3 -1.97909e-15 0)
(3 1.20588e-15 0)
(3 2.64283e-16 0)
(3 2.29151e-15 0)
(3 4.31231e-15 0)
(2.03543 0.0137901 0)
(0.733854 0.0218829 0)
(0.60316 0.0198011 0)
(0.5481 0.0197089 0)
(0.479175 0.0192546 0)
(0.426549 0.0179603 0)
(0.389407 0.0179055 0)
(0.361542 0.0186696 0)
(0.332092 0.0193921 0)
(0.294775 0.0204641 0)
(0.24601 0.0232595 0)
(0.191995 0.0264438 0)
(0.137287 0.027143 0)
(0.0824159 0.0255684 0)
(0.026892 0.0256889 0)
(3 -2.10817e-15 0)
(3 -2.50341e-15 0)
(3 9.46189e-16 0)
(3 1.53217e-15 0)
(3 3.75308e-15 0)
(3 -5.99479e-15 0)
(3 -2.60596e-15 0)
(3 -2.25759e-16 0)
(3 -4.24884e-16 0)
(3 -4.29488e-16 0)
(3 2.83906e-15 0)
(3 9.23361e-16 0)
(3 5.54253e-15 0)
(3 1.55996e-15 0)
(3 1.45255e-15 0)
(3 1.98731e-16 0)
(3 -2.08583e-15 0)
(3 1.49363e-15 0)
(3 1.84892e-15 0)
(3 -3.43256e-16 0)
(3 2.28176e-15 0)
(3 4.86033e-15 0)
(3 -6.77143e-16 0)
(3 1.76855e-15 0)
(3 4.59898e-15 0)
(2.04132 0.0279695 0)
(0.732189 0.0378162 0)
(0.599374 0.0331388 0)
(0.543589 0.0328499 0)
(0.474204 0.0320078 0)
(0.421362 0.029884 0)
(0.384208 0.0298342 0)
(0.356204 0.0312621 0)
(0.326833 0.0325878 0)
(0.289197 0.0343192 0)
(0.240232 0.0387222 0)
(0.186189 0.043353 0)
(0.131866 0.0441934 0)
(0.0785427 0.0422643 0)
(0.0257665 0.0427807 0)
(3 2.17929e-15 0)
(3 -4.66122e-15 0)
(3 -7.50854e-16 0)
(3 1.51687e-15 0)
(3 -9.67831e-16 0)
(3 4.44618e-15 0)
(3 -3.54514e-15 0)
(3 -2.8975e-15 0)
(3 -4.45379e-15 0)
(3 -1.59141e-16 0)
(3 -1.07536e-15 0)
(3 3.9575e-15 0)
(3 -2.42058e-15 0)
(3 2.72513e-15 0)
(3 2.21826e-15 0)
(3 2.88757e-15 0)
(3 4.00047e-15 0)
(3 -1.16872e-15 0)
(3 7.02877e-16 0)
(3 2.0436e-15 0)
(3 -1.12442e-15 0)
(3 6.11711e-16 0)
(3 1.97604e-17 0)
(3 2.51435e-15 0)
(3 -1.58651e-15 0)
(2.05838 0.0412986 0)
(0.735258 0.0544674 0)
(0.598879 0.0465296 0)
(0.542356 0.0462019 0)
(0.472789 0.0450238 0)
(0.419587 0.042358 0)
(0.381827 0.0425787 0)
(0.352683 0.0446057 0)
(0.322397 0.0462563 0)
(0.283526 0.0484269 0)
(0.233832 0.0540467 0)
(0.179743 0.0595953 0)
(0.126103 0.0604137 0)
(0.0744281 0.0585204 0)
(0.0246135 0.0597836 0)
(3 1.66773e-15 0)
(3 -8.37428e-16 0)
(3 -1.05309e-15 0)
(3 4.79118e-17 0)
(3 1.9098e-15 0)
(3 2.25922e-15 0)
(3 4.25649e-15 0)
(3 -5.13407e-15 0)
(3 -3.50446e-15 0)
(3 -2.56512e-15 0)
(3 -3.62222e-15 0)
(3 -2.35882e-15 0)
(3 -6.97723e-16 0)
(3 -2.89372e-15 0)
(3 2.44307e-15 0)
(3 -3.10465e-15 0)
(3 -4.10107e-15 0)
(3 -1.51149e-15 0)
(3 3.03518e-15 0)
(3 3.61011e-15 0)
(3 1.29066e-15 0)
(3 -1.83558e-15 0)
(3 -8.40278e-16 0)
(3 -9.87781e-16 0)
(3 -4.14773e-15 0)
(2.07877 0.0528622 0)
(0.738229 0.0714658 0)
(0.598775 0.0598287 0)
(0.543334 0.0590044 0)
(0.475148 0.0578012 0)
(0.422194 0.0551033 0)
(0.38363 0.0560706 0)
(0.352711 0.0590686 0)
(0.320832 0.0611412 0)
(0.27998 0.0637484 0)
(0.228766 0.0699879 0)
(0.174188 0.0755949 0)
(0.121292 0.0759478 0)
(0.0711565 0.0743918 0)
(0.0237369 0.0767447 0)
(3 -5.02187e-17 0)
(3 -5.3461e-16 0)
(3 -8.33973e-16 0)
(3 -1.03323e-16 0)
(3 1.19278e-15 0)
(3 -1.93315e-15 0)
(3 1.78499e-15 0)
(3 -3.45509e-16 0)
(3 2.94297e-15 0)
(3 -6.42336e-16 0)
(3 -1.6301e-15 0)
(3 -1.79202e-15 0)
(3 4.73067e-16 0)
(3 -8.05591e-16 0)
(3 -7.9823e-16 0)
(3 2.29838e-15 0)
(3 -1.57208e-15 0)
(3 4.3261e-15 0)
(3 1.74943e-15 0)
(3 2.7985e-15 0)
(3 4.76625e-16 0)
(3 -6.78397e-16 0)
(3 3.9672e-16 0)
(3 4.21437e-15 0)
(3 -8.58436e-15 0)
(2.10112 0.0646089 0)
(0.740983 0.088769 0)
(0.599608 0.0728739 0)
(0.546244 0.0707549 0)
(0.480003 0.0698369 0)
(0.427378 0.0678232 0)
(0.387954 0.0700261 0)
(0.355241 0.0743234 0)
(0.321795 0.076966 0)
(0.278999 0.080224 0)
(0.226169 0.0868143 0)
(0.170951 0.0917917 0)
(0.118744 0.0911094 0)
(0.0696916 0.0899421 0)
(0.0234419 0.0936469 0)
(3 -8.38892e-16 0)
(3 2.19999e-15 0)
(3 -9.74915e-17 0)
(3 -5.44308e-16 0)
(3 -2.0144e-15 0)
(3 -2.31662e-15 0)
(3 -9.3481e-17 0)
(3 2.32339e-15 0)
(3 7.14855e-16 0)
(3 -4.81638e-15 0)
(3 -2.7e-15 0)
(3 -2.86488e-15 0)
(3 -2.51117e-15 0)
(3 -1.61385e-15 0)
(3 -1.65364e-15 0)
(3 1.97575e-15 0)
(3 2.58147e-15 0)
(3 6.82743e-16 0)
(3 -3.64155e-15 0)
(3 -2.40036e-15 0)
(3 6.85646e-16 0)
(3 1.19343e-15 0)
(3 1.66993e-15 0)
(3 1.1669e-15 0)
(3 -3.52277e-15 0)
(2.1297 0.0759668 0)
(0.74589 0.105911 0)
(0.601785 0.085027 0)
(0.550035 0.0816134 0)
(0.485029 0.0816262 0)
(0.431941 0.0813256 0)
(0.391167 0.0850611 0)
(0.356811 0.0906064 0)
(0.32263 0.0938064 0)
(0.279151 0.0974518 0)
(0.225613 0.104265 0)
(0.170168 0.108648 0)
(0.1186 0.106781 0)
(0.069924 0.105191 0)
(0.0236133 0.110396 0)
(3 -3.29709e-16 0)
(3 2.99529e-15 0)
(3 -5.56855e-16 0)
(3 3.22169e-15 0)
(3 -1.5137e-15 0)
(3 1.59241e-16 0)
(3 -9.54006e-16 0)
(3 1.36391e-15 0)
(3 -3.80211e-16 0)
(3 -1.75072e-15 0)
(3 -1.49108e-15 0)
(3 -2.90914e-15 0)
(3 -3.03003e-15 0)
(3 -1.43016e-15 0)
(3 -1.19716e-15 0)
(3 -5.3732e-16 0)
(3 -1.08076e-15 0)
(3 -9.43112e-16 0)
(3 -1.42723e-15 0)
(3 3.12673e-17 0)
(3 2.48823e-15 0)
(3 3.20233e-15 0)
(3 1.29774e-15 0)
(3 -2.06031e-15 0)
(3 -3.19025e-15 0)
(2.16246 0.0862743 0)
(0.751415 0.123063 0)
(0.60334 0.0966246 0)
(0.552616 0.0917916 0)
(0.488349 0.0933511 0)
(0.43476 0.0955029 0)
(0.39328 0.10081 0)
(0.358319 0.10745 0)
(0.324299 0.111191 0)
(0.280813 0.115361 0)
(0.226915 0.122197 0)
(0.171367 0.125544 0)
(0.120366 0.122202 0)
(0.0714051 0.120271 0)
(0.0241494 0.126745 0)
(3 9.57249e-16 0)
(3 -1.24732e-15 0)
(3 8.06241e-16 0)
(3 -1.35018e-16 0)
(3 2.57118e-16 0)
(3 1.6893e-15 0)
(3 -1.65947e-15 0)
(3 -3.60883e-16 0)
(3 -2.97234e-15 0)
(3 -3.06838e-15 0)
(3 2.02371e-17 0)
(3 -1.68563e-15 0)
(3 3.3789e-15 0)
(3 1.76618e-15 0)
(3 3.42357e-15 0)
(3 7.8677e-16 0)
(3 6.74362e-16 0)
(3 1.68179e-15 0)
(3 -1.1289e-15 0)
(3 1.26639e-15 0)
(3 4.9707e-15 0)
(3 5.20924e-15 0)
(3 4.90481e-16 0)
(3 1.71363e-15 0)
(3 -2.82238e-15 0)
(2.19537 0.0963792 0)
(0.755608 0.140452 0)
(0.603846 0.107965 0)
(0.554091 0.101769 0)
(0.490187 0.1053 0)
(0.436119 0.11001 0)
(0.394267 0.117058 0)
(0.359266 0.12463 0)
(0.326228 0.128684 0)
(0.283559 0.133328 0)
(0.229962 0.14045 0)
(0.17446 0.143027 0)
(0.123597 0.13828 0)
(0.0735593 0.135402 0)
(0.0247708 0.142862 0)
(3 -8.09536e-17 0)
(3 -1.15104e-15 0)
(3 3.59638e-16 0)
(3 1.21701e-15 0)
(3 1.69698e-15 0)
(3 -6.38878e-16 0)
(3 3.63215e-15 0)
(3 2.31867e-15 0)
(3 -1.95566e-15 0)
(3 -2.97996e-15 0)
(3 -2.72991e-15 0)
(3 -3.39562e-15 0)
(3 7.44908e-16 0)
(3 -1.99263e-15 0)
(3 1.9771e-15 0)
(3 -2.36191e-15 0)
(3 -4.72774e-17 0)
(3 -9.68687e-16 0)
(3 2.315e-16 0)
(3 1.4722e-17 0)
(3 4.80241e-15 0)
(3 3.21507e-15 0)
(3 2.84162e-16 0)
(3 2.07532e-15 0)
(3 -2.39491e-15 0)
(2.23156 0.10701 0)
(0.760328 0.157905 0)
(0.604814 0.11881 0)
(0.555737 0.111461 0)
(0.491654 0.117415 0)
(0.436819 0.125093 0)
(0.394949 0.133572 0)
(0.360487 0.141777 0)
(0.329209 0.145885 0)
(0.288209 0.150756 0)
(0.235252 0.158183 0)
(0.179337 0.160534 0)
(0.127567 0.155081 0)
(0.0756718 0.150841 0)
(0.0253173 0.15895 0)
(3 -1.41189e-15 0)
(3 -1.29174e-15 0)
(3 -1.25721e-15 0)
(3 6.65547e-16 0)
(3 1.11468e-15 0)
(3 2.2223e-15 0)
(3 -7.04786e-16 0)
(3 3.67629e-16 0)
(3 3.7719e-16 0)
(3 6.50469e-16 0)
(3 -1.72666e-15 0)
(3 -3.14978e-15 0)
(3 3.85445e-16 0)
(3 6.75875e-16 0)
(3 -3.84738e-15 0)
(3 2.47868e-15 0)
(3 1.39275e-15 0)
(3 -2.84337e-15 0)
(3 7.99108e-16 0)
(3 2.8154e-15 0)
(3 1.14928e-15 0)
(3 -5.72584e-16 0)
(3 2.84488e-15 0)
(3 1.70567e-15 0)
(3 -8.73297e-16 0)
(2.27233 0.118227 0)
(0.766449 0.175376 0)
(0.606883 0.129278 0)
(0.558323 0.121117 0)
(0.49372 0.129875 0)
(0.437953 0.140591 0)
(0.396078 0.150239 0)
(0.362473 0.158715 0)
(0.333259 0.162587 0)
(0.294036 0.167608 0)
(0.241675 0.1752 0)
(0.185093 0.177931 0)
(0.131878 0.172372 0)
(0.0777189 0.166731 0)
(0.0258793 0.175424 0)
(3 8.23427e-16 0)
(3 1.45275e-17 0)
(3 -4.38277e-16 0)
(3 2.89037e-17 0)
(3 1.61066e-16 0)
(3 4.32785e-16 0)
(3 -2.51875e-16 0)
(3 -1.1909e-15 0)
(3 -7.64382e-17 0)
(3 -1.36096e-15 0)
(3 -1.01905e-15 0)
(3 1.28421e-15 0)
(3 5.71152e-15 0)
(3 -1.22936e-16 0)
(3 -1.98742e-15 0)
(3 -7.16838e-16 0)
(3 1.67129e-16 0)
(3 1.03249e-15 0)
(3 -2.97632e-15 0)
(3 3.35164e-16 0)
(3 6.40899e-16 0)
(3 1.41142e-15 0)
(3 -5.08109e-15 0)
(3 2.9963e-16 0)
(3 -5.43625e-16 0)
(2.31841 0.129641 0)
(0.774355 0.192675 0)
(0.610399 0.139404 0)
(0.562321 0.130856 0)
(0.4969 0.142773 0)
(0.439983 0.156484 0)
(0.39795 0.16698 0)
(0.365292 0.175422 0)
(0.338127 0.178753 0)
(0.300562 0.18368 0)
(0.248674 0.191514 0)
(0.191168 0.194937 0)
(0.135895 0.189918 0)
(0.0794011 0.183387 0)
(0.0264533 0.192746 0)
(3 1.12834e-15 0)
(3 1.04532e-15 0)
(3 1.38502e-16 0)
(3 -1.39153e-15 0)
(3 -2.26971e-15 0)
(3 2.65973e-15 0)
(3 3.27431e-15 0)
(3 6.90609e-16 0)
(3 1.2888e-16 0)
(3 -1.69644e-15 0)
(3 5.77387e-17 0)
(3 1.35559e-15 0)
(3 3.08491e-16 0)
(3 1.75043e-15 0)
(3 -1.04027e-15 0)
(3 1.29272e-15 0)
(3 -1.37259e-15 0)
(3 1.25758e-15 0)
(3 -2.73294e-15 0)
(3 -1.60819e-15 0)
(3 1.52856e-15 0)
(3 5.33596e-15 0)
(3 -4.73059e-15 0)
(3 -2.12283e-15 0)
(3 -1.12007e-15 0)
(2.37077 0.140912 0)
(0.7845 0.209576 0)
(0.615268 0.149194 0)
(0.567665 0.140815 0)
(0.501192 0.15624 0)
(0.44293 0.172846 0)
(0.400707 0.183665 0)
(0.368956 0.191743 0)
(0.343448 0.194447 0)
(0.306864 0.199433 0)
(0.254998 0.207574 0)
(0.196523 0.211863 0)
(0.139312 0.207446 0)
(0.0807655 0.200906 0)
(0.0269738 0.210912 0)
(3 -3.43774e-16 0)
(3 1.2746e-15 0)
(3 -2.93497e-15 0)
(3 -2.28396e-15 0)
(3 2.21855e-16 0)
(3 -2.95401e-15 0)
(3 1.61778e-15 0)
(3 2.2085e-15 0)
(3 -2.85758e-15 0)
(3 -8.1639e-16 0)
(3 2.21167e-16 0)
(3 7.6043e-16 0)
(3 2.73908e-16 0)
(3 -1.9483e-15 0)
(3 -2.67942e-15 0)
(3 -3.31215e-15 0)
(3 -3.79083e-15 0)
(3 -3.13584e-15 0)
(3 -3.26269e-15 0)
(3 -7.30372e-16 0)
(3 -1.04144e-15 0)
(3 -3.30108e-16 0)
(3 3.43672e-15 0)
(3 -4.46271e-16 0)
(3 -1.03124e-15 0)
(2.4306 0.151514 0)
(0.797574 0.225773 0)
(0.621486 0.15847 0)
(0.574345 0.151044 0)
(0.506669 0.170401 0)
(0.446747 0.18972 0)
(0.404061 0.200186 0)
(0.372762 0.207616 0)
(0.348243 0.209889 0)
(0.312031 0.215256 0)
(0.260126 0.223676 0)
(0.201153 0.22864 0)
(0.142273 0.225623 0)
(0.0821649 0.219335 0)
(0.0275829 0.229895 0)
(3 -4.54166e-16 0)
(3 -1.55535e-15 0)
(3 -4.02048e-16 0)
(3 2.64243e-16 0)
(3 2.68276e-15 0)
(3 -2.10834e-15 0)
(3 -3.20929e-15 0)
(3 2.38553e-15 0)
(3 8.50987e-16 0)
(3 4.48431e-16 0)
(3 4.54339e-16 0)
(3 2.28904e-15 0)
(3 3.39208e-15 0)
(3 7.23932e-15 0)
(3 -1.33782e-15 0)
(3 2.77217e-16 0)
(3 -1.34385e-15 0)
(3 -2.16163e-15 0)
(3 -3.403e-15 0)
(3 -2.71678e-16 0)
(3 -2.75315e-15 0)
(3 -4.70309e-16 0)
(3 -3.17093e-15 0)
(3 -2.44951e-15 0)
(3 -8.64556e-16 0)
(2.49892 0.15987 0)
(0.814335 0.240701 0)
(0.628862 0.167338 0)
(0.582064 0.161831 0)
(0.512853 0.185558 0)
(0.450832 0.207224 0)
(0.407542 0.216606 0)
(0.376459 0.222977 0)
(0.352605 0.224947 0)
(0.316339 0.231012 0)
(0.264073 0.240399 0)
(0.204771 0.246367 0)
(0.144875 0.244355 0)
(0.0835589 0.238613 0)
(0.0281425 0.249323 0)
(3 -7.05736e-16 0)
(3 -1.46504e-15 0)
(3 1.2611e-15 0)
(3 -1.36834e-15 0)
(3 1.41331e-15 0)
(3 2.13848e-15 0)
(3 -1.9179e-15 0)
(3 -2.51364e-15 0)
(3 2.61689e-15 0)
(3 5.80416e-16 0)
(3 4.96615e-15 0)
(3 4.97866e-15 0)
(3 4.67283e-15 0)
(3 5.14888e-15 0)
(3 3.26606e-15 0)
(3 -1.60875e-15 0)
(3 -6.07776e-16 0)
(3 3.28022e-16 0)
(3 -2.75194e-16 0)
(3 -3.15213e-15 0)
(3 -1.42214e-15 0)
(3 -7.13537e-16 0)
(3 1.03555e-15 0)
(3 2.47322e-15 0)
(3 1.92932e-15 0)
(2.57569 0.164062 0)
(0.835124 0.254063 0)
(0.637047 0.176039 0)
(0.590641 0.173392 0)
(0.519531 0.201874 0)
(0.454934 0.225396 0)
(0.410972 0.23289 0)
(0.379909 0.237957 0)
(0.356447 0.239617 0)
(0.319811 0.246646 0)
(0.266937 0.257546 0)
(0.207343 0.264891 0)
(0.146729 0.263805 0)
(0.0847822 0.258579 0)
(0.0286976 0.269212 0)
(3 1.18483e-16 0)
(3 -4.80109e-16 0)
(3 -6.02005e-16 0)
(3 -8.53241e-16 0)
(3 6.29257e-16 0)
(3 -3.869e-16 0)
(3 -1.45023e-15 0)
(3 -2.29878e-15 0)
(3 1.09133e-16 0)
(3 -1.23221e-15 0)
(3 4.3495e-15 0)
(3 -2.15961e-15 0)
(3 3.08463e-15 0)
(3 -2.36008e-15 0)
(3 1.90558e-15 0)
(3 -5.22436e-16 0)
(3 -4.42077e-16 0)
(3 -2.73286e-15 0)
(3 -1.17226e-15 0)
(3 1.55211e-16 0)
(3 1.09195e-15 0)
(3 2.01581e-15 0)
(3 -9.75037e-16 0)
(3 -1.1504e-15 0)
(3 6.291e-16 0)
(2.65877 0.16315 0)
(0.860408 0.265331 0)
(0.645882 0.183919 0)
(0.599338 0.186191 0)
(0.525608 0.219691 0)
(0.458301 0.24426 0)
(0.414145 0.249128 0)
(0.383199 0.252595 0)
(0.360183 0.253913 0)
(0.323199 0.261971 0)
(0.269597 0.27478 0)
(0.209272 0.283926 0)
(0.148006 0.283856 0)
(0.0858322 0.279007 0)
(0.0290595 0.289331 0)
(3 -1.78167e-16 0)
(3 8.87182e-16 0)
(3 9.41742e-16 0)
(3 1.8329e-15 0)
(3 -6.46415e-18 0)
(3 9.67353e-16 0)
(3 -7.1842e-16 0)
(3 -1.37948e-16 0)
(3 7.75769e-16 0)
(3 1.84609e-16 0)
(3 -2.49472e-15 0)
(3 9.82598e-16 0)
(3 -1.89447e-15 0)
(3 3.31317e-15 0)
(3 8.4742e-16 0)
(3 1.56391e-15 0)
(3 -2.13206e-15 0)
(3 -4.58401e-15 0)
(3 -2.36414e-15 0)
(3 -5.24505e-16 0)
(3 3.69072e-15 0)
(3 2.74199e-15 0)
(3 2.78835e-15 0)
(3 5.05233e-16 0)
(3 2.32535e-16 0)
(2.74507 0.155025 0)
(0.890321 0.27446 0)
(0.652839 0.19281 0)
(0.605839 0.201106 0)
(0.529783 0.238993 0)
(0.46058 0.263473 0)
(0.41722 0.265163 0)
(0.386784 0.266992 0)
(0.364355 0.267893 0)
(0.327046 0.276916 0)
(0.272546 0.291894 0)
(0.211269 0.303088 0)
(0.149394 0.304225 0)
(0.0871362 0.299645 0)
(0.0295098 0.309413 0)
(3 -2.14214e-17 0)
(3 1.27276e-16 0)
(3 3.8226e-16 0)
(3 1.84165e-15 0)
(3 1.38349e-15 0)
(3 -1.8515e-16 0)
(3 -3.064e-15 0)
(3 3.11024e-15 0)
(3 2.58135e-15 0)
(3 2.55802e-15 0)
(3 2.82722e-15 0)
(3 3.32999e-15 0)
(3 -1.91472e-16 0)
(3 -1.355e-16 0)
(3 -1.39745e-15 0)
(3 -2.94154e-16 0)
(3 -1.8162e-15 0)
(3 -3.94897e-15 0)
(3 -1.00126e-15 0)
(3 -2.57602e-17 0)
(3 3.57893e-17 0)
(3 7.6854e-16 0)
(3 1.10634e-15 0)
(3 -1.43956e-16 0)
(3 8.14974e-16 0)
(2.82845 0.139468 0)
(0.923787 0.28196 0)
(0.659929 0.201636 0)
(0.610953 0.217479 0)
(0.531854 0.25935 0)
(0.461933 0.282442 0)
(0.420409 0.280906 0)
(0.390744 0.281335 0)
(0.368807 0.281924 0)
(0.331229 0.291701 0)
(0.27581 0.308765 0)
(0.213358 0.322105 0)
(0.15081 0.324672 0)
(0.0883738 0.320283 0)
(0.0298472 0.329388 0)
(3 2.11311e-16 0)
(3 -1.3331e-15 0)
(3 -9.8779e-16 0)
(3 5.33202e-16 0)
(3 2.91678e-15 0)
(3 -1.921e-16 0)
(3 3.19865e-15 0)
(3 2.24532e-15 0)
(3 -1.33472e-15 0)
(3 3.51703e-15 0)
(3 -1.2908e-15 0)
(3 3.36833e-16 0)
(3 1.07061e-15 0)
(3 -3.26941e-15 0)
(3 -2.87507e-15 0)
(3 -1.91631e-15 0)
(3 -1.61713e-15 0)
(3 -4.24254e-15 0)
(3 -4.10126e-15 0)
(3 8.19017e-18 0)
(3 -1.50732e-16 0)
(3 5.26276e-16 0)
(3 -1.77917e-15 0)
(3 2.49142e-16 0)
(3 -2.48986e-15 0)
(2.90426 0.112498 0)
(0.959476 0.289091 0)
(0.665506 0.211946 0)
(0.613213 0.23601 0)
(0.53152 0.280424 0)
(0.462861 0.300413 0)
(0.424073 0.296029 0)
(0.395578 0.295618 0)
(0.37401 0.296275 0)
(0.33636 0.306513 0)
(0.280107 0.32538 0)
(0.21625 0.340832 0)
(0.152723 0.345052 0)
(0.0896592 0.340844 0)
(0.0301535 0.349439 0)
(3 -6.18624e-16 0)
(3 1.40401e-15 0)
(3 2.90969e-16 0)
(3 2.11407e-15 0)
(3 -3.34407e-15 0)
(3 -6.38145e-16 0)
(3 3.38906e-15 0)
(3 -3.44907e-15 0)
(3 7.71589e-16 0)
(3 -1.3872e-15 0)
(3 1.67223e-15 0)
(3 1.75155e-15 0)
(3 9.51422e-16 0)
(3 1.5468e-15 0)
(3 3.7439e-15 0)
(3 -5.17108e-16 0)
(3 -1.6518e-15 0)
(3 7.76392e-18 0)
(3 -2.079e-16 0)
(3 4.83857e-16 0)
(3 9.53591e-16 0)
(3 9.86888e-16 0)
(3 -2.48299e-15 0)
(3 4.00937e-15 0)
(3 1.59947e-15 0)
(2.96092 0.0754583 0)
(0.997883 0.294702 0)
(0.671198 0.223077 0)
(0.613107 0.256783 0)
(0.529288 0.301424 0)
(0.464373 0.316635 0)
(0.429062 0.31006 0)
(0.401596 0.309809 0)
(0.379848 0.311289 0)
(0.341978 0.321937 0)
(0.284896 0.342222 0)
(0.219546 0.35953 0)
(0.154936 0.365436 0)
(0.090949 0.361456 0)
(0.0305256 0.369995 0)
(3 2.50985e-16 0)
(3 1.87713e-15 0)
(3 2.34506e-15 0)
(3 1.93666e-15 0)
(3 -8.04602e-16 0)
(3 -2.76967e-15 0)
(3 -8.68002e-16 0)
(3 8.66083e-16 0)
(3 2.25292e-15 0)
(3 6.23729e-17 0)
(3 2.28749e-15 0)
(3 9.26572e-16 0)
(3 -8.71694e-16 0)
(3 1.87344e-15 0)
(3 8.62749e-16 0)
(3 -3.92927e-16 0)
(3 -2.021e-15 0)
(3 2.9472e-16 0)
(3 6.81786e-16 0)
(3 -1.73881e-15 0)
(3 -1.09027e-15 0)
(3 -6.03866e-16 0)
(3 9.19162e-16 0)
(3 5.21626e-16 0)
(3 1.29304e-15 0)
(2.9914 0.0299946 0)
(1.04562 0.294108 0)
(0.676393 0.236431 0)
(0.609327 0.278838 0)
(0.526636 0.320995 0)
(0.468043 0.330415 0)
(0.436081 0.322493 0)
(0.409067 0.323367 0)
(0.386572 0.326854 0)
(0.348219 0.338268 0)
(0.290465 0.359691 0)
(0.223687 0.378561 0)
(0.157829 0.386051 0)
(0.0924937 0.382379 0)
(0.0310037 0.391372 0)
(3 -5.41711e-17 0)
(3 1.46004e-15 0)
(3 -1.67246e-16 0)
(3 6.42471e-16 0)
(3 -6.79035e-17 0)
(3 -1.39123e-15 0)
(3 -6.30634e-16 0)
(3 2.71042e-15 0)
(3 8.70447e-16 0)
(3 -2.79168e-16 0)
(3 2.62973e-15 0)
(3 -2.50517e-15 0)
(3 -1.33116e-15 0)
(3 -1.59034e-16 0)
(3 -2.20977e-15 0)
(3 -1.714e-15 0)
(3 -8.9341e-16 0)
(3 -7.89532e-16 0)
(3 -2.54298e-15 0)
(3 -2.22701e-15 0)
(3 2.73227e-16 0)
(3 1.22591e-15 0)
(3 1.0978e-15 0)
(3 -1.80431e-15 0)
(3 4.16315e-15 0)
(3.00114 0.00286402 0)
(1.10735 0.29473 0)
(0.678019 0.251856 0)
(0.603872 0.300744 0)
(0.52647 0.338192 0)
(0.474516 0.341846 0)
(0.445229 0.333068 0)
(0.417777 0.335992 0)
(0.39371 0.3428 0)
(0.354211 0.355731 0)
(0.295898 0.378351 0)
(0.22808 0.398574 0)
(0.16113 0.407366 0)
(0.0943174 0.403971 0)
(0.0316809 0.413732 0)
(3 2.57194e-16 0)
(3 3.5414e-16 0)
(3 -3.40566e-15 0)
(3 -4.89246e-16 0)
(3 -3.99551e-15 0)
(3 2.46307e-15 0)
(3 5.47786e-16 0)
(3 -4.07214e-16 0)
(3 -4.33943e-15 0)
(3 -3.84543e-16 0)
(3 -1.4604e-15 0)
(3 -2.84594e-16 0)
(3 -5.24792e-16 0)
(3 -9.57919e-16 0)
(3 1.55953e-15 0)
(3 -4.0422e-15 0)
(3 -2.41348e-15 0)
(3 -3.21898e-15 0)
(3 -1.10309e-15 0)
(3 -1.17266e-16 0)
(3 -1.0331e-15 0)
(3 -1.247e-16 0)
(3 1.50542e-15 0)
(3 2.02109e-15 0)
(3 -2.78444e-15 0)
(3.00002 2.78636e-05 0)
(1.17906 0.300675 0)
(0.679648 0.269501 0)
(0.59951 0.322157 0)
(0.528982 0.353416 0)
(0.483649 0.351264 0)
(0.456107 0.342368 0)
(0.427641 0.347752 0)
(0.401994 0.358509 0)
(0.361162 0.373604 0)
(0.302506 0.397747 0)
(0.233681 0.419614 0)
(0.165183 0.429737 0)
(0.0965462 0.426638 0)
(0.0325022 0.437175 0)
(3 1.58112e-15 0)
(3 -2.41877e-15 0)
(3 1.70271e-15 0)
(3 1.01502e-15 0)
(3 8.64615e-16 0)
(3 -4.23821e-16 0)
(3 -1.02357e-15 0)
(3 -1.68416e-15 0)
(3 -6.57906e-16 0)
(3 -3.71574e-16 0)
(3 9.81655e-16 0)
(3 2.48974e-15 0)
(3 -7.96793e-16 0)
(3 -6.61468e-16 0)
(3 3.21484e-16 0)
(3 1.56701e-15 0)
(3 2.63133e-15 0)
(3 -1.17392e-15 0)
(3 -8.07069e-16 0)
(3 5.30716e-16 0)
(3 -3.95921e-15 0)
(3 9.79682e-16 0)
(3 1.83172e-15 0)
(3 6.9676e-16 0)
(3 -1.83076e-15 0)
(3 1.99077e-08 0)
(1.25513 0.312182 0)
(0.681262 0.289794 0)
(0.597182 0.343217 0)
(0.535077 0.365878 0)
(0.495665 0.358518 0)
(0.46887 0.350007 0)
(0.438831 0.358464 0)
(0.411177 0.37375 0)
(0.368155 0.39187 0)
(0.308768 0.417904 0)
(0.239175 0.441688 0)
(0.169524 0.453274 0)
(0.0994641 0.45068 0)
(0.0339308 0.461954 0)
(3 -3.8184e-16 0)
(3 1.3114e-15 0)
(3 2.64427e-15 0)
(3 5.89866e-17 0)
(3 -8.94333e-16 0)
(3 -1.17191e-15 0)
(3 1.83416e-15 0)
(3 3.46286e-15 0)
(3 4.40894e-15 0)
(3 1.52962e-16 0)
(3 -2.00162e-15 0)
(3 -1.78272e-15 0)
(3 -2.07579e-15 0)
(3 4.73464e-16 0)
(3 -9.52519e-16 0)
(3 1.65102e-15 0)
(3 1.4473e-15 0)
(3 1.24499e-15 0)
(3 7.78929e-16 0)
(3 -1.39367e-15 0)
(3 1.73819e-15 0)
(3 9.72134e-16 0)
(3 1.6952e-16 0)
(3 8.18685e-17 0)
(3 1.44568e-16 0)
(3 6.00816e-13 0)
(1.33683 0.330454 0)
(0.682395 0.311791 0)
(0.600066 0.362281 0)
(0.546365 0.375419 0)
(0.510867 0.364915 0)
(0.482531 0.357709 0)
(0.450771 0.369417 0)
(0.420066 0.389192 0)
(0.374959 0.410518 0)
(0.315673 0.438136 0)
(0.246172 0.463633 0)
(0.175203 0.477265 0)
(0.103079 0.476231 0)
(0.0353798 0.488435 0)
(3 4.96677e-16 0)
(3 -3.71052e-17 0)
(3 1.90431e-15 0)
(3 -5.76067e-16 0)
(3 -1.96472e-15 0)
(3 9.6341e-16 0)
(3 2.41343e-15 0)
(3 1.74839e-15 0)
(3 6.42907e-16 0)
(3 -2.7474e-16 0)
(3 -1.57806e-15 0)
(3 -3.64566e-15 0)
(3 -2.64937e-15 0)
(3 -1.78957e-15 0)
(3 -2.88188e-15 0)
(3 -1.89741e-16 0)
(3 2.76919e-15 0)
(3 2.79126e-15 0)
(3 3.51255e-15 0)
(3 8.57257e-16 0)
(3 -1.89152e-15 0)
(3 -4.15861e-15 0)
(3 -2.83208e-15 0)
(3 -4.44044e-17 0)
(3 -1.35818e-15 0)
(3 -1.75462e-15 0)
(1.43001 0.355058 0)
(0.688622 0.335836 0)
(0.610838 0.378906 0)
(0.564304 0.384486 0)
(0.529476 0.372888 0)
(0.497304 0.365915 0)
(0.463416 0.381432 0)
(0.429014 0.405165 0)
(0.381908 0.429434 0)
(0.322827 0.458459 0)
(0.253633 0.485387 0)
(0.181357 0.501493 0)
(0.107135 0.503185 0)
(0.037047 0.516628 0)
(3 -2.45104e-15 0)
(3 1.84034e-15 0)
(3 1.50465e-15 0)
(3 -1.20831e-16 0)
(3 -2.47944e-15 0)
(3 3.34336e-15 0)
(3 1.33766e-15 0)
(3 1.84564e-15 0)
(3 4.55698e-16 0)
(3 5.35985e-16 0)
(3 1.30334e-15 0)
(3 3.09969e-16 0)
(3 -1.67136e-15 0)
(3 -1.56319e-15 0)
(3 -2.08436e-15 0)
(3 1.61768e-15 0)
(3 1.14657e-15 0)
(3 1.76629e-15 0)
(3 1.27918e-15 0)
(3 -4.69642e-16 0)
(3 -2.61533e-15 0)
(3 -7.5063e-15 0)
(3 -3.73761e-15 0)
(3 -1.59742e-15 0)
(3 -1.2576e-15 0)
(3 -1.50253e-15 0)
(1.54393 0.382441 0)
(0.706864 0.357828 0)
(0.632381 0.391513 0)
(0.590191 0.394362 0)
(0.551711 0.38359 0)
(0.512538 0.377964 0)
(0.475204 0.39632 0)
(0.436515 0.423032 0)
(0.387898 0.449286 0)
(0.329891 0.479137 0)
(0.261996 0.507011 0)
(0.189085 0.525566 0)
(0.112574 0.530914 0)
(0.0388604 0.546149 0)
(3 -7.34201e-16 0)
(3 9.39232e-16 0)
(3 -1.63419e-15 0)
(3 -1.33679e-15 0)
(3 4.62285e-16 0)
(3 2.77433e-15 0)
(3 -1.0775e-15 0)
(3 1.11069e-15 0)
(3 -6.01301e-16 0)
(3 3.11309e-16 0)
(3 -7.78349e-17 0)
(3 1.57541e-15 0)
(3 -7.83054e-16 0)
(3 -1.37991e-15 0)
(3 3.10767e-15 0)
(3 5.48074e-15 0)
(3 -6.64538e-16 0)
(3 1.82895e-15 0)
(3 -2.62135e-15 0)
(3 1.78946e-15 0)
(3 1.5161e-16 0)
(3 -2.19344e-15 0)
(3 -3.41229e-15 0)
(3 -4.14586e-16 0)
(3 -1.73251e-15 0)
(3 -2.39405e-15 0)
(1.68696 0.404412 0)
(0.740364 0.372883 0)
(0.665016 0.40186 0)
(0.622734 0.405986 0)
(0.577153 0.39667 0)
(0.528702 0.393161 0)
(0.486293 0.413379 0)
(0.443535 0.442279 0)
(0.393998 0.470005 0)
(0.337644 0.500214 0)
(0.271682 0.528787 0)
(0.19875 0.549643 0)
(0.119862 0.558937 0)
(0.0413438 0.576334 0)
(3 1.00126e-15 0)
(3 -7.64988e-16 0)
(3 -6.41612e-16 0)
(3 -1.90019e-16 0)
(3 5.86508e-16 0)
(3 -2.22771e-15 0)
(3 6.60347e-17 0)
(3 9.60037e-16 0)
(3 -2.49675e-15 0)
(3 7.44648e-16 0)
(3 2.20871e-15 0)
(3 1.77497e-15 0)
(3 1.49234e-15 0)
(3 -8.05489e-17 0)
(3 1.79895e-15 0)
(3 1.9221e-15 0)
(3 1.41655e-15 0)
(3 3.55107e-15 0)
(3 -1.55047e-15 0)
(3 -4.99871e-16 0)
(3 2.40054e-15 0)
(3 2.27307e-15 0)
(3 -2.66934e-15 0)
(3 -2.25496e-16 0)
(3 -1.05481e-17 0)
(3 -1.7733e-15 0)
(1.86439 0.415299 0)
(0.790084 0.381877 0)
(0.705037 0.410937 0)
(0.658222 0.418483 0)
(0.60253 0.413785 0)
(0.543606 0.411873 0)
(0.495308 0.432261 0)
(0.449857 0.462052 0)
(0.400606 0.491059 0)
(0.345908 0.522199 0)
(0.281723 0.551665 0)
(0.208925 0.574884 0)
(0.127707 0.587546 0)
(0.0434205 0.606846 0)
(3 7.88149e-16 0)
(3 6.79446e-17 0)
(3 2.9201e-15 0)
(3 1.61943e-16 0)
(3 5.97249e-16 0)
(3 -2.13422e-15 0)
(3 -4.09258e-16 0)
(3 -8.18943e-16 0)
(3 1.58867e-15 0)
(3 1.86409e-15 0)
(3 5.17153e-15 0)
(3 2.43633e-16 0)
(3 2.05364e-15 0)
(3 2.75575e-16 0)
(3 -1.47708e-15 0)
(3 -2.50268e-15 0)
(3 -1.69425e-15 0)
(3 -3.883e-17 0)
(3 -6.45554e-15 0)
(3 2.82033e-16 0)
(3 -9.76711e-16 0)
(3 -1.5011e-15 0)
(3 -5.35363e-16 0)
(3 -4.14696e-17 0)
(3 -5.85412e-16 0)
(3 -4.82432e-16 0)
(2.06423 0.403552 0)
(0.843745 0.387069 0)
(0.741332 0.417918 0)
(0.687905 0.432354 0)
(0.621848 0.434187 0)
(0.554744 0.433531 0)
(0.502027 0.452275 0)
(0.45568 0.481335 0)
(0.407526 0.511374 0)
(0.35434 0.544805 0)
(0.292248 0.576113 0)
(0.221117 0.601393 0)
(0.138129 0.616725 0)
(0.0470694 0.638114 0)
(3 -3.80597e-16 0)
(3 5.17342e-16 0)
(3 -1.34529e-17 0)
(3 -1.01804e-15 0)
(3 -5.72049e-16 0)
(3 5.61752e-16 0)
(3 -2.02223e-16 0)
(3 3.37715e-16 0)
(3 2.18515e-16 0)
(3 -6.14031e-17 0)
(3 -3.31463e-16 0)
(3 3.10031e-15 0)
(3 -1.62379e-16 0)
(3 -1.01071e-15 0)
(3 -2.80069e-15 0)
(3 -2.66302e-15 0)
(3 -2.40108e-15 0)
(3 -3.60179e-15 0)
(3 -1.0064e-15 0)
(3 8.29283e-16 0)
(3 -4.8444e-15 0)
(3 -2.46229e-15 0)
(3 -4.20549e-16 0)
(3 -6.01277e-16 0)
(3 6.87837e-16 0)
(3 -3.1836e-16 0)
(2.25762 0.366805 0)
(0.884331 0.389941 0)
(0.762811 0.428581 0)
(0.7038 0.449305 0)
(0.631246 0.455755 0)
(0.561398 0.456262 0)
(0.507161 0.473248 0)
(0.461178 0.500317 0)
(0.415132 0.530344 0)
(0.364124 0.566474 0)
(0.303889 0.601289 0)
(0.23354 0.63029 0)
(0.147786 0.648779 0)
(0.0493231 0.67192 0)
(3 -1.76622e-16 0)
(3 -1.48685e-15 0)
(3 1.22279e-15 0)
(3 1.51279e-16 0)
(3 -3.12228e-15 0)
(3 4.08332e-15 0)
(3 1.88721e-15 0)
(3 2.8191e-15 0)
(3 -1.27799e-15 0)
(3 -1.36721e-15 0)
(3 -1.59682e-15 0)
(3 3.30128e-15 0)
(3 3.36096e-15 0)
(3 7.87801e-16 0)
(3 -3.78593e-15 0)
(3 -4.32129e-15 0)
(3 -4.23035e-15 0)
(3 -1.0481e-15 0)
(3 1.66471e-16 0)
(3 -2.38733e-15 0)
(3 5.35856e-16 0)
(3 -1.03019e-15 0)
(3 1.58322e-15 0)
(3 -1.15063e-15 0)
(3 7.80249e-16 0)
(3 2.17201e-15 0)
(2.43149 0.319204 0)
(0.913943 0.392393 0)
(0.768539 0.442898 0)
(0.706018 0.467692 0)
(0.631223 0.476224 0)
(0.562754 0.478608 0)
(0.509545 0.494737 0)
(0.465604 0.519526 0)
(0.423027 0.548331 0)
(0.375117 0.586682 0)
(0.316907 0.626423 0)
(0.247887 0.661102 0)
(0.160322 0.683899 0)
(0.0544312 0.709665 0)
(3 4.59878e-16 0)
(3 1.56635e-16 0)
(3 -2.20377e-16 0)
(3 -1.79362e-15 0)
(3 -2.27362e-15 0)
(3 1.70363e-16 0)
(3 1.54722e-15 0)
(3 2.39401e-15 0)
(3 3.90805e-15 0)
(3 2.64637e-15 0)
(3 7.22095e-16 0)
(3 -1.08825e-15 0)
(3 3.33235e-15 0)
(3 1.42767e-16 0)
(3 -2.17498e-15 0)
(3 -4.20904e-15 0)
(3 -1.41305e-15 0)
(3 1.84951e-15 0)
(3 6.06051e-16 0)
(3 1.32024e-15 0)
(3 9.59224e-17 0)
(3 -2.05712e-15 0)
(3 -9.89244e-16 0)
(3 -2.78025e-15 0)
(3 4.42179e-16 0)
(3 1.93438e-16 0)
(2.58513 0.268469 0)
(0.9402 0.397272 0)
(0.763756 0.458058 0)
(0.700706 0.485915 0)
(0.626662 0.496309 0)
(0.559944 0.499283 0)
(0.508624 0.515339 0)
(0.467956 0.538661 0)
(0.430827 0.566115 0)
(0.388285 0.605225 0)
(0.333572 0.649758 0)
(0.265267 0.692927 0)
(0.173868 0.723825 0)
(0.0587134 0.754069 0)
(3 5.69974e-16 0)
(3 -1.12663e-16 0)
(3 -2.10293e-15 0)
(3 -1.21344e-15 0)
(3 -3.62455e-16 0)
(3 -3.25868e-15 0)
(3 1.38373e-15 0)
(3 1.99511e-15 0)
(3 5.21232e-15 0)
(3 4.16313e-15 0)
(3 -5.23135e-16 0)
(3 -2.11704e-15 0)
(3 5.79466e-16 0)
(3 -1.04961e-15 0)
(3 2.97772e-15 0)
(3 -1.69551e-16 0)
(3 -1.06996e-15 0)
(3 4.41874e-15 0)
(3 2.21494e-15 0)
(3 3.11745e-15 0)
(3 5.99554e-16 0)
(3 2.22573e-15 0)
(3 -2.48139e-15 0)
(3 -1.35818e-15 0)
(3 7.82972e-16 0)
(3 -1.31651e-15 0)
(2.7172 0.215493 0)
(0.965528 0.404691 0)
(0.757242 0.474039 0)
(0.69312 0.504803 0)
(0.619603 0.515888 0)
(0.55492 0.518965 0)
(0.506356 0.534363 0)
(0.469928 0.556842 0)
(0.440028 0.583819 0)
(0.403838 0.622947 0)
(0.353279 0.672344 0)
(0.286409 0.725625 0)
(0.191176 0.768418 0)
(0.0653857 0.805846 0)
(3 -4.43067e-16 0)
(3 -4.66612e-16 0)
(3 7.42721e-16 0)
(3 2.33423e-15 0)
(3 -6.11567e-16 0)
(3 3.17608e-15 0)
(3 3.33419e-15 0)
(3 2.284e-15 0)
(3 3.89345e-15 0)
(3 -3.15686e-16 0)
(3 3.58534e-15 0)
(3 1.75511e-15 0)
(3 -1.44069e-15 0)
(3 2.65076e-16 0)
(3 1.18045e-15 0)
(3 9.05343e-16 0)
(3 7.22322e-16 0)
(3 -1.34549e-15 0)
(3 1.75348e-15 0)
(3 5.78469e-15 0)
(3 2.46133e-15 0)
(3 9.77454e-16 0)
(3 2.46016e-15 0)
(3 2.15587e-15 0)
(3 1.71025e-15 0)
(3 2.24632e-15 0)
(2.82208 0.163452 0)
(0.992168 0.415729 0)
(0.748368 0.488917 0)
(0.6842 0.522942 0)
(0.612293 0.535335 0)
(0.547858 0.538438 0)
(0.503216 0.551254 0)
(0.474278 0.572573 0)
(0.452706 0.599911 0)
(0.422514 0.639901 0)
(0.376702 0.693994 0)
(0.311459 0.75947 0)
(0.210361 0.819997 0)
(0.0713543 0.867334 0)
(3 -1.79964e-15 0)
(3 5.27324e-16 0)
(3 -6.80228e-16 0)
(3 -8.42656e-16 0)
(3 -2.48012e-15 0)
(3 3.7642e-16 0)
(3 8.84916e-16 0)
(3 6.26972e-16 0)
(3 7.64885e-16 0)
(3 4.43957e-15 0)
(3 1.27957e-15 0)
(3 1.34652e-15 0)
(3 8.65641e-16 0)
(3 1.51574e-15 0)
(3 2.90057e-16 0)
(3 1.3217e-15 0)
(3 -1.34371e-16 0)
(3 -2.23107e-15 0)
(3 2.96832e-15 0)
(3 3.92438e-15 0)
(3 2.01402e-15 0)
(3 1.09655e-15 0)
(3 1.38034e-15 0)
(3 7.20715e-16 0)
(3 2.04668e-16 0)
(3 -5.19605e-15 0)
(2.90093 0.117773 0)
(1.02286 0.428407 0)
(0.742456 0.504752 0)
(0.679213 0.544766 0)
(0.60349 0.554565 0)
(0.540331 0.556819 0)
(0.501461 0.567393 0)
(0.481101 0.586745 0)
(0.467741 0.6153 0)
(0.443101 0.657596 0)
(0.401942 0.717605 0)
(0.341256 0.795482 0)
(0.239215 0.877064 0)
(0.0820717 0.940359 0)
(3 9.5872e-16 0)
(3 5.24938e-16 0)
(3 6.48066e-16 0)
(3 2.38864e-16 0)
(3 -9.82109e-16 0)
(3 -3.86744e-15 0)