/*--------------------------------*- C++ -*----------------------------------*\
  =========                 |
  \\      /  F ield         | OpenFOAM: The Open Source CFD Toolbox
   \\    /   O peration     | Website:  https://openfoam.org
    \\  /    A nd           | Version:  6.0
     \\/     M anipulation  |
\*---------------------------------------------------------------------------*/
FoamFile
{
    version     2.0;
    format      ascii;
    class       volScalarField;
    location    "3";
    object      p;
}
// * * * * * * * * * * * * * * * * * * * * * * * * * * * * * * * * * * * * * //

dimensions      [1 -1 -2 0 0 0 0];

internalField   nonuniform List<scalar> 
1200
(
1.00006
1.00029
1.00079
1.0019
1.00435
1.00978
1.02186
1.04889
1.10986
1.24992
1.58455
2.45099
5.04942
12.7632
12.6102
12.088
11.6897
11.7462
12.033
12.2246
1.00006
1.00029
1.00079
1.0019
1.00434
1.00977
1.02185
1.04886
1.10978
1.24974
1.58413
2.44996
5.0462
12.7522
12.5951
12.0666
11.6786
11.7437
12.0377
12.2236
1.00006
1.00029
1.00079
1.0019
1.00434
1.00975
1.02181
1.04879
1.10962
1.24937
1.58325
2.44773
5.03907
12.7257
12.5615
12.0213
11.6527
11.73
12.0379
12.2156
1.00006
1.00029
1.00079
1.00189
1.00433
1.00973
1.02176
1.04867
1.10936
1.24878
1.58185
2.4441
5.02734
12.6812
12.5101
11.9593
11.6166
11.705
12.0314
12.1984
1.00006
1.00029
1.00079
1.00188
1.00431
1.0097
1.02169
1.04851
1.10899
1.24794
1.57985
2.43888
5.01031
12.6175
12.4413
11.8851
11.5738
11.6729
12.0147
12.1731
1.00006
1.00029
1.00078
1.00188
1.00429
1.00965
1.02159
1.04829
1.1085
1.24682
1.57716
2.43182
4.98729
12.5334
12.3553
11.8004
11.5256
11.6341
11.9856
12.1388
1.00006
1.00028
1.00078
1.00186
1.00427
1.0096
1.02146
1.04801
1.10787
1.24537
1.57369
2.42267
4.95754
12.4278
12.2521
11.7072
11.4723
11.5884
11.9458
12.094
1.00005
1.00028
1.00077
1.00185
1.00423
1.00952
1.02131
1.04765
1.10708
1.24355
1.56931
2.41114
4.92024
12.2996
12.1314
11.6075
11.4148
11.5363
11.8946
12.0375
1.00005
1.00028
1.00077
1.00183
1.00419
1.00944
1.02111
1.04722
1.10609
1.24129
1.56389
2.39687
4.87444
12.1478
11.9933
11.5044
11.3532
11.4771
11.8302
11.9674
1.00005
1.00028
1.00076
1.00181
1.00415
1.00933
1.02087
1.04668
1.10489
1.23852
1.55725
2.3794
4.81893
11.9709
11.838
11.4015
11.2874
11.4106
11.7527
11.8837
1.00005
1.00027
1.00075
1.00179
1.00409
1.0092
1.02058
1.04603
1.10342
1.23515
1.54915
2.35814
4.75208
11.7667
11.6668
11.3048
11.217
11.3359
11.6603
11.7836
1.00005
1.00027
1.00073
1.00175
1.00402
1.00904
1.02022
1.04523
1.10163
1.23105
1.53932
2.33236
4.67165
11.531
11.4863
11.219
11.1401
11.252
11.553
11.6664
1.00005
1.00026
1.00072
1.00172
1.00393
1.00884
1.01979
1.04427
1.09948
1.2261
1.52743
2.30112
4.57443
11.2519
11.3241
11.1371
11.0557
11.1576
11.4284
11.5272
1.00005
1.00026
1.0007
1.00167
1.00383
1.00861
1.01928
1.04313
1.0969
1.22017
1.51317
2.26359
4.45776
10.9181
11.2014
11.0508
10.9638
11.053
11.2851
11.3635
1.00005
1.00025
1.00068
1.00162
1.00371
1.00834
1.01867
1.04177
1.09384
1.21313
1.49623
2.21905
4.32011
10.5287
11.1024
10.9723
10.8654
10.937
11.1185
11.1662
1.00005
1.00024
1.00065
1.00156
1.00357
1.00803
1.01796
1.04019
1.09026
1.20488
1.4764
2.16695
4.16048
10.0765
11.0255
10.9065
10.761
10.8094
10.9248
10.9285
1.00004
1.00023
1.00062
1.00149
1.0034
1.00766
1.01715
1.03836
1.08612
1.19534
1.45347
2.10687
3.9776
9.55383
10.9765
10.8534
10.6521
10.6671
10.6951
10.6321
1.00004
1.00021
1.00059
1.00141
1.00322
1.00725
1.01622
1.03627
1.0814
1.18447
1.42735
2.03855
3.77226
8.9542
10.9577
10.8114
10.5442
10.5057
10.432
10.2444
1.00004
1.0002
1.00055
1.00132
1.00302
1.00679
1.01519
1.03395
1.07613
1.17228
1.39807
1.96228
3.5445
8.28055
10.9593
10.7754
10.4412
10.3197
10.1239
9.72869
1.00004
1.00019
1.00051
1.00122
1.0028
1.00629
1.01407
1.03142
1.07039
1.159
1.36609
1.87873
3.29717
7.5994
10.968
10.7461
10.3473
10.1097
9.74848
9.02486
1.00003
1.00015
1.00041
1.00097
1.00221
1.00495
1.01103
1.02451
1.05455
1.12207
1.27674
1.64539
2.59659
5.22804
10.8864
10.6911
10.2265
9.57328
8.63571
6.53403
1.00002
1.00012
1.00032
1.00077
1.00176
1.00395
1.00881
1.0196
1.04367
1.09774
1.22117
1.51284
2.25246
4.35155
10.1868
10.2413
9.91223
9.1416
8.01099
5.97973
1.00002
1.0001
1.00027
1.00064
1.00145
1.00326
1.00729
1.01624
1.03621
1.08107
1.18325
1.42307
2.0223
3.70236
8.51883
9.33898
9.16648
8.62573
7.51904
6.00361
1.00001
1.00007
1.00019
1.00045
1.00102
1.00229
1.00508
1.01126
1.02495
1.05542
1.12381
1.28028
1.653
2.61696
5.17039
8.70967
8.56937
8.11919
7.18043
5.98437
1.00001
1.00004
1.00012
1.00029
1.00066
1.00148
1.00328
1.00727
1.0161
1.0357
1.07946
1.17844
1.40846
1.9739
3.46739
7.2461
7.68825
7.52374
7.0403
6.01099
1.00001
1.00003
1.00007
1.00017
1.00039
1.00087
1.00194
1.00428
1.00945
1.02086
1.04614
1.10252
1.23026
1.52911
2.27143
4.14469
7.1001
7.03792
6.76076
6.07256
1
1.00002
1.00004
1.0001
1.00024
1.00053
1.00117
1.00259
1.00573
1.01268
1.0281
1.06246
1.13983
1.31786
1.74633
2.84829
5.68298
6.41507
6.3197
5.99397
1
1.00001
1.00002
1.00005
1.00012
1.00027
1.00059
1.0013
1.00287
1.00632
1.01394
1.03077
1.06811
1.15181
1.34324
1.79688
2.88361
5.26517
5.77827
5.66773
1
1
1.00001
1.00002
1.00006
1.00012
1.00028
1.00061
1.00133
1.00291
1.00638
1.01399
1.03071
1.06758
1.14968
1.3357
1.76835
2.7924
4.93009
4.96934
1
1
1.00001
1.00001
1.00003
1.00006
1.00014
1.0003
1.00067
1.00146
1.00321
1.00704
1.01546
1.034
1.07502
1.16681
1.37661
1.87309
3.06385
4.03163
1
1
1
1
1.00001
1.00002
1.00005
1.00011
1.00025
1.00053
1.00115
1.00247
1.00529
1.01131
1.02419
1.05177
1.11129
1.2406
1.5209
1.96437
1
1
1
1
1
1.00001
1.00002
1.00005
1.0001
1.00023
1.00049
1.00107
1.00231
1.00501
1.01087
1.0236
1.05137
1.11237
1.2481
1.55462
1
1
1
1
1
1.00001
1.00001
1.00003
1.00006
1.00013
1.00029
1.00064
1.00142
1.00312
1.00689
1.01519
1.03361
1.07466
1.16755
1.38199
1
1
1
1
1
1
1.00001
1.00001
1.00003
1.00007
1.00014
1.00031
1.00068
1.0015
1.00328
1.00719
1.01577
1.03462
1.07628
1.16903
1
1
1
1
1
1
1
1.00001
1.00002
1.00005
1.00011
1.00024
1.00052
1.00116
1.00256
1.00568
1.0126
1.028
1.06246
1.14032
1
1
1
1
1
1
1
1.00001
1.00002
1.00004
1.00008
1.00018
1.0004
1.00089
1.00198
1.00441
1.00984
1.02201
1.04936
1.11149
1
1
1
1
1
1
1
1
1.00001
1.00002
1.00005
1.00011
1.00023
1.00051
1.00113
1.00248
1.00547
1.01207
1.02662
1.05899
1
1
1
1
1
1
1
1
1.00001
1.00002
1.00004
1.00009
1.00021
1.00047
1.00103
1.00229
1.00507
1.01125
1.02499
1.05578
1
1
1
1
1
1
1
1
1.00001
1.00002
1.00004
1.00009
1.00019
1.00043
1.00095
1.0021
1.00468
1.01043
1.02322
1.05193
1
1
1
1
1
1
1
1
1.00001
1.00002
1.00004
1.00008
1.00018
1.0004
1.00089
1.00197
1.00437
1.00967
1.02142
1.04767
2.93497
1.96806
1.86283
1.89537
1.99955
2.14333
2.19493
2.30516
2.553
3.19694
4.63043
4.54022
4.33462
4.27736
4.28407
4.30099
4.29625
4.26824
4.18864
4.07325
3.29277
2.33036
2.27001
2.14688
2.08208
2.10709
2.17042
2.30786
2.5962
3.21431
4.55893
4.48972
4.34982
4.26602
4.27255
4.30416
4.29593
4.26372
4.19066
4.05595
4.06473
3.0663
2.43309
2.11772
2.09901
2.11971
2.19064
2.34371
2.61199
3.17151
4.36812
4.45738
4.43924
4.44957
4.45109
4.41442
4.34101
4.24093
4.11423
4.02481
4.30738
3.25059
2.59566
2.21017
2.21178
2.22842
2.27317
2.37594
2.60058
3.09179
4.16843
4.57916
4.65228
4.63327
4.55676
4.39214
4.27019
4.14498
4.02438
3.97577
4.41433
3.44758
2.79655
2.39819
2.29923
2.30525
2.33443
2.4185
2.61696
3.05701
4.01686
4.81511
4.80295
4.73768
4.58414
4.39263
4.22465
4.08423
3.99671
3.86785
4.52548
3.62307
2.98496
2.57051
2.41374
2.42101
2.44869
2.52144
2.69122
3.06893
3.89138
4.90975
4.87003
4.76375
4.54539
4.3394
4.16766
4.00892
3.93087
3.78503
4.62428
3.76825
3.16603
2.76224
2.55788
2.56279
2.58445
2.64496
2.78896
3.10832
3.79569
4.80914
4.78099
4.69962
4.52833
4.28722
4.07715
3.9073
3.81242
3.68317
4.72505
3.91092
3.36459
2.98178
2.74556
2.74978
2.76947
2.82657
2.96285
3.24478
3.76084
4.50706
4.50351
4.48281
4.41858
4.28179
4.00505
3.80113
3.67259
3.62771
4.68732
4.09405
3.63987
3.23632
2.97197
2.97612
2.9967
3.05596
3.19817
3.50122
3.71364
4.04688
4.20724
4.20044
4.16902
4.09138
3.93477
3.73248
3.60588
3.54975
4.52791
4.3625
3.97556
3.49778
3.20271
3.20892
3.23541
3.30539
3.46266
3.61093
3.67837
3.75097
3.8241
3.83012
3.82545
3.80406
3.75511
3.68843
3.52388
3.48195
4.34112
4.31461
4.15679
3.7981
3.43244
3.43861
3.46689
3.5436
3.66569
3.66749
3.66429
3.64047
3.57029
3.53332
3.53411
3.53396
3.52673
3.50456
3.4478
3.43172
3.92153
4.20779
4.15477
4.00351
3.69504
3.70134
3.73172
3.80226
3.8028
3.7872
3.73204
3.59999
3.39734
3.29919
3.29974
3.30264
3.31184
3.32011
3.32448
3.33931
3.09969
4.16736
4.14954
4.10216
3.99958
4.01686
4.06927
4.0713
4.05772
4.00397
3.8723
3.58331
3.31567
3.14246
3.11237
3.11578
3.1277
3.15491
3.15448
3.17738
1.82394
4.05351
4.12877
4.28191
4.39822
4.48059
4.48702
4.47584
4.42164
4.27523
3.96011
3.57902
3.27073
3.05693
2.95138
2.95402
2.96513
2.99338
3.05225
3.05797
1.68267
3.74249
4.05826
4.65318
5.18822
5.18404
5.15363
5.06244
4.86077
4.52145
4.04343
3.59067
3.24557
2.99923
2.82947
2.81921
2.82546
2.84745
2.9008
3.00553
1.52515
3.15173
3.89482
5.41883
5.73708
5.70843
5.61762
5.41891
5.13545
4.68158
4.15362
3.61282
3.22844
2.95515
2.74959
2.69821
2.70209
2.71569
2.74951
2.82573
1.249
1.9539
3.52454
6.24868
6.23633
6.2051
6.14219
5.93274
5.44271
4.77472
4.20586
3.6319
3.21937
2.91838
2.69096
2.60136
2.60351
2.61276
2.63692
2.6904
1.23683
1.92287
3.56084
7.07031
7.06589
7.01679
6.86901
6.51727
5.84966
4.94783
4.26649
3.65065
3.21545
2.88892
2.64696
2.52424
2.52667
2.53619
2.55945
2.6078
1.21953
1.84142
3.41708
7.00132
7.65219
7.59779
7.40751
6.96419
6.04778
5.083
4.31805
3.66795
3.2135
2.87557
2.62587
2.46423
2.46469
2.47041
2.48776
2.52608
1.19962
1.76097
3.22033
6.69068
8.00936
7.94823
7.73469
7.21742
6.15483
5.16715
4.36582
3.69746
3.23293
2.88509
2.6285
2.44797
2.43908
2.44167
2.45031
2.47192
)
;

boundaryField
{
    inlet
    {
        type            fixedValue;
        value           uniform 1;
    }
    outlet
    {
        type            waveTransmissive;
        gamma           1.4;
        fieldInf        1;
        lInf            3;
        value           nonuniform List<scalar> 
20
(
3.98771
3.98453
3.96447
3.9061
3.80181
3.7058
3.62851
3.56605
3.46324
3.38666
3.34368
3.24059
3.13269
3.04702
2.93225
2.76527
2.64241
2.56448
2.48929
2.44205
)
;
    }
    top
    {
        type            symmetryPlane;
    }
    bottom
    {
        type            symmetryPlane;
    }
    step
    {
        type            zeroGradient;
    }
    defaultFaces
    {
        type            empty;
    }
}


// ************************************************************************* //
