/*--------------------------------*- C++ -*----------------------------------*\
  =========                 |
  \\      /  F ield         | OpenFOAM: The Open Source CFD Toolbox
   \\    /   O peration     | Website:  https://openfoam.org
    \\  /    A nd           | Version:  6.0
     \\/     M anipulation  |
\*---------------------------------------------------------------------------*/
FoamFile
{
    version     2.0;
    format      ascii;
    class       volScalarField;
    location    "3";
    object      p;
}
// * * * * * * * * * * * * * * * * * * * * * * * * * * * * * * * * * * * * * //

dimensions      [1 -1 -2 0 0 0 0];

internalField   nonuniform List<scalar> 
24000
(
0.704349
0.583663
0.535025
0.502521
0.477649
0.471762
0.47264
0.47732
0.492832
0.535756
0.64733
0.942775
1.7543
3.49908
3.60024
3.62015
3.68355
3.87896
4.40151
5.54953
0.704349
0.583661
0.535026
0.502514
0.47765
0.471726
0.4726
0.477267
0.49274
0.535566
0.646905
0.941702
1.75204
3.50026
3.60324
3.62282
3.68559
3.88076
4.4038
5.55097
0.704349
0.583658
0.535029
0.502498
0.477654
0.471651
0.472516
0.477152
0.492536
0.535137
0.645906
0.939017
1.74627
3.50045
3.60817
3.62733
3.68928
3.88341
4.40617
5.55515
0.704349
0.583653
0.535034
0.502474
0.477661
0.471531
0.472383
0.476969
0.492214
0.534454
0.644298
0.93465
1.73685
3.49963
3.61432
3.63311
3.69425
3.88723
4.40889
5.56209
0.70435
0.583645
0.535041
0.502439
0.47767
0.471365
0.472199
0.476715
0.491765
0.533499
0.64203
0.928447
1.72322
3.4967
3.62122
3.63976
3.70012
3.89159
4.41137
5.57088
0.704352
0.583634
0.535049
0.502395
0.477682
0.471151
0.471959
0.476386
0.491181
0.532252
0.639055
0.920306
1.70511
3.49124
3.62862
3.6469
3.70643
3.89615
4.41341
5.5808
0.704356
0.583621
0.535059
0.50234
0.477695
0.470886
0.471664
0.47598
0.490458
0.530703
0.635343
0.910156
1.68231
3.4832
3.63627
3.65419
3.71264
3.9003
4.41467
5.59149
0.704361
0.583605
0.535071
0.502275
0.47771
0.470571
0.471313
0.475495
0.489597
0.528853
0.630893
0.897996
1.6547
3.47265
3.64362
3.66097
3.71811
3.9036
4.41492
5.60202
0.704367
0.583587
0.535085
0.502199
0.477726
0.470206
0.470907
0.474939
0.488609
0.526735
0.625795
0.884036
1.62242
3.45944
3.64974
3.66639
3.72229
3.90581
4.414
5.61199
0.704374
0.583567
0.5351
0.502115
0.477742
0.4698
0.470456
0.474324
0.487532
0.52445
0.620339
0.869207
1.58707
3.43961
3.653
3.66965
3.72518
3.90741
4.41202
5.61944
0.704381
0.583545
0.535117
0.502023
0.477755
0.469359
0.469969
0.473673
0.486419
0.522158
0.615062
0.855977
1.55488
3.40257
3.65205
3.67014
3.72691
3.90864
4.40903
5.62243
0.704389
0.58352
0.535135
0.501923
0.477767
0.468887
0.469448
0.472978
0.485242
0.519761
0.609617
0.843139
1.52322
3.35022
3.64671
3.6677
3.72691
3.90849
4.40349
5.61794
0.704398
0.583493
0.535154
0.501816
0.477779
0.468379
0.468889
0.472237
0.483996
0.517237
0.60391
0.830092
1.49028
3.28886
3.63557
3.66094
3.72401
3.90569
4.39317
5.60411
0.704406
0.583465
0.535174
0.501701
0.477792
0.467833
0.468289
0.471445
0.482673
0.514579
0.597971
0.816414
1.45539
3.22073
3.62097
3.64978
3.71594
3.897
4.37418
5.57554
0.704413
0.583436
0.535194
0.501581
0.477807
0.467247
0.467647
0.4706
0.481269
0.51178
0.591788
0.802058
1.41838
3.14432
3.60237
3.63396
3.70158
3.8797
4.34348
5.52874
0.704418
0.583409
0.535213
0.501457
0.477826
0.466627
0.466966
0.469706
0.47979
0.508845
0.585333
0.787071
1.37896
3.05696
3.57986
3.61348
3.68102
3.85341
4.29753
5.45497
0.704427
0.583378
0.535236
0.501322
0.477848
0.465976
0.46625
0.468768
0.478246
0.505784
0.578577
0.77102
1.33636
2.95221
3.55303
3.58972
3.65294
3.81471
4.23032
5.34086
0.704452
0.583333
0.535264
0.501176
0.477878
0.465298
0.465504
0.467795
0.476651
0.502629
0.571571
0.754024
1.28899
2.82498
3.52251
3.56117
3.61729
3.76169
4.13451
5.16916
0.704484
0.583284
0.535296
0.501023
0.477919
0.464594
0.464728
0.466778
0.474977
0.49931
0.564182
0.735941
1.23751
2.67469
3.48724
3.5256
3.57087
3.6878
3.99616
4.90763
0.704522
0.583235
0.53533
0.500866
0.477975
0.463865
0.463911
0.465694
0.473192
0.495776
0.556275
0.716279
1.18063
2.49936
3.44703
3.48026
3.50876
3.58709
3.79935
4.49527
1.04764
1.0386
1.01483
0.979526
0.952592
0.951535
0.955868
0.973356
1.02308
1.1495
1.46597
2.30401
4.50931
7.69949
7.76823
7.79643
7.92679
8.36151
9.52545
11.0467
1.04764
1.0386
1.01483
0.979511
0.952581
0.951473
0.955792
0.973236
1.02284
1.14897
1.46471
2.30063
4.49913
7.69961
7.76945
7.79699
7.92661
8.35976
9.51758
11.0486
1.04763
1.0386
1.01482
0.979481
0.952561
0.951346
0.955639
0.97299
1.02236
1.14789
1.4621
2.29354
4.47762
7.69872
7.77077
7.7973
7.92564
8.35571
9.50261
11.0526
1.04763
1.03859
1.01481
0.979435
0.952531
0.95115
0.9554
0.97261
1.02161
1.14623
1.45806
2.28256
4.44454
7.69698
7.77134
7.79678
7.92368
8.35031
9.48155
11.0584
1.04763
1.03859
1.0148
0.979372
0.952491
0.950879
0.955072
0.972087
1.02058
1.14393
1.45248
2.26735
4.39844
7.69325
7.77108
7.79517
7.92023
8.3425
9.45443
11.0648
1.04762
1.03858
1.01479
0.979291
0.952439
0.950531
0.954651
0.971416
1.01925
1.14098
1.44526
2.24761
4.33854
7.68686
7.76978
7.79204
7.9147
8.33158
9.42086
11.0705
1.04761
1.03857
1.01477
0.97919
0.952374
0.950103
0.954132
0.970589
1.01762
1.13732
1.43633
2.22312
4.26427
7.67744
7.76688
7.78678
7.90643
8.31691
9.38067
11.0734
1.0476
1.03856
1.01475
0.97907
0.952297
0.949594
0.953517
0.969608
1.01568
1.13297
1.42567
2.19392
4.17569
7.66464
7.76105
7.77818
7.89445
8.29788
9.33354
11.072
1.04759
1.03854
1.01472
0.97893
0.952205
0.949007
0.952807
0.968479
1.01345
1.12799
1.41348
2.16056
4.07445
7.64654
7.75004
7.76489
7.87816
8.27427
9.2792
11.0642
1.04758
1.03853
1.0147
0.978773
0.952097
0.948348
0.952013
0.967225
1.01099
1.12253
1.40019
2.1245
3.96676
7.61296
7.73146
7.74589
7.8574
8.24595
9.21629
11.0458
1.04757
1.03851
1.01466
0.978599
0.951974
0.947629
0.951149
0.965871
1.00836
1.11677
1.38641
2.08833
3.87866
7.53845
7.7022
7.72059
7.8326
8.21331
9.14372
11.0098
1.04756
1.03849
1.01463
0.978409
0.951836
0.94685
0.950213
0.964405
1.00553
1.11057
1.37166
2.04876
3.78803
7.43907
7.66468
7.68855
7.80172
8.17438
9.06746
10.944
1.04754
1.03846
1.01459
0.978204
0.951683
0.946007
0.9492
0.962816
1.00244
1.10384
1.35568
2.00529
3.6866
7.32513
7.62159
7.64889
7.76239
8.1253
8.97792
10.8497
1.04752
1.03844
1.01455
0.977985
0.951518
0.945095
0.948102
0.961091
0.999093
1.09649
1.33821
1.95856
3.57484
7.19968
7.57295
7.60118
7.71274
8.06301
8.87109
10.7225
1.0475
1.03841
1.0145
0.977751
0.95135
0.944106
0.946917
0.95923
0.99547
1.08853
1.31923
1.90819
3.45385
7.06071
7.51709
7.54504
7.65233
7.9852
8.74193
10.5519
1.04749
1.03839
1.01445
0.977507
0.951178
0.943057
0.945658
0.957251
0.991616
1.08007
1.29917
1.85562
3.32432
6.90119
7.45282
7.4803
7.58081
7.89019
8.58444
10.3247
1.04747
1.03836
1.01441
0.977246
0.951012
0.941954
0.944339
0.955184
0.987597
1.07129
1.2785
1.80301
3.19197
6.70296
7.3789
7.40708
7.49826
7.7749
8.38971
10.0216
1.04747
1.03835
1.01437
0.976966
0.950859
0.940809
0.942974
0.953057
0.983484
1.06237
1.25775
1.75126
3.06511
6.45065
7.29379
7.32446
7.40368
7.63587
8.1467
9.61022
1.04747
1.03833
1.01433
0.97668
0.950723
0.939623
0.941556
0.950837
0.979191
1.05309
1.23628
1.69805
2.93216
6.15692
7.20284
7.23291
7.29301
7.46472
7.83957
9.05019
1.04747
1.03832
1.0143
0.9764
0.95062
0.938374
0.94006
0.948501
0.974707
1.04345
1.21407
1.64294
2.79063
5.81673
7.11159
7.13524
7.16006
7.24964
7.4452
8.25383
1.07481
1.13283
1.14662
1.14478
1.14041
1.14338
1.15537
1.1888
1.27179
1.4721
1.96892
3.31696
7.11472
10.2766
10.2674
10.2467
10.3866
10.912
12.3021
13.3562
1.07481
1.13283
1.14661
1.14477
1.14038
1.14334
1.1553
1.18866
1.27149
1.47143
1.96729
3.31243
7.10017
10.2754
10.2652
10.2441
10.385
10.9099
12.2873
13.3503
1.07481
1.13282
1.14659
1.14474
1.14032
1.14326
1.15515
1.18837
1.27089
1.47005
1.96392
3.30296
7.0696
10.2712
10.2594
10.2379
10.3799
10.9041
12.2549
13.3387
1.0748
1.13282
1.14655
1.14469
1.14024
1.14313
1.15493
1.18793
1.26996
1.46794
1.95872
3.28829
7.02235
10.2631
10.2499
10.2279
10.3709
10.8942
12.2077
13.3216
1.0748
1.13282
1.14651
1.14463
1.14012
1.14296
1.15462
1.18733
1.26868
1.46504
1.95155
3.26794
6.95686
10.2513
10.2368
10.2139
10.3574
10.8787
12.1477
13.2982
1.07479
1.13282
1.14645
1.14455
1.13997
1.14273
1.15422
1.18656
1.26704
1.46129
1.94225
3.24147
6.87161
10.2356
10.22
10.1953
10.3389
10.8565
12.0753
13.2674
1.07478
1.13283
1.14638
1.14445
1.13978
1.14246
1.15374
1.1856
1.26501
1.45666
1.93072
3.20853
6.76551
10.2161
10.1991
10.1714
10.3146
10.8266
11.9907
13.228
1.07476
1.13283
1.14629
1.14434
1.13956
1.14213
1.15316
1.18446
1.26259
1.45112
1.91692
3.16905
6.63837
10.1922
10.1728
10.1412
10.2835
10.7883
11.8937
13.1777
1.07475
1.13283
1.14619
1.1442
1.1393
1.14175
1.15249
1.18315
1.2598
1.44472
1.90098
3.12344
6.49169
10.1617
10.1391
10.1038
10.245
10.7411
11.7839
13.1144
1.07473
1.13283
1.14608
1.14404
1.13901
1.14133
1.15173
1.18167
1.25666
1.43757
1.8832
3.07276
6.33005
10.1179
10.0956
10.0589
10.199
10.6848
11.6593
13.0335
1.07471
1.13283
1.14595
1.14387
1.13868
1.14085
1.1509
1.18004
1.25321
1.42973
1.86388
3.01839
6.16431
10.0502
10.0396
10.0081
10.146
10.6217
11.5174
12.9296
1.07469
1.13283
1.14581
1.14368
1.13833
1.14033
1.14998
1.17824
1.24941
1.42108
1.84256
2.95863
5.98399
9.96351
9.97545
9.95108
10.0842
10.5465
11.3608
12.7984
1.07466
1.13283
1.14566
1.14347
1.13794
1.13976
1.14897
1.17627
1.2452
1.41149
1.81885
2.89225
5.78238
9.86267
9.90898
9.88441
10.0122
10.4565
11.1872
12.6344
1.07464
1.13284
1.14549
1.14325
1.13751
1.13914
1.14787
1.17409
1.24055
1.40087
1.79255
2.81867
5.55874
9.75264
9.83644
9.80912
9.92917
10.3492
10.9967
12.4263
1.07461
1.13284
1.14532
1.14301
1.13706
1.13848
1.14668
1.17172
1.23547
1.38922
1.76367
2.73792
5.31323
9.63299
9.75627
9.725
9.83507
10.2236
10.7846
12.1681
1.07458
1.13285
1.14513
1.14275
1.13658
1.13777
1.14541
1.16919
1.23
1.37664
1.73255
2.65114
5.05191
9.49488
9.66627
9.63114
9.72914
10.0773
10.5442
11.8457
1.07455
1.13286
1.14495
1.1425
1.13609
1.13706
1.1441
1.16653
1.22422
1.36338
1.70007
2.56253
4.79489
9.30823
9.56395
9.5287
9.61216
9.90748
10.2685
11.4457
1.07453
1.13288
1.14476
1.14224
1.1356
1.13634
1.14277
1.16378
1.21821
1.34969
1.66705
2.47456
4.57467
9.04486
9.44583
9.41836
9.48246
9.71123
9.94759
10.9362
1.0745
1.13291
1.14457
1.14199
1.13511
1.13562
1.14139
1.16089
1.21189
1.33534
1.63265
2.38342
4.34491
8.74096
9.32399
9.30395
9.33983
9.48253
9.57177
10.2829
1.07448
1.13294
1.14441
1.14175
1.13465
1.13487
1.13993
1.15784
1.20528
1.32044
1.5971
2.29001
4.10788
8.38503
9.21279
9.18877
9.18071
9.21476
9.12574
9.40823
1.04217
1.1064
1.13974
1.1584
1.17203
1.18293
1.20567
1.25552
1.36836
1.63239
2.28827
4.12138
9.6075
11.8734
11.7925
11.6616
11.7988
12.3535
13.4828
14.0546
1.04217
1.1064
1.13973
1.15839
1.17201
1.1829
1.2056
1.25539
1.36807
1.63173
2.28667
4.11685
9.5935
11.8687
11.7853
11.6565
11.7964
12.354
13.4607
14.0422
1.04216
1.1064
1.13972
1.15837
1.17196
1.18283
1.20547
1.25512
1.36748
1.63038
2.28332
4.10723
9.5628
11.8569
11.7695
11.6441
11.7883
12.3509
13.4108
14.015
1.04216
1.10641
1.13969
1.15834
1.17189
1.18272
1.20527
1.25471
1.36658
1.62828
2.2781
4.0921
9.51374
11.8375
11.7464
11.6248
11.7735
12.3413
13.3393
13.9733
1.04215
1.10641
1.13965
1.1583
1.17179
1.18257
1.205
1.25415
1.36533
1.62539
2.27083
4.07091
9.44443
11.8117
11.7166
11.5987
11.7516
12.3221
13.2507
13.9178
1.04215
1.10642
1.13961
1.15824
1.17167
1.18238
1.20466
1.25342
1.36372
1.62162
2.26134
4.0431
9.353
11.7797
11.6803
11.5652
11.7217
12.2922
13.1464
13.8483
1.04214
1.10643
1.13955
1.15818
1.17151
1.18215
1.20422
1.25252
1.36172
1.61694
2.24948
4.00823
9.2379
11.7421
11.6376
11.5239
11.6833
12.2505
13.027
13.7642
1.04212
1.10644
1.13948
1.1581
1.17133
1.18187
1.20371
1.25144
1.35932
1.61129
2.23516
3.96604
9.09842
11.6984
11.5877
11.4741
11.6357
12.1959
12.8922
13.6645
1.04211
1.10645
1.1394
1.15802
1.17112
1.18155
1.20311
1.25018
1.3565
1.60469
2.21838
3.9166
8.93476
11.6477
11.5296
11.4158
11.5788
12.1287
12.7421
13.5469
1.04209
1.10646
1.13931
1.15791
1.17088
1.18118
1.20242
1.24874
1.35329
1.59714
2.19921
3.8602
8.74797
11.5875
11.4625
11.3489
11.5121
12.0484
12.5757
13.4087
1.04208
1.10648
1.13921
1.1578
1.17061
1.18077
1.20165
1.24712
1.34966
1.58864
2.17764
3.79693
8.539
11.516
11.386
11.2748
11.4359
11.9556
12.3925
13.2473
1.04206
1.10649
1.1391
1.15768
1.17032
1.18031
1.20079
1.2453
1.34559
1.57907
2.15335
3.72592
8.30435
11.4346
11.3031
11.1929
11.3492
11.8476
12.1917
13.0602
1.04204
1.10651
1.13897
1.15754
1.17
1.17981
1.19984
1.24327
1.34102
1.56831
2.12599
3.64602
8.0402
11.3453
11.2167
11.1024
11.2516
11.7227
11.9731
12.8424
1.04201
1.10653
1.13884
1.15739
1.16965
1.17926
1.19878
1.24101
1.33592
1.55626
2.09533
3.55654
7.74522
11.25
11.1257
11.0037
11.1425
11.5798
11.7393
12.5832
1.04199
1.10656
1.1387
1.15724
1.16927
1.17866
1.19764
1.23853
1.33028
1.54288
2.06123
3.45719
7.41864
11.1494
11.0297
10.8972
11.0227
11.4168
11.4881
12.2772
1.04196
1.10659
1.13855
1.15709
1.16887
1.17804
1.19642
1.23585
1.32413
1.5282
2.02383
3.34861
7.06419
11.0382
10.9257
10.7832
10.892
11.2313
11.2161
11.9132
1.04193
1.10663
1.13839
1.15695
1.16843
1.17753
1.19518
1.23297
1.31745
1.51232
1.98365
3.23321
6.69337
10.9008
10.8112
10.6644
10.7519
11.0192
10.9159
11.4837
1.0419
1.10667
1.13822
1.15682
1.16798
1.17714
1.19394
1.22991
1.31029
1.4954
1.94118
3.11299
6.32151
10.7251
10.6823
10.5481
10.6032
10.7804
10.5797
10.9632
1.04187
1.10672
1.13806
1.15671
1.16753
1.17678
1.19266
1.22666
1.30263
1.47727
1.89592
2.98577
5.93061
10.5227
10.5528
10.4366
10.4472
10.5132
10.1999
10.3185
1.04184
1.10677
1.13792
1.15661
1.16713
1.17638
1.19129
1.2232
1.29451
1.45812
1.84824
2.85329
5.53208
10.2788
10.4458
10.3306
10.2787
10.2277
9.76983
9.46883
1.01496
1.05579
1.09191
1.11836
1.14097
1.15624
1.18594
1.24794
1.38408
1.69914
2.48695
4.75318
11.8023
12.9169
12.6965
12.4197
12.544
13.0928
13.6969
14.0045
1.01496
1.0558
1.09191
1.11835
1.14096
1.15622
1.18588
1.24783
1.38383
1.69858
2.48559
4.74927
11.791
12.907
12.6837
12.4125
12.5414
13.0936
13.6719
13.9906
1.01496
1.0558
1.0919
1.11834
1.14093
1.15617
1.18578
1.2476
1.38333
1.69742
2.48272
4.74083
11.7644
12.8845
12.6566
12.3945
12.531
13.0885
13.614
13.957
1.01496
1.0558
1.09188
1.11832
1.14088
1.1561
1.18562
1.24725
1.38255
1.69561
2.47817
4.72727
11.7197
12.8504
12.6184
12.3665
12.5108
13.0735
13.5311
13.9032
1.01496
1.05581
1.09186
1.1183
1.14082
1.156
1.1854
1.24677
1.38147
1.69307
2.47175
4.70797
11.6549
12.8063
12.5706
12.3293
12.4814
13.0449
13.4301
13.8316
1.01495
1.05581
1.09184
1.11828
1.14074
1.15588
1.18512
1.24614
1.38006
1.68975
2.46328
4.68232
11.5681
12.753
12.5138
12.2828
12.4418
13.0025
13.3133
13.7422
1.01495
1.05582
1.0918
1.11824
1.14065
1.15573
1.18477
1.24536
1.37829
1.68557
2.45256
4.64975
11.4576
12.6912
12.4485
12.227
12.3918
12.9455
13.1806
13.6354
1.01494
1.05583
1.09177
1.1182
1.14053
1.15555
1.18434
1.24441
1.37614
1.68048
2.43946
4.60985
11.3224
12.621
12.375
12.1619
12.3309
12.8737
13.0342
13.5097
1.01493
1.05584
1.09172
1.11815
1.1404
1.15534
1.18384
1.24328
1.37359
1.67443
2.42386
4.56235
11.1617
12.5424
12.2932
12.0877
12.2592
12.7869
12.8721
13.3651
1.01492
1.05585
1.09167
1.1181
1.14025
1.15509
1.18326
1.24198
1.37062
1.66738
2.40566
4.50699
10.9746
12.4556
12.2038
12.0048
12.1766
12.6855
12.6963
13.199
1.01492
1.05587
1.09162
1.11804
1.14009
1.15482
1.1826
1.24048
1.36721
1.65927
2.38471
4.4433
10.7593
12.3614
12.1081
11.9139
12.083
12.5686
12.5045
13.0117
1.01491
1.05588
1.09156
1.11797
1.1399
1.15452
1.18186
1.23878
1.36332
1.64999
2.36074
4.37061
10.5141
12.261
12.0075
11.815
11.9784
12.4365
12.2986
12.7995
1.01489
1.0559
1.09149
1.1179
1.1397
1.15419
1.18102
1.23686
1.3589
1.63945
2.33344
4.28804
10.2368
12.1555
11.9037
11.7083
11.8623
12.2875
12.0755
12.5603
1.01488
1.05592
1.09141
1.11782
1.13948
1.15384
1.1801
1.23471
1.35392
1.62751
2.30254
4.19484
9.92511
12.0462
11.7971
11.5945
11.7357
12.1214
11.8399
12.2858
1.01487
1.05594
1.09133
1.11775
1.13923
1.15347
1.17909
1.23232
1.34834
1.6141
2.26778
4.09035
9.57719
11.9348
11.6884
11.4739
11.5985
11.9345
11.5882
11.9727
1.01485
1.05597
1.09124
1.11768
1.13896
1.1531
1.17802
1.2297
1.34215
1.59914
2.22901
3.97433
9.19229
11.8215
11.5763
11.3482
11.4523
11.7255
11.3227
11.6097
1.01484
1.056
1.09114
1.11764
1.13865
1.15282
1.17692
1.22685
1.33531
1.58258
2.18617
3.84691
8.77107
11.7048
11.4601
11.2204
11.2986
11.4911
11.0325
11.1907
1.01482
1.05604
1.09103
1.11761
1.13832
1.15262
1.17581
1.22378
1.32781
1.56438
2.13924
3.70837
8.31381
11.5843
11.3407
11.0968
11.1395
11.2345
10.7119
10.6923
1.0148
1.05608
1.09092
1.11759
1.13798
1.15246
1.17464
1.22045
1.3196
1.54443
2.08794
3.55747
7.81601
11.4607
11.2261
10.9821
10.9746
10.9568
10.3516
10.0791
1.01479
1.05612
1.09082
1.11758
1.13769
1.1523
1.17338
1.21685
1.31072
1.52284
2.03242
3.39485
7.28542
11.328
11.1286
10.8825
10.802
10.6677
9.94699
9.27171
1.00391
1.02017
1.04456
1.06776
1.09132
1.10841
1.14191
1.21156
1.36334
1.71408
2.60069
5.22009
13.5603
13.6944
13.1716
12.7516
12.856
13.3359
13.5143
13.6947
1.00391
1.02017
1.04456
1.06776
1.09131
1.1084
1.14188
1.21147
1.36315
1.71364
2.59964
5.21697
13.5508
13.679
13.1542
12.7425
12.8533
13.3356
13.4898
13.6813
1.00391
1.02017
1.04456
1.06775
1.0913
1.10837
1.1418
1.2113
1.36275
1.71273
2.59739
5.21013
13.527
13.6461
13.1172
12.7188
12.8399
13.3262
13.4309
13.646
1.00391
1.02017
1.04455
1.06775
1.09128
1.10832
1.14169
1.21103
1.36214
1.7113
2.59376
5.19888
13.4857
13.5982
13.0652
12.6821
12.8135
13.303
13.3473
13.5867
1.00391
1.02017
1.04454
1.06774
1.09125
1.10827
1.14153
1.21066
1.36128
1.70927
2.58855
5.18254
13.4248
13.537
13.0009
12.6348
12.7757
13.2639
13.2473
13.5088
1.00391
1.02017
1.04453
1.06772
1.09121
1.10819
1.14132
1.21016
1.36014
1.70657
2.58157
5.16047
13.3428
13.4634
12.9257
12.5772
12.7265
13.2094
13.1348
13.4117
1.00391
1.02017
1.04452
1.06771
1.09116
1.1081
1.14105
1.20954
1.35869
1.70312
2.57262
5.13206
13.2383
13.378
12.8405
12.5098
12.6655
13.1393
13.0081
13.2974
1.00391
1.02018
1.04451
1.06769
1.09111
1.10799
1.14073
1.20877
1.35691
1.69887
2.56152
5.09675
13.1104
13.2814
12.7464
12.433
12.5931
13.0538
12.8697
13.165
1.00391
1.02018
1.04449
1.06767
1.09104
1.10786
1.14035
1.20785
1.35477
1.69375
2.54809
5.05413
12.9579
13.1738
12.644
12.3475
12.5094
12.9529
12.7174
13.0161
1.00391
1.02018
1.04447
1.06764
1.09097
1.1077
1.1399
1.20676
1.35224
1.68767
2.53217
5.00367
12.7798
13.0561
12.5351
12.2537
12.4147
12.8373
12.554
12.8491
1.00391
1.02018
1.04445
1.06762
1.09089
1.10753
1.13938
1.20549
1.34928
1.68056
2.51352
4.94476
12.5744
12.9284
12.4221
12.1524
12.3091
12.7061
12.3761
12.6645
1.00391
1.02019
1.04442
1.06758
1.0908
1.10733
1.13878
1.20404
1.34586
1.67233
2.49192
4.87678
12.3407
12.7922
12.3058
12.0437
12.1929
12.5605
12.1868
12.4573
1.00391
1.02019
1.04439
1.06755
1.09069
1.10712
1.1381
1.20237
1.34194
1.66287
2.46707
4.799
12.077
12.6485
12.1875
11.9282
12.0663
12.3985
11.9825
12.2278
1.00391
1.0202
1.04436
1.06752
1.09057
1.1069
1.13735
1.20048
1.33746
1.65205
2.43866
4.71061
11.7813
12.4987
12.0686
11.8067
11.9306
12.2194
11.7674
11.9691
1.00391
1.0202
1.04433
1.06749
1.09043
1.1067
1.13654
1.19836
1.33238
1.63973
2.40634
4.61068
11.4512
12.3453
11.9511
11.6799
11.7856
12.0195
11.5377
11.6792
1.00391
1.02021
1.04428
1.06748
1.09027
1.10651
1.13566
1.196
1.32666
1.62579
2.36975
4.49819
11.0836
12.1924
11.8352
11.5498
11.6332
11.8009
11.2927
11.3459
1.00392
1.02022
1.04423
1.06747
1.09009
1.10636
1.13472
1.19338
1.32022
1.61004
2.32844
4.37173
10.6718
12.0521
11.7195
11.4193
11.475
11.5624
11.0221
10.9599
1.00392
1.02023
1.04417
1.06748
1.08988
1.10624
1.13371
1.19047
1.31301
1.59234
2.28199
4.23018
10.209
11.9297
11.6075
11.2941
11.3117
11.3086
10.7186
10.4957
1.00392
1.02024
1.04411
1.0675
1.08966
1.10614
1.13262
1.18725
1.30495
1.57252
2.22997
4.072
9.68931
11.8226
11.5087
11.1811
11.1424
11.0396
10.3681
9.91728
1.00392
1.02025
1.04405
1.06752
1.08946
1.10605
1.13143
1.1837
1.29605
1.55054
2.17212
3.89617
9.10488
11.7353
11.4284
11.0823
10.9674
10.7528
9.97033
9.14505
1.00094
1.00524
1.01471
1.02959
1.0482
1.06539
1.10001
1.17256
1.33197
1.70357
2.65501
5.53525
14.8614
14.3477
13.3448
12.8201
12.8973
13.2606
13.2153
13.3374
1.00094
1.00524
1.01471
1.02959
1.0482
1.06538
1.09999
1.1725
1.33183
1.70325
2.65424
5.53286
14.8518
14.3294
13.3241
12.8086
12.8934
13.2596
13.196
13.3277
1.00094
1.00524
1.01471
1.02959
1.04819
1.06536
1.09994
1.17238
1.33154
1.70258
2.65257
5.52751
14.8277
14.2911
13.2788
12.7787
12.875
13.2459
13.1456
13.298
1.00094
1.00524
1.01471
1.02959
1.04818
1.06533
1.09985
1.17218
1.33109
1.7015
2.64983
5.51847
14.786
14.2358
13.2152
12.7334
12.8403
13.2152
13.0728
13.2441
1.00094
1.00524
1.01471
1.02958
1.04817
1.06529
1.09974
1.1719
1.33044
1.69996
2.64582
5.50505
14.7251
14.1648
13.1372
12.6767
12.7932
13.1679
12.9871
13.1731
1.00094
1.00524
1.01471
1.02958
1.04815
1.06523
1.09958
1.17153
1.32957
1.69787
2.64036
5.48659
14.6438
14.0789
13.0468
12.6097
12.7343
13.1054
12.8914
13.0851
1.00094
1.00524
1.0147
1.02957
1.04814
1.06516
1.09938
1.17105
1.32845
1.69517
2.63325
5.46251
14.5412
13.9785
12.9455
12.5332
12.6638
13.0277
12.7846
12.9814
1.00094
1.00523
1.0147
1.02956
1.04811
1.06506
1.09914
1.17046
1.32705
1.69178
2.62429
5.4322
14.4165
13.8641
12.8347
12.4478
12.5823
12.9348
12.6671
12.8627
1.00094
1.00523
1.0147
1.02955
1.04809
1.06495
1.09884
1.16974
1.32534
1.68764
2.6133
5.39516
14.269
13.7359
12.7158
12.3546
12.4904
12.8273
12.5385
12.7288
1.00094
1.00523
1.01469
1.02954
1.04805
1.06482
1.09848
1.16887
1.32329
1.68265
2.60005
5.3508
14.098
13.5938
12.5912
12.254
12.3882
12.7051
12.399
12.5805
1.00094
1.00523
1.01469
1.02952
1.04802
1.06467
1.09806
1.16785
1.32086
1.67673
2.5843
5.29852
13.9025
13.4363
12.4648
12.1471
12.2766
12.5684
12.2476
12.4158
1.00094
1.00523
1.01468
1.0295
1.04798
1.06449
1.09757
1.16665
1.31802
1.6698
2.56583
5.23777
13.6821
13.2647
12.3368
12.0339
12.156
12.4171
12.084
12.2333
1.00094
1.00523
1.01467
1.02949
1.04793
1.06428
1.09701
1.16527
1.31473
1.66176
2.54439
5.16786
13.4355
13.0798
12.2089
11.9151
12.0271
12.2504
11.9067
12.0304
1.00094
1.00522
1.01466
1.02947
1.04787
1.06408
1.09638
1.16368
1.31092
1.65246
2.51963
5.08799
13.1615
12.8822
12.0828
11.7916
11.891
12.0668
11.7153
11.8037
1.00094
1.00522
1.01465
1.02945
1.04779
1.06391
1.09569
1.16187
1.30654
1.64176
2.49118
4.9971
12.8579
12.6736
11.9621
11.6641
11.7477
11.8664
11.5068
11.5474
1.00094
1.00522
1.01463
1.02944
1.0477
1.06374
1.09491
1.1598
1.30153
1.62948
2.45855
4.89376
12.5219
12.4591
11.848
11.5348
11.5976
11.6519
11.2771
11.2496
1.00094
1.00521
1.01461
1.02943
1.04759
1.06355
1.09404
1.15745
1.2958
1.6154
2.42114
4.77598
12.144
12.2632
11.7334
11.4066
11.4409
11.4274
11.0167
10.8931
1.00094
1.00521
1.01459
1.02943
1.04746
1.06336
1.09307
1.15479
1.28927
1.5993
2.37835
4.64189
11.7163
12.0946
11.623
11.2859
11.2779
11.193
10.7137
10.4541
1.00094
1.0052
1.01456
1.02942
1.04733
1.06316
1.09198
1.15178
1.28184
1.58096
2.32952
4.48937
11.2304
11.9438
11.5387
11.1794
11.1114
10.9359
10.3606
9.89276
1.00094
1.00519
1.01454
1.02942
1.04719
1.06294
1.09076
1.14841
1.27348
1.56022
2.27406
4.31593
10.6638
11.8291
11.483
11.0822
10.936
10.6547
9.95165
9.12792
1.00019
1.00109
1.00351
1.00923
1.02092
1.0373
1.07096
1.14306
1.30418
1.68472
2.67183
5.72821
15.7699
14.8412
13.4054
12.7535
12.7955
13.0249
12.9502
13.0527
1.00019
1.00109
1.00351
1.00923
1.02092
1.03729
1.07094
1.14301
1.30408
1.68449
2.67129
5.72646
15.7595
14.8215
13.3823
12.7386
12.7893
13.0222
12.9381
13.048
1.00019
1.00109
1.00351
1.00923
1.02091
1.03728
1.0709
1.14292
1.30387
1.684
2.67008
5.72234
15.7339
14.7802
13.3314
12.7016
12.7645
13.0036
12.9018
13.0271
1.00019
1.00109
1.00351
1.00923
1.02091
1.03725
1.07084
1.14278
1.30354
1.68321
2.66805
5.71512
15.6902
14.7207
13.2595
12.6478
12.7211
12.9656
12.8456
12.986
1.00019
1.00109
1.00351
1.00922
1.0209
1.03722
1.07075
1.14257
1.30305
1.68205
2.66503
5.70411
15.6272
14.6445
13.1718
12.5828
12.6654
12.9132
12.779
12.9289
1.00019
1.00109
1.00351
1.00922
1.02089
1.03717
1.07064
1.14229
1.30239
1.68046
2.66085
5.68869
15.5439
14.5521
13.0707
12.5082
12.5986
12.8473
12.7031
12.8583
1.00019
1.00109
1.00351
1.00921
1.02088
1.03711
1.07048
1.14192
1.30153
1.67837
2.65531
5.66822
15.4398
14.444
12.9578
12.4246
12.5213
12.7683
12.6173
12.774
1.00019
1.00109
1.0035
1.00921
1.02086
1.03704
1.07028
1.14145
1.30043
1.67571
2.64822
5.64212
15.3142
14.3207
12.8351
12.3332
12.4338
12.676
12.5208
12.6766
1.00019
1.00109
1.0035
1.0092
1.02084
1.03695
1.07004
1.14088
1.29908
1.6724
2.63938
5.6098
15.1669
14.1824
12.7041
12.2348
12.3374
12.5713
12.4137
12.5649
1.00019
1.00108
1.00349
1.00918
1.02081
1.03684
1.06975
1.14017
1.29742
1.66836
2.62856
5.57067
14.9973
14.0288
12.5668
12.1304
12.2325
12.4541
12.2952
12.4399
1.00019
1.00108
1.00349
1.00917
1.02078
1.0367
1.06939
1.13933
1.29543
1.6635
2.61548
5.52423
14.8051
13.8589
12.426
12.0205
12.12
12.3243
12.1644
12.2988
1.00019
1.00108
1.00348
1.00915
1.02075
1.03654
1.06898
1.13834
1.29308
1.65776
2.59999
5.46993
14.59
13.673
12.2828
11.9058
12.0007
12.1808
12.0202
12.1411
1.00019
1.00108
1.00347
1.00913
1.0207
1.03635
1.06849
1.13717
1.29033
1.65102
2.58181
5.40715
14.3514
13.4713
12.1386
11.787
11.8756
12.0226
11.8607
11.9624
1.00019
1.00107
1.00346
1.00911
1.02065
1.03614
1.06793
1.13582
1.28712
1.64316
2.56063
5.33515
14.0882
13.254
11.9958
11.6651
11.7449
11.8495
11.6844
11.7604
1.00019
1.00107
1.00345
1.00908
1.02058
1.0359
1.06729
1.13426
1.2834
1.63402
2.53607
5.25297
13.7995
13.0221
11.8573
11.5406
11.6083
11.6621
11.4871
11.5262
1.00019
1.00106
1.00344
1.00905
1.0205
1.03563
1.06656
1.13246
1.27908
1.62342
2.50761
5.15926
13.4831
12.78
11.725
11.416
11.4654
11.4637
11.2637
11.2499
1.00019
1.00105
1.00342
1.00901
1.02041
1.03531
1.06571
1.13039
1.27409
1.61113
2.47466
5.05214
13.1342
12.5388
11.5997
11.2942
11.314
11.2623
11.0016
10.9086
1.00018
1.00105
1.0034
1.00896
1.0203
1.03494
1.06473
1.12799
1.26833
1.59693
2.43658
4.92954
12.7469
12.3032
11.4905
11.183
11.158
11.0436
10.6946
10.4791
1.00018
1.00104
1.00337
1.00891
1.02018
1.03452
1.06362
1.12524
1.2617
1.58055
2.3926
4.7889
12.3106
12.0709
11.4229
11.0853
10.9981
10.7956
10.3346
9.91725
1.00018
1.00103
1.00335
1.00885
1.02005
1.03405
1.06236
1.12212
1.25414
1.5618
2.34194
4.62683
11.7967
11.8733
11.3985
10.9927
10.824
10.5186
9.91402
9.1407
1.00006
1.00034
1.00115
1.00352
1.00971
1.0238
1.0551
1.12503
1.28491
1.6677
2.6704
5.8326
16.3475
15.1644
13.4238
12.6493
12.6482
12.7704
12.7633
12.8681
1.00006
1.00034
1.00115
1.00352
1.0097
1.0238
1.05509
1.12499
1.28484
1.66752
2.66999
5.83131
16.3363
15.1436
13.3997
12.6305
12.6404
12.7671
12.7576
12.8685
1.00006
1.00034
1.00114
1.00352
1.0097
1.02379
1.05506
1.12492
1.28468
1.66715
2.66907
5.82809
16.3093
15.1003
13.3458
12.5862
12.6111
12.7463
12.7335
12.857
1.00006
1.00034
1.00114
1.00352
1.00969
1.02377
1.05501
1.12481
1.28442
1.66653
2.6675
5.8222
16.2636
15.0381
13.2694
12.5249
12.561
12.7064
12.6915
12.8302
1.00006
1.00034
1.00114
1.00351
1.00968
1.02374
1.05494
1.12465
1.28404
1.66562
2.66513
5.81297
16.1984
14.9587
13.1762
12.4533
12.4995
12.655
12.6398
12.7885
1.00006
1.00033
1.00114
1.0035
1.00966
1.0237
1.05484
1.12442
1.28351
1.66436
2.66182
5.79984
16.113
14.8624
13.069
12.3729
12.4282
12.5925
12.5786
12.7354
1.00006
1.00033
1.00113
1.0035
1.00964
1.02364
1.05471
1.12412
1.28282
1.66269
2.65736
5.78208
16.0068
14.7499
12.9497
12.2846
12.3478
12.519
12.5074
12.6697
1.00006
1.00033
1.00113
1.00348
1.00961
1.02357
1.05455
1.12374
1.28193
1.66052
2.65157
5.75908
15.8796
14.6217
12.8201
12.1893
12.2588
12.4342
12.4252
12.5916
1.00006
1.00033
1.00112
1.00347
1.00958
1.02349
1.05435
1.12326
1.28081
1.65779
2.64423
5.73016
15.7307
14.4787
12.6815
12.0881
12.1623
12.3389
12.3317
12.4989
1.00006
1.00033
1.00112
1.00345
1.00954
1.02338
1.0541
1.12267
1.27942
1.65441
2.63514
5.69475
15.5602
14.321
12.5357
11.9818
12.0587
12.2324
12.2264
12.3923
1.00006
1.00032
1.00111
1.00343
1.00948
1.02326
1.05379
1.12196
1.27774
1.6503
2.62406
5.65237
15.3677
14.1479
12.3843
11.871
11.9488
12.1148
12.1076
12.2684
1.00006
1.00032
1.0011
1.00341
1.00942
1.0231
1.05342
1.1211
1.27573
1.64538
2.61079
5.6025
15.1533
13.9591
12.2289
11.7567
11.8334
11.9845
11.9747
12.1272
1.00006
1.00032
1.00109
1.00337
1.00935
1.02292
1.05299
1.12009
1.27336
1.63956
2.5951
5.54461
14.9163
13.7545
12.0709
11.6395
11.7139
11.8401
11.8245
11.9634
1.00005
1.00031
1.00107
1.00334
1.00926
1.02271
1.05248
1.1189
1.27056
1.63272
2.57669
5.47808
14.6566
13.5332
11.9133
11.5204
11.59
11.6813
11.6557
11.7745
1.00005
1.0003
1.00105
1.00329
1.00916
1.02245
1.05188
1.11751
1.26729
1.62471
2.55519
5.40205
14.3733
13.2956
11.7586
11.4001
11.4612
11.5088
11.463
11.5507
1.00005
1.0003
1.00103
1.00324
1.00903
1.02216
1.05118
1.11588
1.26347
1.61535
2.53006
5.31542
14.0653
13.0437
11.6104
11.2809
11.3264
11.325
11.2407
11.2833
1.00005
1.00029
1.00101
1.00318
1.00889
1.02181
1.05036
1.11398
1.25901
1.60447
2.50078
5.21661
13.7305
12.7801
11.4736
11.166
11.1826
11.1368
10.9745
10.9492
1.00005
1.00028
1.00098
1.00311
1.00872
1.0214
1.04941
1.11178
1.25383
1.59179
2.46669
5.10364
13.3644
12.5089
11.3584
11.0634
11.0348
10.9263
10.662
10.5207
1.00005
1.00026
1.00094
1.00303
1.00853
1.02094
1.04832
1.10922
1.24783
1.57708
2.42705
4.97392
12.9585
12.2348
11.282
10.9738
10.8812
10.6822
10.2963
9.95254
1.00004
1.00025
1.00091
1.00294
1.00831
1.0204
1.04706
1.1063
1.24093
1.56009
2.38107
4.82406
12.4885
11.9894
11.2503
10.8884
10.7091
10.4053
9.86944
9.16125
1.00006
1.00033
1.00102
1.00285
1.00768
1.0199
1.04909
1.11695
1.27523
1.65789
2.6657
5.87625
16.6285
15.3235
13.4277
12.5816
12.5482
12.616
12.6653
12.7818
1.00006
1.00033
1.00102
1.00285
1.00768
1.0199
1.04907
1.11692
1.27517
1.65774
2.66535
5.87522
16.6169
15.3021
13.4035
12.5594
12.54
12.6123
12.6628
12.787
1.00006
1.00033
1.00102
1.00285
1.00768
1.01988
1.04905
1.11686
1.27503
1.65742
2.66456
5.87248
16.5889
15.2577
13.3486
12.5095
12.5094
12.5902
12.6444
12.7823
1.00006
1.00033
1.00102
1.00284
1.00767
1.01986
1.049
1.11676
1.2748