/*--------------------------------*- C++ -*----------------------------------*\
  =========                 |
  \\      /  F ield         | OpenFOAM: The Open Source CFD Toolbox
   \\    /   O peration     | Website:  https://openfoam.org
    \\  /    A nd           | Version:  6.0
     \\/     M anipulation  |
\*---------------------------------------------------------------------------*/
FoamFile
{
    version     2.0;
    format      ascii;
    class       surfaceScalarField;
    location    "3";
    object      phi;
}
// * * * * * * * * * * * * * * * * * * * * * * * * * * * * * * * * * * * * * //

dimensions      [1 0 -1 0 0 0 0];

internalField   nonuniform List<scalar> 
69200
(
0.000164383
-1.12331e-11
4.67092e-05
0.000147709
1.87736e-10
1.66772e-05
0.000140642
-1.04987e-11
7.06318e-06
0.000135258
1.04428e-09
5.39125e-06
0.000131936
6.79631e-10
3.31622e-06
0.000130217
5.76614e-09
1.73507e-06
0.000127747
1.15219e-08
2.48302e-06
0.000124845
1.93157e-08
2.91393e-06
0.000122137
3.33371e-08
2.72533e-06
0.000120507
6.47483e-08
1.64932e-06
0.000121754
1.44914e-07
-1.13161e-06
0.000131425
3.96972e-07
-1.02966e-05
0.000185508
1.33006e-06
-5.51243e-05
0.000203774
2.12761e-06
-1.94707e-05
0.000196961
1.59479e-06
5.42568e-06
0.00018606
1.06465e-06
1.04282e-05
0.00016888
6.54458e-07
1.70951e-05
0.000140714
2.30858e-07
2.8152e-05
0.000148065
-1.66402e-07
-7.54106e-06
-7.93624e-07
0.000147576
0.000164383
-9.15469e-12
4.67094e-05
0.000147709
4.04088e-10
1.6677e-05
0.000140641
-1.39176e-11
7.0635e-06
0.000135258
2.19463e-09
5.39091e-06
0.000131934
1.49212e-09
3.3177e-06
0.000130216
1.21497e-08
1.73443e-06
0.000127747
2.41412e-08
2.47984e-06
0.000124847
4.07378e-08
2.90967e-06
0.00012214
7.12506e-08
2.72145e-06
0.000120502
1.40975e-07
1.64842e-06
0.000121741
3.24781e-07
-1.15987e-06
0.000131222
9.12918e-07
-1.02056e-05
0.000184374
2.95247e-06
-5.44595e-05
0.00020306
5.25737e-06
-2.09519e-05
0.000196227
4.0968e-06
4.54599e-06
0.000185244
3.09059e-06
9.48991e-06
0.000167821
2.33563e-06
1.62703e-05
0.000138769
1.7641e-06
2.77548e-05
0.000146131
1.66373e-06
-9.51533e-06
2.82227e-07
0.000143844
0.000164383
-8.15987e-12
4.67099e-05
0.00014771
6.571e-10
1.66765e-05
0.000140641
-5.86753e-12
7.06427e-06
0.000135258
3.42863e-09
5.39028e-06
0.00013193
2.40748e-09
3.32092e-06
0.000130213
1.90801e-08
1.7333e-06
0.000127749
3.78109e-08
2.47447e-06
0.000124855
6.40394e-08
2.90295e-06
0.000122149
1.12772e-07
2.71647e-06
0.000120503
2.24848e-07
1.65084e-06
0.000121753
5.22674e-07
-1.19275e-06
0.000130796
1.46868e-06
-9.78575e-06
0.000182147
4.69659e-06
-5.27358e-05
0.000202345
8.90665e-06
-2.31e-05
0.000195598
7.33326e-06
3.70698e-06
0.000184633
5.90088e-06
8.64562e-06
0.00016707
4.80841e-06
1.55794e-05
0.000137619
4.12656e-06
2.73546e-05
0.000144734
4.46607e-06
-1.01854e-05
2.99381e-06
0.000140884
0.000164383
-5.10804e-11
4.67106e-05
0.00014771
9.44598e-10
1.66756e-05
0.000140639
1.03865e-11
7.06563e-06
0.000135257
4.77583e-09
5.38925e-06
0.000131925
3.38725e-09
3.32595e-06
0.000130209
2.66154e-08
1.73143e-06
0.000127753
5.26112e-08
2.4665e-06
0.000124867
8.92009e-08
2.89318e-06
0.000122166
1.57505e-07
2.70934e-06
0.00012051
3.15059e-07
1.65442e-06
0.000121777
7.35598e-07
-1.23308e-06
0.000130116
2.0624e-06
-9.09611e-06
0.000178733
6.56766e-06
-5.00655e-05
0.000201505
1.29531e-05
-2.6163e-05
0.000194911
1.11572e-05
2.90685e-06
0.000184049
9.34949e-06
7.84019e-06
0.000166466
7.94141e-06
1.49079e-05
0.000136985
7.18866e-06
2.67669e-05
0.000143183
7.99196e-06
-9.91656e-06
7.14364e-06
0.000137974
0.000164382
-1.8625e-10
4.67116e-05
0.000147711
1.23572e-09
1.66743e-05
0.000140638
3.98387e-11
7.06776e-06
0.000135257
6.22562e-09
5.38776e-06
0.000131917
4.48603e-09
3.33291e-06
0.000130205
3.46576e-08
1.7287e-06
0.000127759
6.84672e-08
2.45565e-06
0.000124885
1.16195e-07
2.88e-06
0.000122191
2.05456e-07
2.69975e-06
0.000120526
4.11651e-07
1.65892e-06
0.000121816
9.6333e-07
-1.27741e-06
0.000129194
2.6907e-06
-8.14421e-06
0.000174116
8.52339e-06
-4.63905e-05
0.000200477
1.73818e-05
-3.01849e-05
0.000194118
1.54603e-05
2.11735e-06
0.000183471
1.33466e-05
6.98865e-06
0.00016595
1.1675e-05
1.41889e-05
0.000136771
1.09124e-05
2.58957e-05
0.000141408
1.2125e-05
-8.83913e-06
1.24964e-05
0.000135087
0.00016438
-4.00919e-10
4.67133e-05
0.000147712
1.4795e-09
1.66722e-05
0.000140637
5.51466e-11
7.07071e-06
0.000135257
7.72205e-09
5.38587e-06
0.000131907
5.71185e-09
3.34188e-06
0.000130199
4.3108e-08
1.72505e-06
0.000127767
8.51714e-08
2.44173e-06
0.00012491
1.44662e-07
2.86311e-06
0.000122226
2.55904e-07
2.68734e-06
0.000120553
5.12966e-07
1.66362e-06
0.00012187
1.2017e-06
-1.32189e-06
0.000128035
3.34046e-06
-6.92928e-06
0.000168333
1.04987e-05
-4.17259e-05
0.000199277
2.2143e-05
-3.50975e-05
0.000193203
2.01816e-05
1.32358e-06
0.00018282
1.78435e-05
6.12229e-06
0.000165411
1.60014e-05
1.34055e-05
0.000136794
1.53107e-05
2.47023e-05
0.000139422
1.68205e-05
-7.24228e-06
1.88049e-05
0.000132309
0.000164377
-5.99632e-10
4.67157e-05
0.000147712
1.65822e-09
1.66692e-05
0.000140634
-2.07044e-11
7.07432e-06
0.000135257
9.20019e-09
5.38366e-06
0.000131896
6.9414e-09
3.35303e-06
0.000130193
5.17626e-08
1.72045e-06
0.000127778
1.02295e-07
2.42459e-06
0.000124941
1.73832e-07
2.84233e-06
0.000122273
3.07439e-07
2.67198e-06
0.000120595
6.16046e-07
1.66811e-06
0.000121941
1.44341e-06
-1.3598e-06
0.000126641
3.99503e-06
-5.45143e-06
0.000161401
1.24241e-05
-3.6117e-05
0.000197934
2.7096e-05
-4.08328e-05
0.000192205
2.52677e-05
5.48832e-07
0.000182067
2.28279e-05
5.27706e-06
0.000164717
2.09254e-05
1.26439e-05
0.000136776
2.03753e-05
2.33214e-05
0.000137091
2.20831e-05
-5.35271e-06
2.62312e-05
0.000129108
0.000164374
-7.14421e-10
4.67189e-05
0.000147712
1.82917e-09
1.66654e-05
0.000140631
-1.50649e-10
7.07839e-06
0.000135257
1.05533e-08
5.38099e-06
0.000131883
8.10669e-09
3.36643e-06
0.000130185
6.01886e-08
1.71498e-06
0.000127792
1.18997e-07
2.40428e-06
0.000124981
2.02253e-07
2.81763e-06
0.000122334
3.57295e-07
2.65351e-06
0.000120658
7.14625e-07
1.67176e-06
0.000122042
1.67203e-06
-1.39105e-06
0.00012503
4.61063e-06
-3.69865e-06
0.000153455
1.41789e-05
-2.96178e-05
0.000196434
3.21009e-05
-4.72914e-05
0.000191093
3.07757e-05
-2.69247e-07
0.000181138
2.84081e-05
4.41035e-06
0.00016378
2.65429e-05
1.1877e-05
0.000136525
2.61219e-05
2.18836e-05
0.000134489
2.78521e-05
-3.41812e-06
3.45153e-05
0.000125949
0.00016437
-8.04377e-10
4.67226e-05
0.000147712
2.04508e-09
1.66612e-05
0.000140626
-2.01026e-10
7.08302e-06
0.000135256
1.17937e-08
5.37771e-06
0.000131866
9.30869e-09
3.38175e-06
0.000130177
6.78357e-08
1.70872e-06
0.000127809
1.34071e-07
2.38107e-06
0.000125029
2.27561e-07
2.78937e-06
0.000122409
4.00276e-07
2.63219e-06
0.000120746
7.95371e-07
1.67406e-06
0.000122202
1.84855e-06
-1.42017e-06
0.0001233
5.06762e-06
-1.67492e-06
0.00014514
1.54104e-05
-2.25297e-05
0.000194765
3.73522e-05
-5.41889e-05
0.000189713
3.70793e-05
-1.31025e-06
0.000179847
3.48083e-05
3.47459e-06
0.000162546
3.28889e-05
1.10356e-05
0.000136111
3.24184e-05
2.03837e-05
0.000131654
3.39073e-05
-1.26158e-06
4.40967e-05
0.000122136
0.000164366
-8.76714e-10
4.67268e-05
0.000147713
2.2532e-09
1.66566e-05
0.000140621
-1.87929e-10
7.08833e-06
0.000135254
1.29533e-08
5.37417e-06
0.000131847
1.06519e-08
3.3987e-06
0.000130165
7.43233e-08
1.70188e-06
0.000127825
1.46603e-07
2.35545e-06
0.00012508
2.47552e-07
2.75848e-06
0.000122492
4.30508e-07
2.60997e-06
0.00012085
8.40393e-07
1.67976e-06
0.000122419
1.90756e-06
-1.44198e-06
0.000121718
5.0466e-06
6.1683e-07
0.000137805
1.53551e-05
-1.56216e-05
0.000193235
4.35052e-05
-6.07303e-05
0.000188397
4.43134e-05
-2.45391e-06
0.000178611
4.21317e-05
2.41164e-06
0.000161487
4.00294e-05
1.00129e-05
0.000135707
3.93526e-05
1.89985e-05
0.000128431
4.06034e-05
8.25553e-07
5.52785e-05
0.000117519
0.000164361
-9.62015e-10
4.67313e-05
0.000147713
2.50376e-09
1.66515e-05
0.000140616
-1.55746e-10
7.09412e-06
0.000135252
1.40408e-08
5.37043e-06
0.000131828
1.19567e-08
3.41736e-06
0.000130151
8.00652e-08
1.69549e-06
0.000127837
1.57612e-07
2.32897e-06
0.000125123
2.64856e-07
2.72793e-06
0.00012255
4.56014e-07
2.59525e-06
0.000120882
8.76469e-07
1.71254e-06
0.00012227
1.94868e-06
-1.28772e-06
0.000120343
4.91746e-06
2.17236e-06
0.000133646
1.47877e-05
-1.2246e-05
0.000192223
4.9671e-05
-6.36742e-05
0.000187631
5.21223e-05
-3.28228e-06
0.000178063
5.02669e-05
1.35193e-06
0.000161239
4.79989e-05
8.73772e-06
0.000135556
4.7231e-05
1.77723e-05
0.000125071
4.84969e-05
2.73979e-06
6.91553e-05
0.000111674
0.000164356
-1.00819e-09
4.67365e-05
0.000147713
2.72517e-09
1.66458e-05
0.00014061
-1.14808e-10
7.10053e-06
0.00013525
1.5117e-08
5.36655e-06
0.000131806
1.30599e-08
3.43739e-06
0.000130133
8.60761e-08
1.69023e-06
0.000127844
1.68946e-07
2.30263e-06
0.000125157
2.82709e-07
2.69889e-06
0.000122585
4.83373e-07
2.58928e-06
0.000120855
9.19834e-07
1.76371e-06
0.000121763
2.01836e-06
-8.72663e-07
0.000118974
4.93952e-06
2.94403e-06
0.000130295
1.47403e-05
-1.07397e-05
0.000191231
5.42766e-05
-6.42073e-05
0.000187416
5.94292e-05
-3.42775e-06
0.000178503
5.86991e-05
4.60098e-07
0.000162075
5.69664e-05
7.35698e-06
0.000136137
5.6397e-05
1.66231e-05
0.000122626
5.80844e-05
3.82035e-06
8.45295e-05
0.000107653
0.000164351
-9.91049e-10
4.67419e-05
0.000147714
2.92592e-09
1.664e-05
0.000140604
-1.1288e-10
7.10715e-06
0.000135247
1.6193e-08
5.3627e-06
0.000131782
1.38445e-08
3.45889e-06
0.000130112
9.22283e-08
1.68606e-06
0.000127849
1.80752e-07
2.27585e-06
0.000125189
3.016e-07
2.6704e-06
0.000122612
5.13256e-07
2.59032e-06
0.000120813
9.69473e-07
1.82696e-06
0.000121058
2.1024e-06
-2.38236e-07
0.000117931
5.09862e-06
3.17489e-06
0.000127506
1.50542e-05
-9.4205e-06
0.000189858
5.8216e-05
-6.48425e-05
0.000187171
6.60541e-05
-3.66259e-06
0.000179767
6.67579e-05
-5.53912e-07
0.00016402
6.64268e-05
6.19522e-06
0.000137738
6.68912e-05
1.55618e-05
0.000120957
6.98152e-05
4.74425e-06
0.000102689
0.000103133
0.000164346
-9.16907e-10
4.67473e-05
0.000147714
3.05811e-09
1.66342e-05
0.000140598
-3.26975e-11
7.11391e-06
0.000135244
1.70367e-08
5.3589e-06
0.000131757
1.43543e-08
3.48183e-06
0.000130089
9.81851e-08
1.68309e-06
0.000127852
1.92375e-07
2.24849e-06
0.000125219
3.20305e-07
2.6424e-06
0.000122633
5.4292e-07
2.59868e-06
0.000120737
1.01842e-06
1.92066e-06
0.000120358
2.18237e-06
4.19545e-07
0.000116874
5.29473e-06
3.50056e-06
0.000124977
1.55403e-05
-8.17219e-06
0.000188065
6.24173e-05
-6.58738e-05
0.000186352
7.27646e-05
-4.5959e-06
0.000180433
7.4893e-05
-1.94911e-06
0.000165935
7.58663e-05
5.13964e-06
0.000139988
7.81888e-05
1.44992e-05
0.000119985
8.35883e-05
5.81542e-06
0.000124655
9.81132e-05
0.00016434
-6.86695e-10
4.67525e-05
0.000147714
2.97447e-09
1.66287e-05
0.000140591
2.32123e-10
7.12096e-06
0.000135242
1.76502e-08
5.35448e-06
0.00013173
1.48567e-08
3.50615e-06
0.000130063
1.0348e-07
1.68217e-06
0.000127853
2.02979e-07
2.22111e-06
0.000125248
3.37726e-07
2.61516e-06
0.000122646
5.70892e-07
2.61444e-06
0.000120612
1.06595e-06
2.05824e-06
0.000119668
2.27118e-06
9.77707e-07
0.000115718
5.49178e-06
3.97534e-06
0.000122574
1.61099e-05
-6.9884e-06
0.000186225
6.72057e-05
-6.71008e-05
0.000185171
7.99922e-05
-5.78585e-06
0.00018059
8.31966e-05
-3.37912e-06
0.000167088
8.56009e-05
3.93735e-06
0.000141931
9.02457e-05
1.30615e-05
0.000119291
9.92117e-05
6.58105e-06
0.000151178
9.27748e-05
0.000164334
-9.2777e-10
4.67587e-05
0.000147715
2.96939e-09
1.66213e-05
0.000140583
9.52632e-11
7.12936e-06
0.000135239
1.88184e-08
5.34872e-06
0.000131702
1.53226e-08
3.53184e-06
0.000130035
1.08082e-07
1.68222e-06
0.000127853
2.12671e-07
2.19317e-06
0.000125276
3.53656e-07
2.58743e-06
0.000122657
5.96166e-07
2.63255e-06
0.000120477
1.10937e-06
2.20419e-06
0.000118963
2.36072e-06
1.54242e-06
0.000114696
5.76788e-06
4.19696e-06
0.000120473
1.68049e-05
-6.01628e-06
0.000184333
7.32318e-05
-6.85479e-05
0.000183709
8.83508e-05
-7.35212e-06
0.000180363
9.19151e-05
-4.99149e-06
0.000167723
9.58557e-05
2.65692e-06
0.000143614
0.000103269
1.11967e-05
0.000118424
0.000116907
7.12591e-06
0.000182899
8.65834e-05
0.000164328
-2.75223e-09
4.67657e-05
0.000147718
3.74441e-09
1.66127e-05
0.000140575
-6.16811e-10
7.13955e-06
0.00013524
2.0103e-08
5.34169e-06
0.000131673
1.52998e-08
3.56012e-06
0.000130008
1.11891e-07
1.68195e-06
0.00012785
2.20915e-07
2.16823e-06
0.000125303
3.67287e-07
2.55722e-06
0.000122676
6.17617e-07
2.64237e-06
0.000120371
1.14557e-06
2.33185e-06
0.000118434
2.436e-06
1.96979e-06
0.000113667
6.01372e-06
4.69582e-06
0.000118879
1.77845e-05
-5.73023e-06
0.000182914
8.01381e-05
-6.9523e-05
0.000182412
9.79904e-05
-8.847e-06
0.000178898
0.000101815
-6.13322e-06
0.000167011
0.000106899
1.06565e-06
0.000144587
0.000117221
8.62112e-06
0.000117593
0.000136971
6.69176e-06
0.000220729
7.96527e-05
0.000164309
-3.82346e-09
4.67817e-05
0.000147723
3.40734e-09
1.65909e-05
0.000140562
-1.29361e-09
7.15769e-06
0.00013524
2.05197e-08
5.32935e-06
0.000131643
1.42631e-08
3.5919e-06
0.000129978
1.14639e-07
1.68178e-06
0.000127844
2.27846e-07
2.14563e-06
0.00012533
3.80592e-07
2.52314e-06
0.000122703
6.42188e-07
2.63741e-06
0.000120303
1.19277e-06
2.41424e-06
0.000118076
2.53887e-06
2.23241e-06
0.000113208
6.30966e-06
4.74735e-06
0.000118008
1.87877e-05
-5.38872e-06
0.00018234
8.66739e-05
-6.92925e-05
0.000181696
0.000108899
-1.01553e-05
0.000177302
0.000113235
-6.89999e-06
0.000166227
0.000119657
-1.54291e-06
0.000144882
0.000133338
5.35588e-06
0.000116342
0.000160314
5.02414e-06
0.000266456
7.05299e-05
0.000164288
-4.51474e-09
4.68013e-05
0.000147729
2.47351e-09
1.65654e-05
0.000140548
-1.99672e-09
7.17724e-06
0.00013524
2.02981e-08
5.31565e-06
0.000131612
1.21911e-08
3.62403e-06
0.000129947
1.16742e-07
1.6818e-06
0.000127839
2.30091e-07
2.12191e-06
0.000125357
4.01418e-07
2.4836e-06
0.00012273
6.83579e-07
2.61964e-06
0.000120252
1.26696e-06
2.46258e-06
0.00011782
2.69354e-06
2.38563e-06
0.000113058
6.74758e-06
4.50149e-06
0.000118303
2.02056e-05
-6.25708e-06
0.000182525
9.30067e-05
-6.8845e-05
0.000181537
0.000121348
-1.14537e-05
0.000175589
0.000127365
-8.28743e-06
0.000165644
0.000135705
-6.05421e-06
0.000145106
0.000153355
5.92036e-07
0.00011502
0.000189025
1.2766e-06
0.000323645
5.77715e-05
0.000164269
4.68217e-05
-6.46521e-09
0.000147735
1.65379e-05
3.62285e-09
0.000140534
7.1973e-06
-3.07361e-09
0.000135241
5.30098e-06
1.94538e-08
0.000131581
3.65367e-06
1.16592e-08
0.000129933
1.68923e-06
9.37089e-08
0.000127819
2.09466e-06
2.65654e-07
0.000125361
2.43548e-06
4.4563e-07
0.000122753
2.58411e-06
7.40783e-07
0.000120254
2.4641e-06
1.35982e-06
0.000117767
2.38461e-06
2.90289e-06
0.000113301
3.95763e-06
7.43414e-06
0.000119341
-8.60784e-06
2.31251e-05
0.00018329
-6.90577e-05
9.99087e-05
0.000181097
-1.43781e-05
0.000137827
0.000173143
-1.24841e-05
0.000147605
0.000163475
-1.23478e-05
0.00015759
0.000144792
-7.94621e-06
0.000179963
0.000114691
-8.19265e-06
0.000227242
3.83992e-05
0.00039987
0.000230975
1.35744e-10
2.55946e-05
0.000226515
3.43901e-10
2.11386e-05
0.000216806
7.19334e-10
1.67679e-05
0.000211982
2.82329e-09
1.02231e-05
0.000209308
4.13288e-09
5.98213e-06
0.00020445
1.32702e-08
6.60825e-06
0.000200547
2.45567e-08
6.39094e-06
0.000197801
4.28222e-08
5.65763e-06
0.000196202
8.03036e-08
4.31756e-06
0.000196082
1.70095e-07
1.73536e-06
0.0002
4.15052e-07
-5.1798e-06
0.000220135
1.11848e-06
-3.14309e-05
0.000301005
4.61658e-06
-0.000138487
0.000270353
7.02524e-06
4.25273e-06
0.000246196
6.8223e-06
2.23689e-05
0.000220556
6.76414e-06
2.90805e-05
0.000188588
6.68353e-06
4.21774e-05
0.000150401
6.81587e-06
5.89349e-05
7.41574e-05
1.1951e-05
5.65089e-05
3.27949e-06
0.000217101
0.000230975
2.88212e-10
2.55946e-05
0.000226515
7.19646e-10
2.11383e-05
0.000216805
1.46401e-09
1.67695e-05
0.000211981
5.76617e-09
1.02225e-05
0.000209305
8.43638e-09
5.98592e-06
0.000204455
2.69653e-08
6.59866e-06
0.000200555
4.98697e-08
6.3846e-06
0.000197809
8.71138e-08
5.65291e-06
0.00019621
1.63842e-07
4.31142e-06
0.000196096
3.48306e-07
1.72247e-06
0.000200004
8.5494e-07
-5.22084e-06
0.000220207
2.31314e-06
-3.14674e-05
0.000300866
9.51975e-06
-0.0001379
0.00026996
1.4978e-05
2.1394e-06
0.000245644
1.45135e-05
2.07107e-05
0.000219705
1.44007e-05
2.74965e-05
0.000187935
1.43111e-05
4.01573e-05
0.000150888
1.44659e-05
5.6443e-05
7.83692e-05
2.37016e-05
5.10774e-05
8.82251e-06
0.000215505
0.000230976
4.5688e-10
2.55944e-05
0.000226517
1.13575e-09
2.11377e-05
0.000216803
2.24168e-09
1.6773e-05
0.000211979
8.86157e-09
1.02214e-05
0.000209299
1.29697e-08
5.99381e-06
0.000204466
4.14599e-08
6.58013e-06
0.00020057
7.66628e-08
6.37329e-06
0.000197823
1.34198e-07
5.64598e-06
0.000196223
2.53114e-07
4.30419e-06
0.000196114
5.39468e-07
1.70896e-06
0.000199993
1.32775e-06
-5.25766e-06
0.000220479
3.60131e-06
-3.14001e-05
0.000301464
1.47777e-05
-0.000136869
0.000270008
2.37168e-05
-3.01105e-07
0.000245524
2.31729e-05
1.90736e-05
0.000219259
2.3e-05
2.59816e-05
0.000187853
2.28794e-05
3.80381e-05
0.000151986
2.3144e-05
5.36958e-05
8.25999e-05
3.62007e-05
4.66021e-05
1.68873e-05
0.000214374
0.000230976
6.25772e-10
2.55943e-05
0.000226518
1.57675e-09
2.11369e-05
0.0002168
3.05082e-09
1.67784e-05
0.000211977
1.21482e-08
1.02196e-05
0.000209289
1.7745e-08
6.006e-06
0.000204482
5.70183e-08
6.55204e-06
0.000200595
1.05396e-07
6.35656e-06
0.000197845
1.84675e-07
5.63642e-06
0.000196241
3.48867e-07
4.29533e-06
0.000196137
7.44771e-07
1.69373e-06
0.000199969
1.83673e-06
-5.29299e-06
0.000220915
4.99517e-06
-3.12439e-05
0.000302709
2.04421e-05
-0.000135429
0.000270259
3.32239e-05
-3.09924e-06
0.000245766
3.27256e-05
1.74239e-05
0.000219206
3.25256e-05
2.44723e-05
0.000188223
3.24668e-05
3.58649e-05
0.000153463
3.30044e-05
5.0799e-05
8.69496e-05
4.96424e-05
4.30158e-05
2.74849e-05
0.000213383
0.000230976
7.69414e-10
2.55942e-05
0.000226519
2.01236e-09
2.11357e-05
0.000216796
3.90937e-09
1.67859e-05
0.000211974
1.56237e-08
1.02171e-05
0.000209276
2.28278e-08
6.02287e-06
0.000204504
7.35483e-08
6.51354e-06
0.000200628
1.36039e-07
6.33391e-06
0.000197875
2.38586e-07
5.62401e-06
0.000196266
4.51223e-07
4.28469e-06
0.000196172
9.64574e-07
1.67648e-06
0.000199951
2.38266e-06
-5.32737e-06
0.000221555
6.49372e-06
-3.10089e-05
0.000304966
2.64241e-05
-0.000133682
0.000270638
4.35815e-05
-6.18288e-06
0.000246261
4.30593e-05
1.57468e-05
0.000219486
4.2878e-05
2.29942e-05
0.000188963
4.30406e-05
3.3644e-05
0.000155228
4.41712e-05
4.76469e-05
9.14337e-05
6.4215e-05
4.01539e-05
4.06298e-05
0.000212507
0.000230976
8.84509e-10
2.55943e-05
0.000226519
2.42633e-09
2.1134e-05
0.000216791
4.82985e-09
1.67955e-05
0.00021197
1.92724e-08
1.0214e-05
0.000209259
2.82181e-08
6.04464e-06
0.000204533
9.08536e-08
6.46399e-06
0.000200671
1.68221e-07
6.30501e-06
0.000197916
2.95295e-07
5.6086e-06
0.000196303
5.58855e-07
4.27214e-06
0.000196223
1.19559e-06
1.65696e-06
0.000199956
2.95647e-06
-5.3601e-06
0.000222433
8.07059e-06
-3.06964e-05
0.000308293
3.25657e-05
-0.000131605
0.000271407
5.46962e-05
-9.43053e-06
0.000247053
5.41506e-05
1.41032e-05
0.000219994
5.40574e-05
2.15916e-05
0.000189978
5.45739e-05
3.14039e-05
0.000157162
5.65709e-05
4.43516e-05
9.59918e-05
7.99667e-05
3.78149e-05
5.64447e-05
0.000211683
0.000230978
9.9486e-10
2.55945e-05
0.000226519
2.82378e-09
2.11318e-05
0.000216783
5.76152e-09
1.68073e-05
0.000211965
2.30826e-08
1.02102e-05
0.000209237
3.38215e-08
6.0715e-06
0.000204569
1.08639e-07
6.40297e-06
0.000200726
2.01231e-07
6.26964e-06
0.000197967
3.53398e-07
5.59019e-06
0.000196352
6.6891e-07
4.25796e-06
0.000196295
1.43125e-06
1.6359e-06
0.000200003
3.54064e-06
-5.38787e-06
0.000223582
9.67166e-06
-3.03005e-05
0.000312665
3.86354e-05
-0.000129134
0.000272803
6.63385e-05
-1.28663e-05
0.000248323
6.60881e-05
1.25063e-05
0.000220739
6.61719e-05
2.03063e-05
0.000191181
6.71202e-05
2.918e-05
0.000159247
7.01883e-05
4.09393e-05
0.00010059
9.68381e-05
3.59517e-05
7.47558e-05
0.000210677
0.000230981
1.13395e-09
2.55947e-05
0.000226521
3.2336e-09
2.11291e-05
0.000216774
6.65959e-09
1.68216e-05
0.000211958
2.68705e-08
1.02056e-05
0.000209212
3.95562e-08
6.10354e-06
0.000204612
1.26362e-07
6.33031e-06
0.000200791
2.33915e-07
6.22775e-06
0.000198031
4.10601e-07
5.56899e-06
0.000196417
7.76392e-07
4.24277e-06
0.000196393
1.65904e-06
1.61482e-06
0.000200105
4.09973e-06
-5.40533e-06
0.00022505
1.11895e-05
-2.98033e-05
0.0003182
4.42138e-05
-0.000126235
0.000275022
7.82579e-05
-1.64387e-05
0.000250258
7.90602e-05
1.08777e-05
0.000221811
7.94364e-05
1.91053e-05
0.000192635
8.07729e-05
2.69353e-05
0.000161677
8.49058e-05
3.74816e-05
0.000105367
0.000114666
3.44616e-05
9.59014e-05
0.000209509
0.000230985
1.30153e-09
2.55948e-05
0.000226523
3.67734e-09
2.1126e-05
0.000216764
7.57591e-09
1.68382e-05
0.00021195
3.04193e-08
1.02003e-05
0.000209182
4.5279e-08
6.14055e-06
0.00020466
1.43177e-07
6.24637e-06
0.000200867
2.64581e-07
6.1797e-06
0.000198107
4.63473e-07
5.54559e-06
0.000196495
8.7327e-07
4.22819e-06
0.000196517
1.85738e-06
1.59799e-06
0.00020027
4.56936e-06
-5.39988e-06
0.000226914
1.24093e-05
-2.91666e-05
0.000325084
4.83879e-05
-0.000122858
0.000278276
9.04604e-05
-2.0102e-05
0.000253085
9.33238e-05
8.94899e-06
0.000223563
9.40868e-05
1.78357e-05
0.000194591
9.561e-05
2.47142e-05
0.000164584
0.000100618
3.40738e-05
0.000110362
0.000133392
3.34918e-05
0.000119684
0.000208091
0.000230989
1.47685e-09
2.5595e-05
0.000226526
4.13711e-09
2.11225e-05
0.000216754
8.52536e-09
1.6857e-05
0.000211941
3.37646e-08
1.01946e-05
0.000209149
5.08603e-08
6.18201e-06
0.000204715
1.58296e-07
6.15239e-06
0.000200952
2.91755e-07
6.12657e-06
0.000198189
5.09064e-07
5.52169e-06
0.000196578
9.52783e-07
4.21844e-06
0.000196648
2.00758e-06
1.59732e-06
0.000200454
4.88633e-06
-5.33363e-06
0.000229021
1.30762e-05
-2.82614e-05
0.000333283
4.87951e-05
-0.000118527
0.000282421
0.000105014
-2.48503e-05
0.000256834
0.000108946
6.85279e-06
0.000226382
0.000110108
1.62607e-05
0.000197492
0.000111566
2.24469e-05
0.000168666
0.000117172
3.0712e-05
0.000116663
0.000152508
3.29093e-05
0.000147147
0.000206098
0.000230994
1.64471e-09
2.55951e-05
0.000226529
4.59607e-09
2.11186e-05
0.000216742
9.46342e-09
1.6878e-05
0.000211931
3.69475e-08
1.01886e-05
0.000209113
5.62763e-08
6.22739e-06
0.000204774
1.72315e-07
6.05044e-06
0.000201041
3.16824e-07
6.07017e-06
0.000198271
5.51036e-07
5.50014e-06
0.000196645
1.0261e-06
4.22072e-06
0.000196713
2.14555e-06
1.6345e-06
0.00020051
5.17183e-06
-5.13268e-06
0.000228758
1.38691e-05
-2.68957e-05
0.000326248
4.93648e-05
-0.000108631
0.000285609
0.000117921
-3.51404e-05
0.000261101
0.000124866
4.79805e-06
0.000231053
0.000127059
1.38706e-05
0.00020182
0.000128834
2.01596e-05
0.000174456
0.000135119
2.66591e-05
0.000125109
0.000170085
3.36886e-05
0.000180322
0.000202897
0.000230999
1.82588e-09
2.55953e-05
0.000226533
5.04828e-09
2.11143e-05
0.000216729
1.03877e-08
1.69011e-05
0.00021192
4.0039e-08
1.01825e-05
0.000209073
6.13923e-08
6.27642e-06
0.000204837
1.86744e-07
5.94149e-06
0.000201135
3.42672e-07
6.01131e-06
0.000198351
5.95063e-07
5.48181e-06
0.000196695
1.10604e-06
4.23622e-06
0.000196705
2.30615e-06
1.71347e-06
0.000200534
5.53002e-06
-4.79245e-06
0.000227045
1.50471e-05
-2.52441e-05
0.000310265
5.18975e-05
-9.48408e-05
0.000285728
0.000128989
-4.90511e-05
0.000264288
0.00013979
2.89593e-06
0.000236858
0.000144348
1.01756e-05
0.000207201
0.000147574
1.77305e-05
0.000179949
0.000155275
2.31722e-05
0.000124278
0.000191286
3.75179e-05
0.000214832
0.000196618
0.000231004
2.02186e-09
2.55955e-05
0.000226537
5.46829e-09
2.11096e-05
0.000216715
1.11858e-08
1.69261e-05
0.000211908
4.30067e-08
1.01765e-05
0.00020903
6.59497e-08
6.3296e-06
0.000204906
2.01205e-07
5.82443e-06
0.000201237
3.69388e-07
5.94926e-06
0.000198437
6.41556e-07
5.46596e-06
0.000196749
1.19291e-06
4.26316e-06
0.00019669
2.48786e-06
1.82848e-06
0.000200609
5.95182e-06
-4.31982e-06
0.000225667
1.62471e-05
-2.3464e-05
0.000295355
5.46053e-05
-8.06396e-05
0.000284517
0.000139997
-6.31272e-05
0.000266286
0.000154617
-9.73269e-08
0.000241456
0.000161632
6.7465e-06
0.000212599
0.000167228
1.49318e-05
0.000185838
0.000177411
1.97022e-05
0.000125614
0.000214892
4.06257e-05
0.000253631
0.000189071
0.00023101
2.17959e-09
2.55957e-05
0.000226542
5.74648e-09
2.11043e-05
0.0002167
1.18066e-08
1.69532e-05
0.000211895
4.55661e-08
1.01706e-05
0.000208984
6.91267e-08
6.38762e-06
0.000204982
2.15457e-07
5.69807e-06
0.000201351
3.95694e-07
5.88338e-06
0.000198537
6.87432e-07
5.45187e-06
0.00019682
1.27951e-06
4.29965e-06
0.000196717
2.67107e-06
1.96768e-06
0.000200697
6.38802e-06
-3.75918e-06
0.000224043
1.74601e-05
-2.12396e-05
0.000280292
5.68832e-05
-6.56798e-05
0.000282417
0.000151481
-7.78078e-05
0.000266797
0.000169847
-3.78675e-06
0.000244325
0.000178979
3.25767e-06
0.000217325
0.000187327
1.17585e-05
0.000191365
0.000201077
1.62616e-05
0.000128034
0.0002412
4.21201e-05
0.000297318
0.000181526
0.000231017
2.04654e-09
2.55959e-05
0.000226547
5.6438e-09
2.10986e-05
0.000216687
1.20787e-08
1.69816e-05
0.000211879
4.73607e-08
1.01656e-05
0.000208932
7.18128e-08
6.45121e-06
0.000205068
2.2684e-07
5.56056e-06
0.000201482
4.18328e-07
5.81276e-06
0.000198657
7.27896e-07
5.43926e-06
0.00019692
1.35568e-06
4.34475e-06
0.000196821
2.82811e-06
2.1266e-06
0.000200876
6.73468e-06
-3.17028e-06
0.000222126
1.84745e-05
-1.86069e-05
0.000264638
5.82207e-05
-4.96994e-05
0.000280319
0.00016364
-9.33179e-05
0.000266412
0.000185963
-7.56013e-06
0.000245903
0.000196738
-4.13234e-07
0.000221114
0.000207702
8.19924e-06
0.000196451
0.000225758
1.25948e-05
0.000130932
0.000270376
4.23174e-05
0.000347538
0.000172603
0.000231025
1.6007e-09
2.55956e-05
0.000226553
4.89157e-09
2.10935e-05
0.000216674
1.11076e-08
1.70104e-05
0.000211865
4.88283e-08
1.01619e-05
0.000208877
7.25148e-08
6.51858e-06
0.000205161
2.35553e-07
5.41404e-06
0.000201625
4.36092e-07
5.73826e-06
0.000198792
7.59389e-07
5.42771e-06
0.000197035
1.41327e-06
4.39875e-06
0.000196938
2.93923e-06
2.31418e-06
0.000200949
6.94569e-06
-2.4778e-06
0.000220463
1.87955e-05
-1.54984e-05
0.000249697
5.77122e-05
-3.38491e-05
0.000278507
0.000177238
-0.000109435
0.000265188
0.00020354
-1.13184e-05
0.00024647
0.000215327
-4.59262e-06
0.000223998
0.000228511
4.3535e-06
0.00020019
0.000251643
8.83023e-06
0.000133438
0.000302253
4.13905e-05
0.000404528
0.00016209
0.000231033
2.91336e-10
2.55958e-05
0.000226558
3.45443e-09
2.10882e-05
0.000216659
9.32035e-09
1.70406e-05
0.000211849
5.00498e-08
1.01567e-05
0.000208821
7.12438e-08
6.58891e-06
0.000205256
2.4096e-07
5.26541e-06
0.00020178
4.48836e-07
5.65728e-06
0.000198939
7.8215e-07
5.41276e-06
0.000197146
1.45208e-06
4.45878e-06
0.000197008
2.99975e-06
2.52138e-06
0.000200829
6.99738e-06
-1.72927e-06
0.000218165
1.86001e-05
-1.23392e-05
0.000237229
5.49463e-05
-2.10953e-05
0.000277382
0.000192204
-0.000122867
0.000264101
0.000222795
-1.46694e-05
0.000247338
0.00023496
-8.78443e-06
0.000226633
0.00025006
3.1032e-07
0.00020352
0.000278545
4.65522e-06
0.000135392
0.000337597
3.89006e-05
0.000470175
0.000148501
0.000231047
-8.38168e-10
2.55968e-05
0.000226555
1.68845e-09
2.10841e-05
0.000216644
7.05139e-09
1.70712e-05
0.000211832
4.89137e-08
1.01477e-05
0.000208764
6.79724e-08
6.66216e-06
0.000205349
2.4324e-07
5.11749e-06
0.000201939
4.59509e-07
5.56953e-06
0.000199081
8.06028e-07
5.3927e-06
0.00019721
1.4996e-06
4.52169e-06
0.000196913
3.09027e-06
2.73538e-06
0.000200193
7.15447e-06
-1.01047e-06
0.000214648
1.88365e-05
-9.74981e-06
0.000229902
5.48375e-05
-1.95472e-05
0.000276305
0.000203888
-0.000125096
0.000263703
0.000242131
-1.67869e-05
0.000249183
0.000255169
-1.24769e-05
0.000229508
0.000272603
-4.36399e-06
0.000205294
0.000307798
1.43079e-07
0.000137053
0.000376302
3.40395e-05
0.000545211
0.000131738
0.000231065
-1.90051e-09
2.55982e-05
0.00022655
-3.39984e-10
2.10809e-05
0.000216629
3.94022e-09
1.71015e-05
0.000211818
4.51189e-08
1.01365e-05
0.00020871
5.96428e-08
6.73915e-06
0.000205451
2.41908e-07
4.96266e-06
0.000202107
4.72829e-07
5.47626e-06
0.00019922
8.39054e-07
5.37094e-06
0.00019725
1.561e-06
4.58667e-06
0.000196771
3.19745e-06
2.94861e-06
0.0001995
7.34186e-06
-3.27733e-07
0.000211249
1.92109e-05
-7.37011e-06
0.000224245
5.56866e-05
-1.9157e-05
0.000274331
0.000215196
-0.000127603
0.000263274
0.000260889
-1.8964e-05
0.000251002
0.000275322
-1.6232e-05
0.000231568
0.000296083
-1.01882e-05
0.000206528
0.000338973
-5.70455e-06
0.000138181
0.00041927
2.62672e-05
0.000631233
0.000109212
0.000231084
2.55998e-05
-3.73045e-09
0.000226544
2.10793e-05
-2.44631e-09
0.000216616
1.71296e-05
-3.27114e-10
0.000211806
1.01221e-05
3.81888e-08
0.000208656
6.825e-06
3.64656e-08
0.000205563
4.79276e-06
2.52372e-07
0.000202271
5.38161e-06
5.00009e-07
0.000199343
5.35116e-06
8.84309e-07
0.000197277
4.64786e-06
1.62113e-06
0.000196638
3.1416e-06
3.27078e-06
0.000198905
2.52357e-07
7.42298e-06
0.000208415
-5.41221e-06
1.9357e-05
0.000220128
-2.00825e-05
5.63586e-05
0.000272723
-0.000129609
0.000225938
0.000262399
-2.22104e-05
0.000279134
0.000248894
-2.04526e-05
0.000296651
0.000230867
-1.73631e-05
0.000318947
0.00020667
-1.27621e-05
0.000367812
0.000142619
1.2742e-05
0.000462061
7.80374e-05
0.000733576
0.000224135
2.36587e-10
1.12405e-05
0.000230652
2.46336e-10
1.46208e-05
0.00023475
1.82298e-09
1.26701e-05
0.000233626
4.01938e-09
1.1351e-05
0.000229591
8.12946e-09
1.00165e-05
0.000227381
1.44592e-08
8.81952e-06
0.000226195
2.58524e-08
7.57607e-06
0.00022549
4.84032e-08
6.35802e-06
0.00022498
9.77963e-08
4.81266e-06
0.000224739
2.1877e-07
1.91177e-06
0.000225713
5.53238e-07
-6.43614e-06
0.000231099
1.53783e-06
-3.79745e-05
0.000268921
7.57481e-06
-0.00018061
0.00022379
1.06019e-05
3.89743e-05
0.000200886
1.19627e-05
3.31936e-05
0.000168671
1.30258e-05
4.8138e-05
0.000141761
1.30908e-05
5.57249e-05
0.000121351
1.28446e-05
6.62304e-05
1.30703e-05
2.51639e-05
0.000139428
9.72172e-06
0.000219621
0.000224135
4.75647e-10
1.12404e-05
0.000230652
5.29304e-10
1.46206e-05
0.000234752
3.69486e-09
1.26687e-05
0.000233629
8.12069e-09
1.13498e-05
0.000229602
1.63893e-08
1.00134e-05
0.00022738
2.9125e-08
8.8209e-06
0.000226189
5.20239e-08
7.57417e-06
0.000225485
9.74081e-08
6.35268e-06