/*--------------------------------*- C++ -*----------------------------------*\
  =========                 |
  \\      /  F ield         | OpenFOAM: The Open Source CFD Toolbox
   \\    /   O peration     | Website:  https://openfoam.org
    \\  /    A nd           | Version:  6.0
     \\/     M anipulation  |
\*---------------------------------------------------------------------------*/
FoamFile
{
    version     2.0;
    format      ascii;
    class       surfaceScalarField;
    location    "3";
    object      phi;
}
// * * * * * * * * * * * * * * * * * * * * * * * * * * * * * * * * * * * * * //

dimensions      [1 0 -1 0 0 0 0];

internalField   nonuniform List<scalar> 
2320
(
0.0041999
1.26958e-10
0.0041999
7.81622e-10
0.0041999
2.57429e-09
0.0041999
6.85215e-09
0.00419989
1.65919e-08
0.00419987
3.8399e-08
0.00419982
8.71217e-08
0.0041997
1.97076e-07
0.0041994
4.51937e-07
0.00419862
1.07415e-06
0.00419642
2.72069e-06
0.00418933
7.48813e-06
0.00416528
2.68457e-05
0.00396577
0.000220717
0.00354053
0.000443991
0.00280077
0.000741457
0.00195863
0.000839375
0.00115966
0.000809504
0.000674561
0.000488371
0.000653987
0.0041999
2.60808e-10
0.0041999
1.60547e-09
0.0041999
5.2874e-09
0.0041999
1.40733e-08
0.00419989
3.4078e-08
0.00419986
7.88761e-08
0.00419981
1.79002e-07
0.00419968
4.05136e-07
0.00419936
9.3023e-07
0.00419852
2.2179e-06
0.0041961
5.66453e-06
0.0041881
1.5909e-05
0.00415955
5.81085e-05
0.00390335
0.000498596
0.00343955
0.000926361
0.00275871
0.00142369
0.00202643
0.00156874
0.00128392
0.00156195
0.000648726
0.00112805
0.00128276
0.0041999
4.08658e-10
0.0041999
2.5152e-09
0.0041999
8.28304e-09
0.0041999
2.20502e-08
0.00419989
5.34149e-08
0.00419986
1.23716e-07
0.00419979
2.81036e-07
0.00419964
6.36933e-07
0.00419927
1.46531e-06
0.00419829
3.50466e-06
0.0041955
9.00432e-06
0.00418626
2.56044e-05
0.00415202
9.48893e-05
0.00385766
0.000815319
0.00336737
0.00143484
0.00272311
0.0020688
0.00204758
0.00224111
0.00136748
0.00225115
0.000666571
0.00183408
0.0019304
0.0041999
5.76359e-10
0.0041999
3.54667e-09
0.0041999
1.1679e-08
0.0041999
3.10949e-08
0.00419988
7.53527e-08
0.00419985
1.74637e-07
0.00419977
3.97072e-07
0.00419959
9.01023e-07
0.00419915
2.07632e-06
0.004198
4.97817e-06
0.00419472
1.28429e-05
0.00418404
3.68081e-05
0.00414378
0.000137346
0.00382168
0.00116059
0.0033116
0.0019627
0.00269381
0.00268652
0.00205934
0.00287188
0.00141064
0.00290848
0.000686399
0.00256396
0.00259879
0.0041999
7.68778e-10
0.0041999
4.72997e-09
0.0041999
1.55744e-08
0.00419989
4.14694e-08
0.00419988
1.0052e-07
0.00419984
2.33071e-07
0.00419975
5.3028e-07
0.00419953
1.20432e-06
0.004199
2.77826e-06
0.00419765
6.67131e-06
0.00419382
1.72549e-05
0.00418157
4.96777e-05
0.0041351
0.000185562
0.00379115
0.00152845
0.00326591
0.00250506
0.00266823
0.0032837
0.00206254
0.00347361
0.00143691
0.00354181
0.0007187
0.00328677
0.00330151
0.0041999
9.90718e-10
0.0041999
6.09464e-09
0.0041999
2.0066e-08
0.00419989
5.34292e-08
0.00419987
1.29525e-07
0.00419982
3.00396e-07
0.00419971
6.83694e-07
0.00419945
1.55341e-06
0.00419883
3.58549e-06
0.00419724
8.61566e-06
0.00419279
2.2311e-05
0.00417882
6.4372e-05
0.00412597
0.000239761
0.00376379
0.001915
0.00322692
0.00305905
0.00264628
0.00386287
0.00206469
0.00405028
0.0014607
0.00415324
0.00074227
0.00400955
0.00402982
0.0041999
1.24766e-09
0.0041999
7.67444e-09
0.0041999
2.52649e-08
0.00419989
6.72689e-08
0.00419986
1.63078e-07
0.00419981
3.7824e-07
0.00419967
8.60964e-07
0.00419937
1.95642e-06
0.00419863
4.5161e-06
0.00419677
1.08525e-05
0.00419161
2.8109e-05
0.00417567
8.11366e-05
0.00411612
0.00030046
0.00373729
0.00231834
0.00319097
0.00362232
0.00262707
0.00442467
0.0020641
0.00460811
0.00147742
0.00474641
0.000757673
0.00473184
0.00477306
0.0041999
1.54644e-09
0.0041999
9.51141e-09
0.0041999
3.13095e-08
0.00419989
8.33583e-08
0.00419986
2.02079e-07
0.00419979
4.687e-07
0.00419963
1.06687e-06
0.00419926
2.4242e-06
0.00419838
5.59494e-06
0.00419619
1.34401e-05
0.0041902
3.47919e-05
0.00417192
0.000100352
0.00410495
0.000368627
0.00370932
0.00273841
0.00315488
0.00419393
0.00261063
0.00496584
0.00206402
0.00514805
0.0014881
0.00532806
0.000771444
0.00545085
0.00553222
0.0041999
1.89568e-09
0.0041999
1.16586e-08
0.0041999
3.83751e-08
0.00419988
1.02167e-07
0.00419985
2.4768e-07
0.00419976
5.74493e-07
0.00419957
1.30773e-06
0.00419913
2.97137e-06
0.00419808
6.8563e-06
0.00419548
1.64612e-05
0.00418845
4.25714e-05
0.00416728
0.000122601
0.00409149
0.000445847
0.00367662
0.00317762
0.00311439
0.00477328
0.00259646
0.00547947
0.00206659
0.00567221
0.00150193
0.00590002
0.000785604
0.006171
0.00630845
0.0041999
2.30555e-09
0.0041999
1.41784e-08
0.00419989
4.66676e-08
0.00419988
1.24252e-07
0.00419983
3.01262e-07
0.00419973
6.9892e-07
0.0041995
1.59131e-06
0.00419896
3.61623e-06
0.00419771
8.34368e-06
0.00419461
2.00226e-05
0.00418628
5.17255e-05
0.00416142
0.000148689
0.00407453
0.000534586
0.00363361
0.00364268
0.00306609
0.0053582
0.00258724
0.00595235
0.00207205
0.0061809
0.00151093
0.0064665
0.000798131
0.00688704
0.00709783
0.0041999
2.78641e-09
0.0041999
1.71343e-08
0.00419989
5.63973e-08
0.00419987
1.50183e-07
0.00419982
3.64256e-07
0.0041997
8.45441e-07
0.00419942
1.92587e-06
0.00419877
4.37848e-06
0.00419726
1.01048e-05
0.00419354
2.42438e-05
0.0041836
6.25784e-05
0.00415404
0.000179631
0.00405263
0.000638418
0.00356981
0.00414964
0.00301114
0.00593322
0.00258163
0.00637449
0.00208211
0.00667201
0.00152922
0.00702498
0.000816053
0.00760383
0.00790441
0.0041999
3.34608e-09
0.0041999
2.05739e-08
0.00419989
6.77222e-08
0.00419987
1.80392e-07
0.0041998
4.37743e-07
0.00419966
1.01668e-06
0.00419932
2.31771e-06
0.00419855
5.27324e-06
0.00419675
1.21765e-05
0.00419233
2.92193e-05
0.00418052
7.53969e-05
0.0041453
0.000216369
0.00402527
0.000761629
0.00345931
0.0047403
0.00299147
0.00641463
0.00258421
0.00677451
0.00209745
0.00715159
0.00154518
0.0075834
0.000835776
0.00831716
0.00873087
0.0041999
3.9863e-09
0.0041999
2.4508e-08
0.00419989
8.06777e-08
0.00419986
2.14974e-07
0.00419979
5.21956e-07
0.00419962
1.21318e-06
0.00419923
2.76803e-06
0.00419833
6.30303e-06
0.00419624
1.45632e-05
0.0041911
3.49511e-05
0.00417745
9.015e-05
0.00413671
0.000258736
0.00399967
0.000902607
0.00332842
0.00543902
0.00302595
0.00672187
0.00258814
0.00720758
0.00211672
0.00761554
0.00157866
0.00812737
0.000865991
0.00903532
0.00958794
0.0041999
4.70113e-09
0.0041999
2.89005e-08
0.00419989
9.51479e-08
0.00419985
2.53626e-07
0.00419977
6.1617e-07
0.00419958
1.43326e-06
0.00419914
3.27295e-06
0.00419813
7.45851e-06
0.00419576
1.72405e-05
0.00418998
4.13676e-05
0.00417475
0.000106587
0.0041295
0.000305684
0.00398618
0.00105121
0.00331787
0.00613514
0.00293845
0.00710535
0.00258804
0.00755073
0.00214721
0.00804938
0.00161673
0.00866519
0.000901701
0.00975477
0.0104805
0.0041999
5.4775e-09
0.0041999
3.36712e-08
0.00419989
1.10869e-07
0.00419985
2.95652e-07
0.00419976
7.18718e-07
0.00419955
1.67312e-06
0.00419906
3.82396e-06
0.00419795
8.72046e-06
0.00419536
2.01629e-05
0.00418905
4.835e-05
0.00417258
0.000124349
0.00412412
0.000356002
0.00397876
0.00120191
0.00331008
0.00683518
0.00290338
0.00751285
0.00259569
0.00785079
0.00218673
0.00845267
0.00168
0.00917819
0.000953934
0.0104866
0.0114258
0.0041999
6.29336e-09
0.0041999
3.86835e-08
0.00419988
1.27393e-07
0.00419985
3.39873e-07
0.00419975
8.26818e-07
0.00419953
1.92655e-06
0.00419901
4.40757e-06
0.00419783
1.00598e-05
0.00419506
2.32669e-05
0.00418836
5.57519e-05
0.004171
0.000143061
0.00412053
0.000408474
0.00397588
0.00135193
0.00333361
0.0075111
0.00289693
0.00794654
0.00261313
0.00812712
0.00224911
0.008812
0.00175472
0.00968153
0.001018
0.0112282
0.0124319
0.0041999
7.1108e-09
0.0041999
4.37036e-08
0.00419988
1.43952e-07
0.00419985
3.8427e-07
0.00419975
9.35675e-07
0.00419952
2.18276e-06
0.004199
5.00015e-06
0.00419779
1.14252e-05
0.00419495
2.64386e-05
0.00418812
6.33047e-05
0.00417054
0.000162026
0.00411965
0.000461413
0.00398495
0.00149215
0.00341366
0.00811832
0.00292495
0.00842919
0.00264271
0.00840129
0.002337
0.00911429
0.00185728
0.0101696
0.00115221
0.0119409
0.0135758
0.0041999
7.87033e-09
0.0041999
4.83619e-08
0.00419989
1.5932e-07
0.00419985
4.25579e-07
0.00419976
1.03744e-06
0.00419955
2.42387e-06
0.00419906
5.56219e-06
0.0041979
1.27304e-05
0.00419519
2.94876e-05
0.00418863
7.05742e-05
0.00417188
0.000180152
0.00412413
0.000511217
0.00400175
0.00161973
0.00359136
0.00856588
0.00300437
0.00900763
0.00268127
0.00871638
0.00242585
0.00936639
0.00196001
0.010648
0.00124503
0.0126622
0.0148102
0.0041999
8.46501e-09
0.0041999
5.20331e-08
0.00419989
1.71497e-07
0.00419986
4.58486e-07
0.00419979
1.11926e-06
0.00419963
2.62035e-06
0.00419922
6.02788e-06
0.00419827
1.38311e-05
0.00419597
3.21022e-05
0.00419034
7.68859e-05
0.00417575
0.000196059
0.00413245
0.000556554
0.00403108
0.00172494
0.00388867
0.0087461
0.00312929
0.00975773
0.00273309
0.00910583
0.00250996
0.00958738
0.00209554
0.0110716
0.00135974
0.013406
0.0161612
0.0041999
8.98685e-09
0.0041999
5.46621e-08
0.0041999
1.78702e-07
0.00419988
4.76562e-07
0.00419985
1.16396e-06
0.00419977
2.73069e-06
0.00419955
6.29932e-06
0.00419902
1.44929e-05
0.00419772
3.36843e-05
0.00419468
8.05439e-05
0.00418766
0.000204297
0.00416562
0.000580549
0.00398115
0.00191201
0.0043041
0.00845933
0.00327354
0.0107778
0.00279943
0.00957337
0.00263297
0.00975206
0.00226932
0.011448
0.00153741
0.0141459
0.0176901
0.0167996
4.44433e-09
0.0167997
2.80718e-08
0.0167997
9.45054e-08
0.0168
2.54423e-07
0.0168005
6.20141e-07
0.0168019
1.44096e-06
0.016805
3.27281e-06
0.0168125
7.36893e-06
0.0168302
1.66198e-05
0.016874
3.8006e-05
0.0169911
8.99191e-05
0.0173501
0.000227289
0.0185189
0.000737668
0.025847
0.00117006
0.0215055
0.0151337
0.016251
0.0148257
0.0149657
0.0110285
0.0149456
0.011488
0.0167114
0.0124346
0.0115021
0.0228865
0.0167996
2.99834e-09
0.0167996
1.9035e-08
0.0167997
6.43248e-08
0.0167998
1.73411e-07
0.0168
4.22724e-07
0.0168005
9.81558e-07
0.0168017
2.22674e-06
0.0168044
5.00708e-06
0.0168104
1.12842e-05
0.0168241
2.58325e-05
0.0168558
6.14004e-05
0.0169322
0.000157201
0.0172204
0.000460172
0.016869
0.0015511
0.0190563
0.0130501
0.0223341
0.0115979
0.0198625
0.013536
0.019579
0.0117984
0.0202993
0.0117825
0.0101856
0.0216575
0.0167996
4.07654e-09
0.0167996
2.46911e-08
0.0167996
8.03221e-08
0.0167996
2.13278e-07
0.0167996
5.18417e-07
0.0167994
1.2088e-06
0.0167992
2.76525e-06
0.0167985
6.28408e-06
0.0167969
1.43203e-05
0.0167927
3.31012e-05
0.0167816
7.91583e-05
0.0167486
0.000203356
0.0166229
0.000607566
0.0160411
0.00219501
0.0190533
0.0102541
0.0198754
0.0108391
0.0216299
0.0118722
0.0214003
0.0120991
0.0217583
0.011439
0.0102564
0.0217224
0.0167996
3.60746e-09
0.0167996
2.20322e-08
0.0167997
7.21423e-08
0.0167997
1.91729e-07
0.0167999
4.64766e-07
0.0168003
1.07794e-06
0.0168011
2.44716e-06
0.0168032
5.50368e-06
0.0168081
1.23569e-05
0.0168199
2.79052e-05
0.0168496
6.41316e-05
0.0169303
0.000153535
0.0171921
0.00040357
0.0180859
0.0014149
0.0256315
0.00334282
0.0228695
0.0135836
0.0222258
0.0125019
0.0218395
0.0124641
0.0217782
0.0114513
0.00969599
0.022336
0.0167996
2.62244e-09
0.0167996
1.61197e-08
0.0167997
5.30825e-08
0.0167997
1.41519e-07
0.0167999
3.43607e-07
0.0168003
7.97413e-07
0.0168011
1.80984e-06
0.016803
4.06497e-06
0.0168074
9.09683e-06
0.0168172
2.03912e-05
0.0168404
4.61025e-05
0.0168981
0.000106567
0.0170619
0.000260162
0.0177242
0.000768093
0.0187288
0.00244543
0.0220281
0.0103637
0.0234235
0.0110748
0.0239052
0.0119494
0.0233591
0.0119718
0.0101777
0.0228458
0.0167996
1.58126e-09
0.0167996
9.86462e-09
0.0167997
3.28694e-08
0.0167997
8.79781e-08
0.0167999
2.13515e-07
0.0168003
4.93922e-07
0.0168011
1.11528e-06
0.0168031
2.48814e-06
0.0168074
5.52117e-06
0.0168173
1.22407e-05
0.0168399
2.72425e-05
0.016893
6.13459e-05
0.0170266
0.000142215
0.0174634
0.000356633
0.0187724
0.00118755
0.0268108
0.00260353
0.024955
0.0129381
0.0254548
0.0114298
0.025553
0.0118542
0.0119211
0.0237508
0.0167996
1.13574e-09
0.0167996
6.96873e-09
0.0167996
2.29104e-08
0.0167997
6.10118e-08
0.0167997
1.47984e-07
0.0167999
3.42997e-07
0.0168003
7.77155e-07
0.0168011
1.74116e-06
0.016803
3.88081e-06
0.016807
8.63697e-06
0.0168158
1.92551e-05
0.0168357
4.32057e-05
0.0168829
9.859e-05
0.0170113
0.0002351
0.0175423
0.000658312
0.0177129
0.00246789
0.0245047
0.00620619
0.0257473
0.0102045
0.0261433
0.0114612
0.0136947
0.0243424
0.0167996
6.21466e-10
0.0167996
3.86209e-09
0.0167996
1.28308e-08
0.0167997
3.43274e-08
0.0167997
8.34008e-08
0.0167999
1.93327e-07
0.0168002
4.3767e-07
0.016801
9.79059e-07
0.0168028
2.17714e-06
0.0168067
4.82788e-06
0.0168155
1.06957e-05
0.0168355
2.37057e-05
0.0168822
5.26733e-05
0.0170009
0.000118015
0.0173869
0.000273254
0.0190582
0.000806556
0.0230344
0.00223526
0.0254548
0.00780387
0.02731
0.00962838
0.0115143
0.0295095
0.0167996
2.77287e-10
0.0167996
1.7612e-09
0.0167996
5.95304e-09
0.0167997
1.60372e-08
0.0167997
3.902e-08
0.0167998
9.02938e-08
0.0168001
2.03651e-07
0.0168006
4.53254e-07
0.0168018
1.00186e-06
0.0168045
2.20673e-06
0.0168106
4.85282e-06
0.016824
1.06687e-05
0.0168541
2.34818e-05
0.0169221
5.18906e-05
0.017083
0.000116026
0.0176206
0.00027514
0.0190469
0.000820736
0.0247115
0.00216528
0.025848
0.00855392
0.00880868
0.0285927
0.0167996
1.66448e-10
0.0167996
1.02608e-09
0.0167996
3.38579e-09
0.0167996
9.02863e-09
0.0167997
2.18978e-08
0.0167997
5.07033e-08
0.0167998
1.14677e-07
0.0168
2.56278e-07
0.0168005
5.69269e-07
0.0168016
1.26077e-06
0.016804
2.7886e-06
0.0168091
6.16571e-06
0.0168205
1.36377e-05
0.0168454
3.02054e-05
0.0169011
6.71479e-05
0.0170392
0.000151169
0.0175232
0.000362733
0.0186295
0.00110575
0.0247275
0.00260581
0.00847084
0.0253435
0.0167996
6.66811e-11
0.0167996
4.22819e-10
0.0167996
1.42657e-09
0.0167996
3.83292e-09
0.0167997
9.29015e-09
0.0167997
2.13886e-08
0.0167998
4.79357e-08
0.0167999
1.05886e-07
0.0168003
2.32002e-07
0.0168013
5.05886e-07
0.0168033
1.0996e-06
0.0168079
2.38428e-06
0.0168183
5.15832e-06
0.0168416
1.11327e-05
0.0168934
2.39551e-05
0.0170083
5.13791e-05
0.0172759
0.000110309
0.0181084
0.00025747
0.0197583
0.000748869
0.00142108
0.0272882
0.0167996
2.12459e-11
0.0167996
1.39888e-10
0.0167996
4.85761e-10
0.0167996
1.32083e-09
0.0167996
3.21103e-09
0.0167997
7.37508e-09
0.0167997
1.64315e-08
0.0167998
3.59962e-08
0.0167999
7.80951e-08
0.0168003
1.6844e-07
0.0168011
3.61922e-07
0.0168028
7.75578e-07
0.0168064
1.65872e-06
0.0168144
3.54263e-06
0.0168315
7.56314e-06
0.016868
1.61744e-05
0.0169453
3.48368e-05
0.0171278
7.69076e-05
0.0176761
0.000189402
0.000469354
0.0186196
0.0167996
1.27258e-11
0.0167996
7.81529e-11
0.0167996
2.56968e-10
0.0167996
6.83166e-10
0.0167996
1.65087e-09
0.0167996
3.80446e-09
0.0167996
8.55463e-09
0.0167997
1.89892e-08
0.0167997
4.18689e-08
0.0167998
9.20017e-08
0.0168
2.01843e-07
0.0168003
4.42582e-07
0.0168011
9.70549e-07
0.0168026
2.12963e-06
0.0168057
4.67856e-06
0.016812
1.03009e-05
0.016825
2.27803e-05
0.0168527
5.08554e-05
0.0169287
0.000116132
0.000294019
0.0171074
0.0167996
3.74989e-12
0.0167996
2.49023e-11
0.0167996
8.70283e-11
0.0167996
2.37474e-10
0.0167996
5.79119e-10
0.0167996
1.33487e-09
0.0167996
2.98683e-09
0.0167997
6.57634e-09
0.0167997
1.43507e-08
0.0167997
3.11557e-08
0.0167999
6.74323e-08
0.0168002
1.45662e-07
0.0168008
3.14221e-07
0.0168023
6.77172e-07
0.0168055
1.4584e-06
0.0168127
3.14025e-06
0.0168287
6.76666e-06
0.0168648
1.46224e-05
0.0169488
3.1818e-05
7.16758e-05
0.0171705
0.0167996
2.33767e-12
0.0167996
1.46868e-11
0.0167996
4.91911e-11
0.0167996
1.31865e-10
0.0167996
3.19778e-10
0.0167996
7.37817e-10
0.0167996
1.65892e-09
0.0167996
3.67907e-09
0.0167996
8.09892e-09
0.0167997
1.77557e-08
0.0167997
3.8837e-08
0.0167997
8.48326e-08
0.0167998
1.85152e-07
0.0168001
4.03934e-07
0.0168006
8.81236e-07
0.0168016
1.92396e-06
0.0168038
4.21043e-06
0.0168085
9.26782e-06
0.016818
2.0691e-05
4.75206e-05
0.0168399
0.0167996
2.26814e-12
0.0167996
1.35861e-11
0.0167996
4.37722e-11
0.0167996
1.15703e-10
0.0167996
2.80634e-10
0.0167996
6.53385e-10
0.0167996
1.49131e-09
0.0167996
3.37166e-09
0.0167996
7.59033e-09
0.0167996
1.7059e-08
0.0167996
3.83253e-08
0.0167996
8.61249e-08
0.0167996
1.93648e-07
0.0167995
4.35723e-07
0.0167992
9.81281e-07
0.0167985
2.21249e-06
0.0167968
4.9983e-06
0.0167927
1.13276e-05
0.0167829
2.58658e-05
6.02376e-05
0.016762
0.0167996
6.77303e-13
0.0167996
4.44546e-12
0.0167996
1.54005e-11
0.0167996
4.17626e-11
0.0167996
1.01292e-10
0.0167996
2.32296e-10
0.0167996
5.17285e-10
0.0167996
1.13379e-09
0.0167996
2.46349e-09
0.0167996
5.32651e-09
0.0167997
1.14848e-08
0.0167997
2.47245e-08
0.0167999
5.31871e-08
0.0168002
1.14397e-07
0.0168009
2.46124e-07
0.0168024
5.2999e-07
0.0168059
1.14247e-06
0.0168139
2.47188e-06
0.0168301
5.35908e-06
1.16322e-05
0.0168734
0.0167996
3.00214e-13
0.0167996
1.88945e-12
0.0167996
6.35211e-12
0.0167996
1.71556e-11
0.0167996
4.19806e-11
0.0167996
9.77889e-11
0.0167996
2.2197e-10
0.0167996
4.96788e-10
0.0167996
1.10282e-09
0.0167996
2.43533e-09
0.0167996
5.35647e-09
0.0167997
1.1739e-08
0.0167997
2.56332e-08
0.0167998
5.57593e-08
0.0167999
1.20822e-07
0.0168003
2.60859e-07
0.0168011
5.61744e-07
0.0168027
1.2088e-06
0.0168057
2.61296e-06
5.7237e-06
0.0168125
0.0167996
3.98975e-14
0.0167996
2.98699e-13
0.0167996
1.13936e-12
0.0167996
3.29123e-12
0.0167996
8.45763e-12
0.0167996
2.06087e-11
0.0167996
4.90305e-11
0.0167996
1.1556e-10
0.0167996
2.71859e-10
0.0167996
6.40844e-10
0.0167996
1.51647e-09
0.0167996
3.60454e-09
0.0167996
8.60421e-09
0.0167996
2.06102e-08
0.0167997
4.9488e-08
0.0167997
1.18941e-07
0.0167997
2.86008e-07
0.0167997
6.85815e-07
0.0168004
1.65725e-06
4.02982e-06
0.0168012
0.0167996
0.0167996
0.0167996
0.0167996
0.0167996
0.0167996
0.0167996
0.0167996
0.0167996
0.0167996
0.0167996
0.0167996
0.0167997
0.0167997
0.0167999
0.0168001
0.0168007
0.016802
0.0168047
0.0168106
0.0116306
0.0111965
0.00634016
0.00520767
0.00366669
0.00261007
0.00343388
0.000224954
0.0071188
-0.00364906
0.00701494
0.000215379
0.00612541
0.000985774
0.0052811
0.000905667
0.00548636
-0.000101187
0.00591789
-0.000467397
0.0036618
0.00244448
0.00496921
-0.000911088
0.0061313
-0.00077129
0.00761758
-0.00100329
0.00936786
-0.00141071
0.011091
-0.00151191
0.0126724
-0.00126459
0.0131354
0.000138882
0.0125819
0.00104884
0.000831602
0.0123125
0.0205213
0.00865124
0.00881803
0.00922485
0.00197782
0.00870132
0.000741304
0.00625999
-0.00119121
0.00697712
-0.000410845
0.00750636
0.000575306
0.00832342
0.000205037
0.00976849
-0.00150498
0.0114736
-0.00201077
0.0120889
0.00204567
0.00783108
0.00348571
0.00796643
-0.000855113
0.00923461
-0.00208721
0.0111624
-0.00318548
0.0133192
-0.0041602
0.0143585
-0.00274625
0.0145483
-0.00023545
0.0141218
0.00168624
0.00179509
0.0175064
0.0247806
0.0148983
0.0114534
0.0115867
0.00525222
0.0102519
0.00203796
0.00784428
0.0012078
0.00715048
0.000337537
0.00912159
-0.0012861
0.0116798
-0.00220328
0.0124374
-0.00220319
0.0124721
-0.0017145
0.0113514
0.00333986
0.0130658
0.00151374
0.0116176
0.000291482
0.0128903
-0.00372133
0.0162601
-0.00668281
0.0169609
-0.00515428
0.0164075
-0.00222088
0.015544
-0.000256062
0.0153458
0.0015197
0.00256442
0.020219
0.0269895
0.0162587
0.0154914
0.0131269
0.00830907
0.0110206
0.00413234
0.00977882
0.00247771
0.010168
6.10995e-06
0.0103234
-0.00136375
0.0104614
-0.00225996
0.0110336
-0.00269099
0.0117839
-0.00224028
0.0130878
0.00194381
0.0132358
0.000840316
0.0156729
-0.00264252
0.0184844
-0.00665409
0.018724
-0.00676312
0.0179009
-0.00401009
0.0178245
-0.00239118
0.0176193
-0.000387893
0.0169691
0.00128809
0.00315403
0.0209509
0.0289517
0.0175667
0.0188929
0.0146136
0.0112408
0.0127037
0.00610816
0.011619
0.00359504
0.0103099
0.00133627
0.00974304
-0.000784913
0.0100447
-0.00257127
0.0110623
-0.00376187
0.012009
-0.00326704
0.0132169
0.000458521
0.0171712
-0.00314332
0.0212085
-0.00683185
0.021303
-0.00672178
0.0196251
-0.00498729
0.0196122
-0.00385198
0.0194069
-0.00235786
0.0190802
-0.000250039
0.0183084
0.00174998
0.00337325
0.0214415
0.0312313
0.0186312
0.0217129
0.0159167
0.0139905
0.0139089
0.00817164
0.0124872
0.00498478
0.0117088
0.00209684
0.0114409
-0.000550745
0.0114654
-0.00267725
0.0120106
-0.00450854
0.0140348
-0.00565471
0.0183708
-0.00492335
0.0226246
-0.00728632
0.0224738
-0.00658208
0.0214997
-0.00558808
0.02137
-0.00477169
0.0212601
-0.00339123
0.0209588
-0.00190397
0.0205496
0.000189289
0.0200325
0.00215335
0.00353151
0.0219243
0.0336192
0.0193793
0.0242271
0.0170368
0.0164126
0.0151929
0.0100904
0.0139409
0.006146
0.0129221
0.00303159
0.0122494
-1.81734e-05
0.0120748
-0.00268125
0.0126341
-0.00530046
0.0145712
-0.0079335
0.0201694
-0.0112117
0.0234383
-0.0105659
0.0240485
-0.00721888
0.0236902
-0.00503875
0.0230087
-0.00394804
0.0226438
-0.0031565
0.0220851
-0.0013118
0.0214841
0.000746202
0.0207431
0.00260853
0.0037528
0.0225246
0.0405863
0.020077
0.0267227
0.0181629
0.0184401
0.0165732
0.011757
0.0152485
0.00724936
0.014231
0.00380667
0.0133674
0.00049991
0.0130222
-0.00271479
0.0138316
-0.00633887
0.0171718
-0.0117262
0.0200896
-0.0147503
0.0218878
-0.0125193
0.0246504
-0.00976316
0.0263156
-0.00637597
0.0261217
-0.0034319
0.0241879
-0.00142482
0.0231038
-0.000508793
0.0221805
0.00112701
0.0215466
0.00285872
0.00435845
0.0227271
0.0464647
0.0210089
0.0284336
0.0198785
0.0196571
0.0181239
0.0135275
0.0165984
0.0084475
0.0154111
0.00459949
0.014516
0.000978813
0.0141952
-0.00272361
0.0158872
-0.00821815
0.0188265
-0.0147794
0.0199901
-0.0162568
0.0215619
-0.0136593
0.0236492
-0.0120789
0.025515
-0.00841492
0.0263987
-0.00463668
0.0257501
-0.00107815
0.0238971
0.00143878
0.0229247
0.00175859
0.0222817
0.00292758
0.00406549
0.0363291
0.0354636
0.026857
0.0379215
0.0218157
0.0247068
0.0196395
0.0157522
0.0176759
0.0102721
0.0163776
0.00568033
0.0156503
0.0015544
0.015852
-0.00293726
0.0188336
-0.0109288
0.0200364
-0.0153616
0.0209169
-0.0168412
0.0219504
-0.0147353
0.02251
-0.0130289
0.0236901
-0.00961295
0.0249143
-0.00615018
0.0259179
-0.00263494
0.0263546
0.000550213
0.0243584
0.00325096
0.0230661
0.00370709
0.0041824
0.0274154
0.0358735
0.0310846
0.0343155
0.0262747
0.0294959
0.0211948
0.0208562
0.0187061
0.012923
0.0172034
0.00727929
0.016443
0.00248816
0.0192827
-0.00533734
0.0209242
-0.0118898
0.0222967
-0.0162199
0.0235861
-0.0180446
0.0236372
-0.0152472
0.0222748
-0.0126337
0.0224622
-0.00989442
0.0231119
-0.00691779
0.0238652
-0.00375214
0.0244738
-0.00066712
0.0246877
0.00218611
0.0239598
0.00419521
0.00589228
0.0260669
0.0283895
0.0282626
0.0320876
0.0269794
0.0308024
0.0225742
0.0253479
0.0197939
0.0160868
0.0178929
0.00948982
0.0190278
0.0017863
0.0217792
-0.00745451
0.0238693
-0.0134003
0.0251875
-0.0168725
0.0248492
-0.0177539
0.023082
-0.0143612
0.0224768
-0.0126914
0.0223262
-0.00994276
0.0223213
-0.00705542
0.0224326
-0.00420313
0.0231717
-0.00135261
0.0234621
0.00134953
0.0232915
0.00359192
0.00554864
0.0295482
0.0160637
0.0267265
0.0348516
0.0250186
0.0325153
0.0233786
0.0272377
0.0203938
0.0196277
0.0203787
0.0100514
0.0232903
-0.000575736
0.0250385
-0.00872038
0.0263714
-0.0143505
0.0270657
-0.0173195
0.0253257
-0.0165132
0.0241186
-0.0140939
0.023076
-0.012195
0.0225183
-0.00969876
0.022061
-0.00678655
0.0220633
-0.00430308
0.0224
-0.00180936
0.0225459
0.000747126
0.0228432
0.00316266
0.00575866
0.02811
0.00509366
0.0267455
0.0360382
0.0250648
0.0341738
0.0253049
0.0272286
0.0249387
0.0208741
0.0253506
0.00965783
0.0268985
-0.00234798
0.0289108
-0.0109389
0.0298487
-0.0155276
0.0284989
-0.0162133
0.0264112
-0.015614
0.025023
-0.0133976
0.0236753
-0.0112494
0.0226418
-0.0089674
0.0219516
-0.0063859
0.0215202
-0.00406134
0.0214297
-0.00184477
0.0216356
0.000374784
0.021826
0.00276146
0.0059234
0.0181096
0.00373791
0.0268872
0.0270529
0.0280746
0.0328369
0.0287119
0.0271699
0.0295724
0.0200162
0.0313597
0.00770254
0.0323214
-0.00333402
0.0314224
-0.0100638
0.0299151
-0.0139415
0.029543
-0.0169963
0.0277236
-0.0147347
0.0257162
-0.0123328
0.0241147
-0.0100523
0.0226854
-0.00788372
0.0218627
-0.00574686
0.0211508
-0.00355949
0.020867
-0.001692
0.0208782
0.000142703
0.0212575
0.00213314
0.00488782
0.0162912
0.00405607
0.0290811
0.0134188
0.0298816
0.0317505
0.0314104
0.0265499
0.0349706
0.0171616
0.0355806
0.00786251
0.0332374
-0.000375224
0.0320643
-0.00856861
0.0320725
-0.0136136
0.0314386
-0.0145767
0.0288921
-0.01272
0.0262696
-0.0105648
0.0243859
-0.00848816
0.0226891
-0.00655175
0.0215977
-0.00480088
0.0208631
-0.00297012
0.0206132
-0.00148787
0.0207236
-3.57307e-05
0.0211389
0.00151906
0.00336707
0.0195517
0.00105695
0.0232786
0.00889205
0.0411579
0.0138516
0.0395325
0.0304955
0.0366845
0.0213544
0.0354249
0.0100186
0.0367778
-0.00168869
0.0369501
-0.0102697
0.0350139
-0.0129542
0.0322095
-0.0110025
0.0293487
-0.00977306
0.0265072
-0.00815532
0.024431
-0.00660059
0.0225436
-0.00502416
0.0212607
-0.00369055
0.0205442
-0.00235462
0.0202498
-0.00119431
0.0203163
-6.96415e-05
0.0207235
0.0010842
0.00239765
0.017472
0.000330492
0.0222306
0.00447614
0.032038
0.00428504
0.0387534
0.0229933
0.0411041
0.018441
0.0423858
0.00863875
0.0439672
-0.00205152
0.0420148
-0.00813377
0.0358029
-0.00774581
0.0326708
-0.00803298
0.0294398
-0.00684882
0.0265122
-0.00555238
0.024277
-0.00442679
0.0222579
-0.00337093
0.0208042
-0.00251127
0.0198616
-0.0015104
0.0196823
-0.00101274
0.0199219
-0.000264264
0.0204101
0.000608051
0.00168657
0.0171125
0.000120153
0.0206803
0.000919595
0.0214187
0.00288888
0.0331483
0.0112584
0.0434567
0.00928632
0.0477697
0.00561467
0.0442812
0.00185572
0.0409311
-0.00525152
0.0364698
-0.00480183
0.0330881
-0.00448226
0.0294525
-0.00338114
0.0263166
-0.00275112
0.0240497
-0.00226578
0.0219472
-0.00165721
0.0203611
-0.00123646
0.0194616
-0.000737215
0.018791
-0.000401739
0.0187329
-0.000192105
0.0192501
0.00014581
0.000767257
0.0168946
0.0178246
0.020609
0.0316982
0.0401953
0.0450668
0.0460878
0.04033
0.0360168
0.0323989
0.0288046
0.0257151
0.0233548
0.0211847
0.0195324
0.0185808
0.018105
0.0179334
0.018274
)
;

boundaryField
{
    inlet
    {
        type            calculated;
        value           nonuniform List<scalar> 
40
(
-0.0041999
-0.0041999
-0.0041999
-0.0041999
-0.0041999
-0.0041999
-0.0041999
-0.0041999
-0.0041999
-0.0041999
-0.0041999
-0.0041999
-0.0041999
-0.0041999
-0.0041999
-0.0041999
-0.0041999
-0.0041999
-0.0041999
-0.0041999
-0.0167996
-0.0167996
-0.0167996
-0.0167996
-0.0167996
-0.0167996
-0.0167996
-0.0167996
-0.0167996
-0.0167996
-0.0167996
-0.0167996
-0.0167996
-0.0167996
-0.0167996
-0.0167996
-0.0167996
-0.0167996
-0.0167996
-0.0167996
)
;
    }
    outlet
    {
        type            calculated;
        value           nonuniform List<scalar> 
20
(
0.0117229
0.0135166
0.0147288
0.0161248
0.0174188
0.0188667
0.0199956
0.0209807
0.0215663
0.0218731
0.0220593
0.0220074
0.022236
0.0225027
0.0223765
0.0218475
0.0213865
0.0208859
0.0200568
0.0192144
)
;
    }
    top
    {
        type            symmetryPlane;
        value           uniform 0;
    }
    bottom
    {
        type            symmetryPlane;
        value           uniform 0;
    }
    step
    {
        type            calculated;
        value           uniform 0;
    }
    defaultFaces
    {
        type            empty;
        value           nonuniform 0();
    }
}


// ************************************************************************* //
