/*--------------------------------*- C++ -*----------------------------------*\
  =========                 |
  \\      /  F ield         | OpenFOAM: The Open Source CFD Toolbox
   \\    /   O peration     | Website:  https://openfoam.org
    \\  /    A nd           | Version:  6.0
     \\/     M anipulation  |
\*---------------------------------------------------------------------------*/
FoamFile
{
    version     2.0;
    format      ascii;
    class       volScalarField;
    location    "3";
    object      T;
}
// * * * * * * * * * * * * * * * * * * * * * * * * * * * * * * * * * * * * * //

dimensions      [0 0 0 1 0 0 0];

internalField   nonuniform List<scalar> 
1200
(
1.00005
1.00016
1.00039
1.0009
1.00204
1.00458
1.01023
1.0229
1.05161
1.11832
1.28016
1.71705
2.78295
2.7834
2.76576
2.75469
2.74556
2.75145
2.74595
2.76903
1.00005
1.00016
1.00039
1.0009
1.00204
1.00457
1.01022
1.02288
1.05157
1.11823
1.27998
1.71657
2.78216
2.78287
2.76499
2.75336
2.74456
2.75126
2.7439
2.76829
1.00005
1.00016
1.00039
1.0009
1.00204
1.00457
1.01021
1.02285
1.0515
1.11806
1.27959
1.71552
2.78031
2.78177
2.76318
2.7516
2.74294
2.75093
2.74269
2.76669
1.00005
1.00016
1.00039
1.0009
1.00203
1.00456
1.01018
1.02279
1.05138
1.11779
1.27896
1.71377
2.77703
2.78024
2.76054
2.74897
2.74128
2.74992
2.74005
2.7647
1.00005
1.00016
1.00039
1.0009
1.00203
1.00454
1.01015
1.02272
1.05121
1.1174
1.27805
1.71121
2.77193
2.77842
2.75693
2.74683
2.73853
2.74779
2.73823
2.7625
1.00005
1.00015
1.00038
1.00089
1.00202
1.00452
1.0101
1.02262
1.05098
1.11688
1.2768
1.70775
2.76458
2.77638
2.75235
2.74361
2.73676
2.74526
2.73502
2.75823
1.00005
1.00015
1.00038
1.00089
1.00201
1.0045
1.01004
1.02249
1.05069
1.1162
1.27519
1.70326
2.75487
2.77386
2.74765
2.74008
2.73407
2.74209
2.73125
2.75428
1.00005
1.00015
1.00038
1.00088
1.00199
1.00446
1.00997
1.02232
1.05032
1.11535
1.27315
1.69762
2.7427
2.77073
2.74268
2.73538
2.73161
2.73913
2.7286
2.75134
1.00005
1.00015
1.00038
1.00087
1.00197
1.00442
1.00988
1.02212
1.04986
1.11429
1.27061
1.69063
2.72816
2.76679
2.73706
2.73104
2.72916
2.73516
2.7226
2.74407
1.00005
1.00015
1.00037
1.00086
1.00195
1.00437
1.00977
1.02187
1.0493
1.11299
1.2675
1.6821
2.71111
2.76187
2.73079
2.7258
2.72459
2.72976
2.71838
2.7394
1.00005
1.00015
1.00037
1.00085
1.00192
1.00431
1.00963
1.02157
1.04862
1.11141
1.26372
1.67174
2.69143
2.75571
2.72377
2.72234
2.72207
2.72576
2.71051
2.72979
1.00005
1.00014
1.00036
1.00084
1.00189
1.00424
1.00947
1.0212
1.04779
1.10949
1.25912
1.65915
2.66886
2.74789
2.71649
2.71683
2.71824
2.71921
2.70513
2.72386
1.00005
1.00014
1.00035
1.00082
1.00185
1.00415
1.00927
1.02076
1.04679
1.10717
1.25354
1.64377
2.64193
2.73812
2.71024
2.71283
2.71299
2.7137
2.69487
2.71102
1.00004
1.00014
1.00034
1.0008
1.0018
1.00404
1.00903
1.02022
1.04558
1.10437
1.24682
1.62493
2.6113
2.72437
2.70571
2.70634
2.70898
2.70542
2.68725
2.70243
1.00004
1.00013
1.00033
1.00077
1.00175
1.00391
1.00875
1.01959
1.04415
1.10104
1.23881
1.60243
2.57366
2.7094
2.70387
2.70061
2.70194
2.69926
2.67368
2.68433
1.00004
1.00013
1.00032
1.00074
1.00168
1.00377
1.00842
1.01885
1.04248
1.09713
1.22939
1.5757
2.53252
2.68958
2.69952
2.695
2.69607
2.68869
2.6637
2.67025
1.00004
1.00012
1.00031
1.00071
1.0016
1.00359
1.00804
1.01799
1.04053
1.09259
1.2184
1.54538
2.47345
2.67008
2.69785
2.69022
2.68781
2.68039
2.64514
2.64502
1.00004
1.00012
1.00029
1.00067
1.00152
1.0034
1.0076
1.01702
1.03831
1.0874
1.20586
1.50992
2.41585
2.63834
2.69361
2.68674
2.68196
2.66675
2.62838
2.61734
1.00003
1.00011
1.00027
1.00063
1.00142
1.00318
1.00712
1.01592
1.03581
1.08157
1.19161
1.47156
2.325
2.61502
2.68909
2.68125
2.67362
2.65538
2.60174
2.57462
1.00003
1.0001
1.00025
1.00058
1.00132
1.00295
1.00659
1.01473
1.03308
1.07515
1.17601
1.42646
2.25042
2.5586
2.67541
2.67727
2.66697
2.63898
2.57672
2.51669
1.00003
1.00008
1.0002
1.00046
1.00104
1.00231
1.00514
1.01143
1.02546
1.05713
1.13076
1.30565
1.82444
2.48619
2.61127
2.61855
2.61029
2.57596
2.45611
2.36993
1.00002
1.00006
1.00016
1.00037
1.00083
1.00185
1.00411
1.00915
1.02041
1.04582
1.10441
1.24476
1.61679
2.47177
2.62865
2.59325
2.57203
2.52816
2.41918
2.31366
1.00002
1.00005
1.00013
1.0003
1.00068
1.00153
1.00341
1.00761
1.01699
1.03815
1.08678
1.20305
1.50186
2.32574
2.55877
2.56364
2.52971
2.47921
2.39193
2.29414
1.00001
1.00004
1.00009
1.00021
1.00048
1.00108
1.00239
1.0053
1.01175
1.02616
1.05868
1.13472
1.31516
1.90019
2.35204
2.48012
2.46659
2.42128
2.35236
2.27704
1.00001
1.00002
1.00006
1.00014
1.00031
1.00069
1.00154
1.0034
1.00754
1.01674
1.03736
1.08458
1.19539
1.49721
2.14827
2.3626
2.38592
2.36759
2.31527
2.26079
1
1.00001
1.00004
1.00008
1.00018
1.00041
1.00091
1.002
1.00442
1.00977
1.02165
1.0483
1.10969
1.25643
1.69293
2.17371
2.29107
2.29567
2.25177
2.22434
1
1.00001
1.00002
1.00005
1.00011
1.00025
1.00055
1.00121
1.00267
1.00591
1.01312
1.02923
1.06587
1.151
1.37386
1.91136
2.18859
2.21012
2.19874
2.17357
1
1
1.00001
1.00002
1.00006
1.00012
1.00027
1.0006
1.00133
1.00294
1.00647
1.01431
1.03178
1.07153
1.16397
1.43178
1.88396
2.07539
2.09595
2.09481
1
1
1.00001
1.00001
1.00003
1.00006
1.00013
1.00028
1.00061
1.00135
1.00295
1.00648
1.01425
1.03151
1.07033
1.1643
1.42063
1.83745
1.98544
1.98728
1
1
1
1.00001
1.00001
1.00003
1.00006
1.00014
1.00031
1.00068
1.0015
1.00328
1.00722
1.0159
1.03525
1.07898
1.18531
1.46036
1.77176
1.83997
1
1
1
1
1.00001
1.00001
1.00002
1.00005
1.00012
1.00025
1.00054
1.00116
1.00248
1.00533
1.01144
1.02476
1.05388
1.12978
1.31729
1.54696
1
1
1
1
1
1
1.00001
1.00002
1.00005
1.0001
1.00023
1.00049
1.00107
1.00231
1.00501
1.01089
1.02378
1.05279
1.11842
1.33131
1
1
1
1
1
1
1.00001
1.00001
1.00003
1.00006
1.00014
1.0003
1.00066
1.00145
1.0032
1.00708
1.01564
1.03527
1.07511
1.22515
1
1
1
1
1
1
1
1.00001
1.00001
1.00003
1.00007
1.00014
1.00032
1.00069
1.00151
1.00332
1.00728
1.01604
1.03507
1.08266
1
1
1
1
1
1
1
1
1.00001
1.00002
1.00005
1.00011
1.00024
1.00054
1.00119
1.00264
1.00586
1.01303
1.02906
1.06624
1
1
1
1
1
1
1
1
1.00001
1.00002
1.00004
1.00008
1.00019
1.00041
1.00092
1.00205
1.00458
1.01022
1.0231
1.05097
1
1
1
1
1
1
1
1
1
1.00001
1.00002
1.00005
1.00011
1.00024
1.00052
1.00115
1.00255
1.00551
1.01322
1.02566
1
1
1
1
1
1
1
1
1
1.00001
1.00002
1.00004
1.0001
1.00022
1.00048
1.00106
1.00236
1.00522
1.01186
1.02478
1
1
1
1
1
1
1
1
1
1.00001
1.00002
1.00004
1.00009
1.0002
1.00044
1.00098
1.00218
1.00482
1.01103
1.02289
1
1
1
1
1
1
1
1
1
1.00001
1.00002
1.00004
1.00009
1.00019
1.00042
1.00093
1.00206
1.0045
1.01052
1.02109
2.20702
2.21322
2.38118
2.53125
2.44098
2.47117
2.49652
2.57337
2.72449
2.96496
3.10025
3.0359
2.85521
2.72419
2.64186
2.62202
2.59309
2.52827
2.38537
2.36182
2.18074
2.2117
2.29393
2.28636
2.25629
2.2579
2.31516
2.36888
2.53121
2.61965
2.80576
2.8597
2.85091
2.80387
2.67118
2.61753
2.61722
2.61633
2.58036
2.44581
2.16824
2.14999
2.08826
2.08353
2.09675
2.12581
2.15655
2.18343
2.2692
2.40364
2.47968
2.61546
2.60101
2.55614
2.43971
2.38507
2.38326
2.43254
2.49947
2.49495
2.1365
2.07261
2.03631
2.02314
2.04562
2.05373
2.06097
2.087
2.17961
2.30017
2.4226
2.53751
2.51628
2.4574
2.354
2.2885
2.26534
2.26471
2.31531
2.41947
2.11823
2.04629
2.00856
1.98809
1.99446
2.00239
2.01637
2.04573
2.10891
2.25172
2.40873
2.43247
2.38265
2.32855
2.2681
2.21979
2.19383
2.1893
2.2044
2.31209
2.10339
2.03574
1.98884
1.96432
1.96811
1.98326
1.99324
2.00961
2.05156
2.18779
2.26019
2.32092
2.27213
2.23357
2.18186
2.13946
2.10523
2.095
2.0967
2.1727
2.07442
2.02325
1.98034
1.954
1.94917
1.96055
1.97026
1.98934
2.02813
2.11961
2.16193
2.23478
2.20799
2.17915
2.12256
2.06818
2.03367
2.02617
2.02324
2.07884
2.04298
2.01271
1.97217
1.95
1.94171
1.95339
1.96667
1.99075
2.02284
2.06007
2.09378
2.13627
2.10386
2.07682
2.0424
2.01381
1.97563
1.96237
1.95497
2.0038
1.99425
1.99147
1.97636
1.93806
1.93521
1.9519
1.97786
1.99734
2.02188
2.02974
2.0266
2.0353
2.02057
1.98549
1.95947
1.94442
1.93097
1.91735
1.90439
1.93438
1.94989
1.971
1.9673
1.93438
1.92953
1.95003
1.9846
1.99854
2.01199
1.98714
1.94783
1.94599
1.95393
1.92586
1.88626
1.87524
1.87606
1.88518
1.87386
1.89378
1.86372
1.92037
1.94191
1.93254
1.9336
1.95105
1.98805
2.00224
1.98107
1.93428
1.8888
1.88861
1.89474
1.87101
1.83623
1.82461
1.82534
1.84563
1.85482
1.87772
1.82263
1.87694
1.9077
1.92254
1.93585
1.97085
1.98654
1.98409
1.95878
1.89952
1.83924
1.8335
1.82795
1.80286
1.78824
1.78079
1.78039
1.80164
1.81979
1.84681
1.72526
1.82502
1.85998
1.90951
1.9367
1.97899
1.99091
1.97688
1.94399
1.88025
1.81951
1.79233
1.76677
1.74333
1.74423
1.74304
1.74348
1.75526
1.77887
1.7916
1.60377
1.78382
1.82057
1.88319
1.94063
1.9781
1.98747
1.96547
1.93292
1.86721
1.79356
1.75881
1.72658
1.70231
1.70567
1.71464
1.71763
1.72503
1.75152
1.7489
1.52621
1.77213
1.82162
1.90781
1.96083
1.98743
2.00131
1.96738
1.92743
1.85136
1.76833
1.73409
1.70565
1.67882
1.67953
1.69148
1.69471
1.69794
1.71292
1.7203
1.4131
1.69565
1.82206
1.94435
1.99285
2.00098
1.9957
1.93936
1.90037
1.83729
1.76185
1.72286
1.69455
1.66718
1.66205
1.67009
1.67223
1.67207
1.67765
1.68354
1.2004
1.59154
1.85792
1.93231
1.9645
1.97903
1.98129
1.93316
1.88675
1.84325
1.77837
1.73435
1.69798
1.66648
1.65481
1.65901
1.65921
1.65481
1.65548
1.65789
1.16655
1.51339
1.88417
2.03213
2.06007
2.06292
2.03509
1.95653
1.9274
1.88613
1.81561
1.76278
1.71159
1.67228
1.65525
1.6571
1.65781
1.65614
1.65063
1.65043
1.15574
1.43516
2.01772
2.16563
2.14679
2.09082
2.05974
2.04142
2.01437
1.93016
1.82951
1.77179
1.72162
1.67699
1.65637
1.65893
1.66673
1.67282
1.67112
1.66207
1.14941
1.42087
2.02027
2.22153
2.2499
2.21344
2.19266
2.16103
2.09418
1.95608
1.85742
1.8031
1.74907
1.70797
1.69821
1.70753
1.72135
1.72375
1.71488
1.68745
)
;

boundaryField
{
    inlet
    {
        type            fixedValue;
        value           uniform 1;
    }
    outlet
    {
        type            inletOutlet;
        inletValue      uniform 1;
        value           nonuniform List<scalar> 
20
(
2.36184
2.44582
2.49494
2.4195
2.31208
2.17271
2.07882
2.0038
1.93438
1.89379
1.87773
1.84685
1.79163
1.74887
1.72036
1.68352
1.65789
1.65043
1.66207
1.68745
)
;
    }
    top
    {
        type            symmetryPlane;
    }
    bottom
    {
        type            symmetryPlane;
    }
    step
    {
        type            zeroGradient;
    }
    defaultFaces
    {
        type            empty;
    }
}


// ************************************************************************* //
