/*--------------------------------*- C++ -*----------------------------------*\
  =========                 |
  \\      /  F ield         | OpenFOAM: The Open Source CFD Toolbox
   \\    /   O peration     | Website:  https://openfoam.org
    \\  /    A nd           | Version:  6.0
     \\/     M anipulation  |
\*---------------------------------------------------------------------------*/
FoamFile
{
    version     2.0;
    format      ascii;
    class       volScalarField;
    location    "3";
    object      T;
}
// * * * * * * * * * * * * * * * * * * * * * * * * * * * * * * * * * * * * * //

dimensions      [0 0 0 1 0 0 0];

internalField   nonuniform List<scalar> 
24000
(
0.884941
0.840263
0.819368
0.801811
0.792442
0.788896
0.789416
0.792867
0.805574
0.842952
0.944029
1.25814
1.94796
2.17243
2.17458
2.16293
2.16878
2.19075
2.44772
2.23754
0.88494
0.840262
0.819368
0.80181
0.792435
0.788879
0.789396
0.792838
0.805516
0.842805
0.943807
1.25693
1.94648
2.1747
2.17809
2.16779
2.17438
2.19674
2.45942
2.25525
0.884938
0.84026
0.819365
0.80181
0.792418
0.788842
0.789352
0.79277
0.805378
0.842457
0.943152
1.25312
1.94166
2.17608
2.18153
2.17246
2.17954
2.202
2.46616
2.26572
0.884935
0.840259
0.819356
0.801809
0.792392
0.788783
0.789282
0.79266
0.805155
0.841897
0.942027
1.2469
1.93409
2.17715
2.18523
2.17747
2.18503
2.20772
2.47059
2.27178
0.884931
0.840263
0.819342
0.801805
0.792357
0.788699
0.789182
0.792504
0.804839
0.841109
0.940381
1.23818
1.92352
2.17798
2.18914
2.18285
2.19099
2.21431
2.4735
2.27456
0.884926
0.840273
0.819324
0.801799
0.792309
0.788591
0.789051
0.792299
0.804425
0.840076
0.938154
1.22687
1.91
2.17843
2.19309
2.18848
2.19736
2.22208
2.476
2.27423
0.884917
0.840289
0.819307
0.801794
0.792244
0.788454
0.788888
0.792045
0.803908
0.838789
0.935288
1.21293
1.8934
2.17878
2.19675
2.19393
2.20365
2.23049
2.47893
2.27428
0.884905
0.840308
0.81929
0.801794
0.792167
0.788289
0.78869
0.791737
0.803286
0.837246
0.931761
1.19629
1.87309
2.17929
2.20022
2.19914
2.20966
2.23889
2.48298
2.27308
0.884891
0.840328
0.819269
0.801801
0.792085
0.788103
0.788463
0.791382
0.802565
0.835462
0.92762
1.17693
1.84905
2.17999
2.20376
2.20414
2.21514
2.24701
2.48764
2.2738
0.884876
0.840351
0.819243
0.801805
0.791992
0.787899
0.788215
0.790995
0.801778
0.833512
0.923088
1.15549
1.82101
2.17968
2.2058
2.20772
2.22023
2.2545
2.49292
2.27717
0.884859
0.840376
0.819214
0.801812
0.791884
0.787677
0.787949
0.790588
0.800969
0.831588
0.918294
1.13926
1.79384
2.17529
2.20485
2.20857
2.22345
2.26091
2.49873
2.28558
0.884841
0.840405
0.81918
0.801818
0.79177
0.787438
0.787662
0.790157
0.800119
0.829669
0.912934
1.12661
1.77543
2.16867
2.20261
2.20799
2.22447
2.26383
2.50171
2.29543
0.884821
0.840434
0.819148
0.801822
0.791649
0.787181
0.787355
0.789698
0.799218
0.82771
0.906915
1.11516
1.757
2.16423
2.19963
2.20618
2.22399
2.26483
2.50132
2.30817
0.884803
0.840462
0.819115
0.801824
0.79152
0.786903
0.787025
0.789208
0.798264
0.825638
0.900946
1.10337
1.73513
2.16091
2.20064
2.20728
2.22357
2.26346
2.49613
2.31808
0.884785
0.840491
0.819081
0.801827
0.791385
0.786604
0.78667
0.788684
0.79726
0.823397
0.895477
1.09136
1.71138
2.15435
2.20189
2.20978
2.22463
2.26195
2.48709
2.325
0.884751
0.840523
0.819042
0.80183
0.791244
0.786287
0.786294
0.78813
0.796206
0.821053
0.889803
1.07903
1.68545
2.1461
2.20425
2.21244
2.22644
2.26101
2.47609
2.32979
0.884711
0.840561
0.818974
0.801857
0.791038
0.78601
0.785853
0.78753
0.795102
0.818611
0.883947
1.06497
1.65942
2.13124
2.20223
2.21425
2.22769
2.26018
2.46181
2.32697
0.884601
0.840701
0.818836
0.801959
0.790789
0.785751
0.785383
0.786898
0.793956
0.816094
0.87792
1.04963
1.62808
2.1103
2.19634
2.21145
2.22629
2.25657
2.4484
2.319
0.884466
0.840845
0.818688
0.802067
0.790537
0.785494
0.784906
0.786251
0.792774
0.813486
0.871642
1.03311
1.59087
2.08488
2.18685
2.20318
2.22614
2.24709
2.41965
2.29924
0.884331
0.840989
0.818544
0.802175
0.790285
0.78522
0.784393
0.78556
0.791525
0.810734
0.864996
1.0146
1.5518
2.05362
2.17739
2.19483
2.226
2.24153
2.38915
2.2424
0.997712
0.990072
0.982381
0.972405
0.967778
0.968146
0.970675
0.980064
1.00633
1.07399
1.24347
1.80623
2.39088
2.53754
2.54081
2.54608
2.5695
2.65009
2.82088
2.67203
0.997712
0.990071
0.982376
0.972405
0.967763
0.968128
0.970648
0.980014
1.00622
1.07373
1.2429
1.80413
2.38963
2.53734
2.54045
2.54642
2.57077
2.65217
2.81912
2.68514
0.997712
0.990072
0.982363
0.972405
0.967733
0.96809
0.970592
0.979911
1.006
1.07319
1.24163
1.7999
2.38633
2.53631
2.53959
2.54624
2.571
2.65242
2.81661
2.69441
0.997709
0.990077
0.982344
0.972403
0.967687
0.968032
0.970505
0.979749
1.00564
1.07235
1.23961
1.79343
2.38096
2.53504
2.53817
2.54562
2.57072
2.651
2.81414
2.70158
0.997701
0.990089
0.982318
0.972401
0.967624
0.967953
0.970385
0.979525
1.00516
1.07118
1.23678
1.78466
2.37306
2.53346
2.53664
2.54438
2.56965
2.64811
2.81148
2.70725
0.997685
0.990108
0.98229
0.972398
0.967543
0.967851
0.970231
0.979237
1.00453
1.06968
1.23305
1.77337
2.36256
2.53079
2.53453
2.54277
2.56768
2.64373
2.80755
2.71177
0.99766
0.990128
0.982258
0.972401
0.967444
0.967726
0.970041
0.978882
1.00376
1.06781
1.22836
1.75938
2.34923
2.52665
2.53124
2.5405
2.56532
2.63888
2.80272
2.71476
0.997629
0.990146
0.982216
0.972407
0.967328
0.96758
0.969817
0.97846
1.00283
1.06557
1.22268
1.74268
2.33271
2.52084
2.52643
2.53705
2.56209
2.63337
2.79648
2.71812
0.997593
0.990168
0.98216
0.97241
0.967194
0.967412
0.969561
0.977977
1.00176
1.06299
1.21605
1.72349
2.31246
2.51265
2.51978
2.5322
2.5578
2.62696
2.78913
2.72028
0.997551
0.990194
0.982098
0.97241
0.967038
0.96722
0.969272
0.977437
1.00058
1.06014
1.20869
1.70247
2.28838
2.50071
2.51094
2.52509
2.5524
2.61963
2.77992
2.72286
0.997505
0.990221
0.982028
0.972412
0.966866
0.967007
0.968953
0.976851
0.999309
1.05712
1.2011
1.67894
2.27055
2.48476
2.49995
2.516
2.54561
2.61111
2.76864
2.723
0.997454
0.990252
0.981952
0.972412
0.966677
0.966776
0.968607
0.976216
0.997947
1.05387
1.19367
1.6432
2.25998
2.47584
2.4906
2.50583
2.53663
2.60127
2.75945
2.72056
0.997399
0.990285
0.981869
0.972412
0.966474
0.966527
0.968232
0.975528
0.996471
1.05033
1.18589
1.59987
2.24054
2.47189
2.48395
2.4969
2.52718
2.58957
2.74722
2.71302
0.997341
0.99032
0.981781
0.972412
0.966254
0.966256
0.967825
0.974778
0.994857
1.0465
1.17682
1.55841
2.20992
2.46675
2.4815
2.48994
2.51716
2.57617
2.73578
2.70708
0.997287
0.99034
0.981717
0.972366
0.966082
0.965924
0.967369
0.973962
0.993103
1.04234
1.16664
1.51529
2.17593
2.45718
2.47899
2.4845
2.50848
2.5626
2.7191
2.69427
0.997299
0.990291
0.981698
0.972279
0.965912
0.965566
0.966878
0.973086
0.991226
1.0379
1.15578
1.4712
2.13358
2.44391
2.47549
2.4815
2.50092
2.54753
2.70324
2.67933
0.997321
0.990253
0.981684
0.972197
0.965741
0.965191
0.96636
0.972166
0.989262
1.03336
1.14412
1.43628
2.09052
2.42378
2.46864
2.4775
2.4938
2.53294
2.67801
2.66073
0.997333
0.990217
0.981664
0.972117
0.965564
0.964807
0.965828
0.971227
0.987276
1.02882
1.13279
1.40414
2.05672
2.40391
2.45572
2.47077
2.48654
2.5167
2.65583
2.62669
0.99734
0.990177
0.981636
0.972031
0.965378
0.964404
0.96527
0.970247
0.98522
1.02416
1.12132
1.3728
2.01817
2.38499
2.44751
2.45821
2.48007
2.49954
2.61541
2.5898
0.99735
0.990137
0.981614
0.971947
0.965192
0.963974
0.964681
0.969224
0.983096
1.01936
1.10977
1.34132
1.97451
2.36005
2.43966
2.44914
2.47158
2.48272
2.5721
2.51394
1.02489
1.03106
1.02834
1.0243
1.02367
1.02367
1.02787
1.04171
1.07777
1.16814
1.39305
2.13364
2.5932
2.69238
2.67351
2.6737
2.67924
2.74885
2.82126
2.71858
1.02489
1.03106
1.02834
1.0243
1.02365
1.02366
1.02785
1.04166
1.07765
1.16787
1.39239
2.1318
2.59256
2.69298
2.67525
2.67558
2.68204
2.7511
2.82006
2.72901
1.02489
1.03106
1.02832
1.02429
1.02363
1.02363
1.0278
1.04156
1.07741
1.16731
1.39098
2.12795
2.59093
2.69329
2.67663
2.67708
2.68442
2.75125
2.81746
2.7377
1.02489
1.03106
1.0283
1.02428
1.02359
1.0236
1.02772
1.04139
1.07704
1.16643
1.38877
2.12189
2.58823
2.69298
2.67759
2.67816
2.68631
2.75038
2.81443
2.74518
1.02489
1.03106
1.02827
1.02427
1.02354
1.02354
1.02762
1.04117
1.07653
1.16522
1.38568
2.11324
2.58441
2.69185
2.67808
2.67876
2.68789
2.74804
2.8111
2.752
1.02488
1.03106
1.02823
1.02425
1.02347
1.02348
1.02749
1.04088
1.07587
1.16363
1.38163
2.1017
2.57935
2.68988
2.67774
2.67865
2.68877
2.74543
2.80788
2.75752
1.02487
1.03106
1.02819
1.02422
1.02338
1.0234
1.02733
1.04053
1.07506
1.16165
1.37656
2.08694
2.57289
2.68712
2.67663
2.67773
2.68915
2.74061
2.80383
2.76265
1.02485
1.03105
1.02814
1.0242
1.02327
1.02329
1.02713
1.0401
1.07408
1.15927
1.37044
2.06856
2.56515
2.68352
2.67468
2.6757
2.6885
2.73602
2.7996
2.76558
1.02484
1.03105
1.02808
1.02416
1.02315
1.02318
1.0269
1.0396
1.07293
1.15648
1.36329
2.04639
2.55586
2.67884
2.67176
2.67284
2.6869
2.72929
2.79527
2.7686
1.02482
1.03104
1.02801
1.02412
1.02301
1.02304
1.02664
1.03903
1.07163
1.15333
1.35523
2.02058
2.54488
2.67251
2.66757
2.66904
2.6847
2.72194
2.78853
2.76842
1.0248
1.03104
1.02793
1.02408
1.02286
1.02289
1.02635
1.0384
1.0702
1.14985
1.34643
1.99183
2.53193
2.66392
2.66238
2.66376
2.68129
2.71531
2.78403
2.76738
1.02478
1.03103
1.02784
1.02403
1.02269
1.02273
1.02603
1.03771
1.06862
1.14601
1.33672
1.96164
2.51252
2.65391
2.65444
2.65803
2.67928
2.70836
2.77428
2.76426
1.02476
1.03102
1.02774
1.02398
1.0225
1.02255
1.02568
1.03694
1.06686
1.14176
1.32561
1.93193
2.48694
2.64082
2.64488
2.65123
2.67493
2.70242
2.76749
2.75892
1.02474
1.03102
1.02764
1.02392
1.02229
1.02235
1.02529
1.03609
1.06491
1.13702
1.31327
1.89729
2.46111
2.62461
2.6334
2.64356
2.66988
2.69249
2.75535
2.74764
1.02471
1.03101
1.02753
1.02386
1.02207
1.02214
1.02487
1.03516
1.06276
1.13179
1.29972
1.85727
2.42971
2.60799
2.61964
2.63368
2.66401
2.68459
2.74402
2.73696
1.0247
1.031
1.02742
1.0238
1.02184
1.02191
1.02442
1.03416
1.06043
1.12609
1.28521
1.80944
2.39866
2.58826
2.60317
2.61925
2.65361
2.67136
2.7301
2.71479
1.02468
1.03099
1.0273
1.02373
1.0216
1.02168
1.02395
1.0331
1.05796
1.12011
1.26973
1.76493
2.35327
2.56468
2.58745
2.60545
2.6441
2.66008
2.7118
2.69555
1.02467
1.03099
1.02719
1.02367
1.02137
1.02145
1.02346
1.03199
1.05541
1.11394
1.25525
1.70691
2.32527
2.54333
2.57023
2.58646
2.62677
2.64147
2.69151
2.65671
1.02465
1.03098
1.02707
1.02361
1.02112
1.02121
1.02295
1.03084
1.05275
1.10751
1.24071
1.64213
2.28939
2.52818
2.5594
2.57293
2.6086
2.6219
2.66296
2.61523
1.02464
1.03098
1.02695
1.02357
1.02087
1.02096
1.02242
1.02963
1.04998
1.10084
1.22586
1.57313
2.24447
2.50455
2.54679
2.55786
2.58921
2.59532
2.63148
2.54194
1.02127
1.03481
1.04113
1.04404
1.04614
1.04923
1.05742
1.07716
1.12378
1.2371
1.52194
2.42528
2.71026
2.75126
2.73274
2.72935
2.73815
2.7644
2.81803
2.7321
1.02127
1.03481
1.04113
1.04404
1.04613
1.04922
1.05739
1.07711
1.12367
1.23684
1.52131
2.42401
2.70986
2.75136
2.7335
2.73048
2.74027
2.76552
2.81728
2.74049
1.02127
1.03481
1.04112
1.04403
1.04611
1.04919
1.05734
1.07701
1.12344
1.23632
1.51996
2.42117
2.70879
2.75111
2.73401
2.73089
2.74214
2.76581
2.81494
2.74759
1.02127
1.0348
1.04111
1.04401
1.04609
1.04915
1.05727
1.07684
1.12307
1.23548
1.51782
2.41637
2.70704
2.7505
2.73432
2.73091
2.74487
2.76542
2.8119
2.75315
1.02127
1.0348
1.0411
1.04399
1.04606
1.0491
1.05716
1.07662
1.12258
1.23432
1.51481
2.40929
2.70457
2.74945
2.73401
2.73069
2.74654
2.76425
2.80832
2.7575
1.02126
1.0348
1.04109
1.04397
1.04602
1.04903
1.05702
1.07633
1.12192
1.23279
1.51084
2.39976
2.70118
2.74832
2.73323
2.72997
2.74876
2.76153
2.80434
2.76055
1.02126
1.03479
1.04107
1.04394
1.04597
1.04894
1.05685
1.07597
1.12111
1.23088
1.50582
2.38745
2.69695
2.74685
2.73251
2.72826
2.74961
2.7592
2.80057
2.76235
1.02126
1.03478
1.04105
1.0439
1.04592
1.04884
1.05665
1.07553
1.12013
1.22854
1.49969
2.3721
2.69179
2.745
2.73112
2.72627
2.74921
2.75449
2.79452
2.76429
1.02126
1.03477
1.04103
1.04386
1.04585
1.04872
1.05641
1.07502
1.11897
1.22578
1.49242
2.35364
2.68544
2.7427
2.72916
2.72396
2.74818
2.75124
2.78897
2.76581
1.02126
1.03476
1.041
1.04382
1.04577
1.04858
1.05613
1.07443
1.11763
1.2226
1.48402
2.332
2.67789
2.73973
2.72668
2.72073
2.74581
2.74502
2.78077
2.76519
1.02126
1.03475
1.04097
1.04376
1.04569
1.04842
1.05582
1.07376
1.11612
1.21899
1.47452
2.30684
2.66928
2.73603
2.72354
2.71745
2.74162
2.7409
2.77348
2.7634
1.02125
1.03473
1.04094
1.0437
1.04559
1.04825
1.05547
1.07301
1.11442
1.21491
1.46384
2.27809
2.65828
2.73185
2.71996
2.71318
2.73683
2.7326
2.76356
2.75908
1.02125
1.03472
1.0409
1.04364
1.04549
1.04805
1.05509
1.07217
1.11251
1.21032
1.45182
2.24478
2.64507
2.72684
2.71648
2.70884
2.73044
2.72711
2.75248
2.75382
1.02125
1.0347
1.04086
1.04357
1.04537
1.04784
1.05465
1.07124
1.11037
1.20514
1.43831
2.20639
2.62903
2.72019
2.71128
2.7027
2.72367
2.71589
2.74065
2.742
1.02125
1.03468
1.04082
1.0435
1.04525
1.04761
1.05418
1.0702
1.10799
1.19936
1.42315
2.16304
2.61003
2.71231
2.7066
2.69781
2.7159
2.70866
2.72485
2.72994
1.02125
1.03467
1.04078
1.04342
1.04512
1.04737
1.05367
1.06907
1.10538
1.19298
1.40646
2.11344
2.58842
2.70077
2.69775
2.68941
2.70671
2.69375
2.71181
2.70731
1.02124
1.03465
1.04073
1.04335
1.04499
1.04714
1.05314
1.06786
1.10255
1.18606
1.38845
2.05903
2.56295
2.68889
2.69
2.68282
2.69668
2.68409
2.69121
2.68217
1.02123
1.03465
1.04068
1.04328
1.04487
1.04694
1.0526
1.06657
1.09955
1.17875
1.36971
2.00022
2.53446
2.66936
2.6762
2.67369
2.68541
2.66447
2.67354
2.64616
1.02122
1.03465
1.04063
1.04322
1.04476
1.04674
1.05204
1.06521
1.09634
1.17094
1.34979
1.93713
2.4972
2.65126
2.66276
2.66571
2.6733
2.6508
2.64528
2.59907
1.02121
1.03464
1.04058
1.04316
1.04465
1.04652
1.05143
1.06376
1.09293
1.16275
1.32786
1.88197
2.44271
2.62608
2.64521
2.65611
2.66102
2.625
2.62042
2.53371
1.0103
1.02137
1.0304
1.03744
1.04272
1.04875
1.0606
1.0858
1.14228
1.27658
1.61974
2.64287
2.7586
2.75762
2.74133
2.73283
2.75672
2.76278
2.8039
2.72757
1.0103
1.02137
1.0304
1.03743
1.04271
1.04874
1.06058
1.08576
1.14218
1.27636
1.6192
2.64213
2.75819
2.75721
2.74109
2.73327
2.75785
2.7631
2.80304
2.73528
1.0103
1.02137
1.0304
1.03743
1.0427
1.04872
1.06054
1.08567
1.14198
1.27591
1.61805
2.64014
2.75727
2.75622
2.74009
2.73309
2.75834
2.76253
2.80092
2.74217
1.0103
1.02137
1.03039
1.03742
1.04268
1.04869
1.06047
1.08553
1.14167
1.27519
1.61619
2.63653
2.75587
2.75488
2.73877
2.73245
2.75821
2.76096
2.79715
2.74771
1.0103
1.02136
1.03039
1.03741
1.04266
1.04865
1.06038
1.08533
1.14122
1.27418
1.61353
2.6311
2.75392
2.75325
2.73734
2.73119
2.75752
2.75961
2.79228
2.7525
1.01029
1.02136
1.03038
1.03739
1.04263
1.04859
1.06026
1.08507
1.14064
1.27283
1.60997
2.62368
2.75139
2.75134
2.73546
2.7298
2.75544
2.7569
2.78727
2.75603
1.01029
1.02136
1.03037
1.03738
1.0426
1.04853
1.06011
1.08475
1.13991
1.27112
1.60541
2.61409
2.74826
2.74916
2.73332
2.72775
2.75305
2.75419
2.78096
2.76014
1.01029
1.02135
1.03036
1.03735
1.04255
1.04844
1.05993
1.08435
1.13902
1.26902
1.59976
2.60234
2.74431
2.74671
2.731
2.72513
2.74927
2.75047
2.77554
2.76018
1.01029
1.02135
1.03034
1.03733
1.04251
1.04835
1.05972
1.08388
1.13795
1.2665
1.59296
2.58802
2.73973
2.74397
2.72791
2.72235
2.74597
2.74512
2.76668
2.7595
1.01029
1.02135
1.03033
1.0373
1.04245
1.04824
1.05947
1.08333
1.13671
1.26355
1.58498
2.57085
2.73442
2.74111
2.72485
2.71829
2.7408
2.74088
2.76084
2.75732
1.01029
1.02134
1.03031
1.03727
1.04239
1.04811
1.05919
1.0827
1.13527
1.26014
1.57574
2.55057
2.72818
2.73781
2.72161
2.71461
2.73555
2.73217
2.74925
2.75287
1.01029
1.02133
1.03029
1.03723
1.04232
1.04797
1.05887
1.08199
1.13363
1.25623
1.56514
2.52729
2.72032
2.73441
2.71734
2.70989
2.72948
2.72636
2.742
2.74622
1.01029
1.02133
1.03027
1.03719
1.04224
1.04781
1.0585
1.08117
1.13177
1.25176
1.55304
2.50028
2.71131
2.73065
2.71413
2.7046
2.72213
2.71505
2.72706
2.7374
1.01029
1.02132
1.03024
1.03715
1.04216
1.04764
1.0581
1.08026
1.12965
1.24669
1.53932
2.46885
2.70103
2.72646
2.70925
2.69923
2.71463
2.70709
2.71804
2.72506
1.01029
1.02131
1.03022
1.03711
1.04207
1.04745
1.05765
1.07924
1.12728
1.24096
1.52385
2.43217
2.68942
2.7225
2.70562
2.69291
2.70586
2.6933
2.69907
2.70974
1.01029
1.02131
1.03019
1.03706
1.04197
1.04726
1.05717
1.0781
1.12462
1.23452
1.50655
2.38982
2.67586
2.71702
2.69996
2.68689
2.69713
2.68252
2.68792
2.6894
1.01029
1.0213
1.03016
1.03702
1.04188
1.04707
1.05665
1.07686
1.12169
1.22737
1.48751
2.33979
2.66071
2.7127
2.69539
2.67953
2.6872
2.66494
2.66471
2.66292
1.01029
1.0213
1.03014
1.03697
1.0418
1.04689
1.0561
1.0755
1.11847
1.21954
1.46659
2.28532
2.64089
2.70532
2.68958
2.67369
2.67712
2.65044
2.65013
2.62811
1.01028
1.0213
1.03011
1.03692
1.04172
1.04671
1.05551
1.07402
1.11494
1.21092
1.44393
2.21966
2.61898
2.69851
2.68408
2.66625
2.66662
2.62881
2.6204
2.58161
1.01028
1.02129
1.0301
1.03688
1.04166
1.04652
1.05487
1.07242
1.11112
1.20154
1.41917
2.14502
2.59008
2.68686
2.6793
2.6611
2.65522
2.61178
2.59973
2.51652
1.00365
1.00931
1.01639
1.02312
1.02911
1.03611
1.05011
1.07937
1.14383
1.29543
1.6925
2.78408
2.77575
2.74574
2.74911
2.74178
2.76214
2.7583
2.80498
2.73331
1.00365
1.00931
1.01639
1.02312
1.02911
1.0361
1.0501
1.07933
1.14376
1.29527
1.69208
2.78359
2.7753
2.74515
2.74875
2.74156
2.76213
2.75853
2.80436
2.73942
1.00365
1.00931
1.01639
1.02312
1.0291
1.03609
1.05006
1.07926
1.14359
1.29491
1.69115
2.7823
2.77447
2.74389
2.74797
2.74098
2.76187
2.75883
2.8027
2.74563
1.00365
1.0093
1.01639
1.02311
1.02909
1.03606
1.05001
1.07915
1.14334
1.29435
1.6896
2.78004
2.77328
2.74209
2.74645
2.73969
2.76036
2.75789
2.79973
2.74811
1.00365
1.0093
1.01639
1.0231
1.02908
1.03603
1.04994
1.07899
1.14298
1.29353
1.68732
2.77674
2.77167
2.73996
2.74442
2.73776
2.75873
2.75565
2.79363
2.75107
1.00365
1.0093
1.01638
1.0231
1.02906
1.03599
1.04984
1.07877
1.1425
1.29244
1.6842
2.77231
2.76952
2.73738
2.74212
2.73546
2.75542
2.75266
2.78958
2.75068
1.00365
1.0093
1.01638
1.02309
1.02904
1.03594
1.04973
1.07851
1.14188
1.29103
1.68014
2.76675
2.76649
2.73415
2.73901
2.73289
2.75288
2.74715
2.78124
2.74987
1.00366
1.0093
1.01637
1.02308
1.02902
1.03589
1.04958
1.07817
1.14112
1.28928
1.67506
2.75937
2.76285
2.73033
2.73593
2.7291
2.74817
2.74364
2.77611
2.74717
1.00366
1.0093
1.01637
1.02307
1.02899
1.03581
1.04941
1.07778
1.14021
1.28715
1.66894
2.74926
2.75908
2.72511
2.73185
2.72575
2.74369
2.7362
2.76518
2.74385
1.00366
1.00929
1.01636
1.02305
1.02896
1.03573
1.0492
1.0773
1.13912
1.2846
1.66171
2.73648
2.75483
2.71949
2.7267
2.72074
2.73763
2.73173
2.75873
2.73675
1.00366
1.00929
1.01635
1.02304
1.02892
1.03564
1.04896
1.07675
1.13785
1.2816
1.65328
2.72119
2.74976
2.71358
2.72131
2.71629
2.73083
2.72253
2.74503
2.7309
1.00366
1.00929
1.01634
1.02302
1.02888
1.03553
1.04868
1.07611
1.13637
1.27811
1.64354
2.7029
2.74474
2.7077
2.71487
2.71081
2.72434
2.71587
2.73705
2.71914
1.00366
1.00929
1.01633
1.023
1.02883
1.0354
1.04837
1.07538
1.13467
1.27408
1.63234
2.68114
2.73924
2.70263
2.70802
2.7043
2.71548
2.7043
2.72059
2.70934
1.00366
1.00929
1.01632
1.02298
1.02878
1.03527
1.04802
1.07455
1.13273
1.26945
1.61957
2.6556
2.73327
2.69797
2.70071
2.69839
2.70851
2.69503
2.71096
2.69186
1.00366
1.00929
1.01631
1.02296
1.02873
1.03513
1.04762
1.07361
1.13053
1.26417
1.60509
2.62605
2.72619
2.6953
2.69325
2.69054
2.69824
2.68087
2.69188
2.67632
1.00366
1.00929
1.01629
1.02294
1.02867
1.03498
1.04719
1.07255
1.12803
1.25817
1.58862
2.59271
2.71711
2.69395
2.68496
2.68345
2.69025
2.66868
2.68001
2.65122
1.00365
1.00929
1.01628
1.02292
1.02862
1.03483
1.04671
1.07136
1.12521
1.25136
1.57001
2.55327
2.70662
2.69416
2.67791
2.67551
2.67913
2.65125
2.65759
2.62683
1.00365
1.00929
1.01627
1.02289
1.02857
1.03468
1.04618
1.07003
1.12203
1.24368
1.54887
2.50933
2.69203
2.69239
2.67169
2.66826
2.67042
2.63562
2.64169
2.58932
1.00365
1.00928
1.01626
1.02287
1.02852
1.03452
1.04561
1.06856
1.11848
1.23501
1.52535
2.45264
2.67735
2.6909
2.66788
2.66014
2.65773
2.61458
2.61264
2.54692
1.00365
1.00928
1.01625
1.02284
1.02847
1.03435
1.04498
1.06693
1.11453
1.22533
1.49838
2.39176
2.65252
2.68712
2.66567
2.65474
2.64812
2.59752
2.58909
2.48167
1.00078
1.0031
1.00639
1.01126
1.01647
1.02383
1.03868
1.07014
1.14021
1.3057
1.75106
2.8577
2.75957
2.77719
2.75158
2.73707
2.75846
2.75379
2.79573
2.72905
1.00078
1.0031
1.00639
1.01126
1.01647
1.02383
1.03867
1.07011
1.14015
1.30557
1.75077
2.85716
2.75928
2.77714
2.75059
2.73608
2.75733
2.75346
2.79493
2.73212
1.00078
1.0031
1.00639
1.01126
1.01647
1.02382
1.03865
1.07006
1.14002
1.3053
1.75009
2.85599
2.75859
2.77678
2.74868
2.73484
2.75599
2.75249
2.79321
2.73683
1.00078
1.0031
1.00639
1.01126
1.01646
1.0238
1.03861
1.06997
1.13983
1.30486
1.7489
2.85408
2.75762
2.776
2.74617
2.73247
2.75337
2.75105
2.79035
2.73757
1.00078
1.0031
1.00639
1.01126
1.01645
1.02378
1.03855
1.06985
1.13954
1.30422
1.7471
2.85131
2.7565
2.77485
2.74307
2.72988
2.75031
2.74818
2.78428
2.73906
1.00078
1.00309
1.00639
1.01125
1.01644
1.02375
1.03848
1.06968
1.13916
1.30335
1.74458
2.84762
2.75535
2.77302
2.73979
2.72641
2.74626
2.7446
2.7787
2.73746
1.00078
1.00309
1.00639
1.01125
1.01643
1.02371
1.03839
1.06947
1.13866
1.3022
1.74124
2.8428
2.75456
2.77
2.73627
2.72359
2.74211
2.7401
2.7714
2.73328
1.00078
1.00309
1.00639
1.01124
1.01641
1.02367
1.03827
1.0692
1.13804
1.30076
1.73699
2.83679
2.75395
2.76609
2.73282
2.71901
2.73653
2.73405
2.76369
2.72955
1.00078
1.00309
1.00638
1.01124
1.0164
1.02361
1.03813
1.06887
1.13728
1.29898
1.73174
2.82958
2.75331
2.7614
2.72897
2.71635
2.73196
2.72793
2.75454
2.72157
1.00078
1.00309
1.00638
1.01123
1.01637
1.02354
1.03796
1.06847
1.13636
1.29683
1.72539
2.8211
2.75258
2.75587
2.72481
2.71084
2.72554
2.72023
2.74452
2.71523
1.00078
1.00309
1.00638
1.01122
1.01635
1.02346
1.03776
1.06801
1.13526
1.29427
1.71776
2.81124
2.75158
2.74926
2.72171
2.70789
2.71968
2.71259
2.73396
2.70463
1.00078
1.00308
1.00638
1.01121
1.01632
1.02337
1.03753
1.06746
1.13398
1.29126
1.70879
2.79975
2.7509
2.74128
2.71595
2.70193
2.71246
2.7025
2.72136
2.69468
1.00079
1.00308
1.00638
1.0112
1.01629
1.02326
1.03726
1.06682
1.13249
1.28775
1.69838
2.78648
2.74989
2.73318
2.71201
2.69785
2.70502
2.69337
2.70941
2.68144
1.00079
1.00307
1.00638
1.01118
1.01625
1.02314
1.03695
1.0661
1.13077
1.28368
1.68641
2.77119
2.74857
2.72163
2.704
2.69145
2.69723
2.68114
2.6941
2.66716
1.0008
1.00306
1.00638
1.01116
1.01622
1.02301
1.03661
1.06527
1.12881
1.27903
1.67274
2.75385
2.74516
2.70996
2.70008
2.68622
2.68846
2.66941
2.68039
2.65029
1.0008
1.00305
1.00638
1.01114
1.01619
1.02287
1.03622
1.06432
1.12657
1.27368
1.65708
2.73476
2.73721
2.69859
2.69484
2.67904
2.67972
2.65415
2.66199
2.63004
1.00081
1.00304
1.00639
1.01112
1.01616
1.02272
1.03578
1.06324
1.12399
1.26749
1.6395
2.70689
2.72875
2.68534
2.68892
2.67457
2.67048
2.64069
2.64396
2.60593
1.00081
1.00303
1.00638
1.0111
1.01611
1.02256
1.03529
1.06201
1.12105
1.26037
1.61941
2.67239
2.71804
2.67609
2.68171
2.66936
2.66177
2.62213
2.61988
2.57382
1.00081
1.00303
1.00637
1.01109
1.01606
1.02239
1.03473
1.06062
1.11769
1.25217
1.59647
2.62853
2.70616
2.66898
2.67538
2.66395
2.65097
2.60716
2.59333
2.53152
1.00081
1.00303
1.00636
1.01107
1.01601
1.0222
1.03412
1.05906
1.11388
1.24283
1.56971
2.57913
2.68712
2.66864
2.66864
2.6595
2.64175
2.58624
2.56097
2.47032
1.00019
1.00069
1.00189
1.0044
1.00835
1.01545
1.03033
1.0627
1.13621
1.31203
1.79364
2.90209
2.74408
2.77939
2.76026
2.73673
2.75382
2.74952
2.77744
2.72884
1.00019
1.00069
1.00189
1.0044
1.00835
1.01544
1.03032
1.06268
1.13617
1.31194
1.79348
2.90149
2.74401
2.77968
2.75864
2.73484
2.75216
2.74801
2.77582
2.73472
1.00019
1.00069
1.00189
1.0044
1.00834
1.01544
1.0303
1.06264
1.13608
1.31173
1.79303
2.90039
2.74377
2.77966
2.75568
2.73286
2.75097
2.74672
2.77255
2.73797
1.00019
1.00069
1.00189
1.0044
1.00834
1.01543
1.03027
1.06258
1.13593
1.3114
1.7922
2.89871
2.74346
2.77944
2.75221
2.72976
2.74833
2.7435
2.76811
2.74239
1.00019
1.00069
1.00189
1.00439
1.00834
1.01541
1.03023
1.06248
1.13572
1.3109
1.79092
2.89638
2.74324
2.77897
2.7484
2.72641
2.7447
2.74049
2.76326
2.74169
1.00019
1.00069
1.00189
1.00439
1.00833
1.01539
1.03018
1.06235
1.13542
1.3102
1.7891
2.89336
2.74307
2.7782
2.74414
2.72289
2.74097
2.73492
2.75587
2.74044
1.00019
1.00069
1.00189
1.00439
1.00832
1.01536
1.0301
1.06219
1.13503
1.30927
1.78669
2.88959
2.74288
2.77709
2.73969
2.71877
2.7357
2.73062
2.74954
2.73745
1.00019
1.00069
1.00189
1.00439
1.0083
1.01532
1.03001
1.06197
1.13454
1.30808
1.78362
2.88502
2.74261
2.77555
2.73477
2.71491
2.73111
2.72324
2.74142
2.73466
1.00019
1.00069
1.00188
1.00438
1.00829
1.01527
1.0299
1.06171
1.13392
1.30658
1.77982
2.87958
2.74216
2.77356
2.72954
2.70998
2.72481
2.7182
2.73314
2.72858
1.00019
1.00069
1.00188
1.00438
1.00827
1.01522
1.02976
1.06139
1.13317
1.30474
1.77524
2.87317
2.74144
2.77079
2.72458
2.70593
2.71902
2.70898
2.72468
2.72423
1.00018
1.00069
1.00188
1.00437
1.00825
1.01515
1.0296
1.061
1.13226
1.30257
1.76874
2.86607
2.74057
2.76695
2.71898
2.70027
2.71149
2.70313
2.71396
2.71493
1.00018
1.00068
1.00187
1.00436
1.00822
1.01507
1.0294
1.06055
1.13118
1.30002
1.76066
2.8572
2.74039
2.7608
2.71468
2.69581
2.70514
2.69213
2.70463
2.70887
1.00018
1.00068
1.00187
1.00435
1.00819
1.01497
1.02917
1.06001
1.12991
1.29702
1.75128
2.84668
2.74027
2.7522
2.71063
2.68976
2.69618
2.6853
2.69082
2.69595
1.00018
1.00068
1.00187
1.00434
1.00815
1.01487
1.02891
1.05938
1.12843
1.2935
1.74047
2.83449
2.73955
2.74346
2.70664
2.68581
2.68973
2.67206
2.68054
2.68735
1.00018
1.00068
1.00186
1.00432
1.00811
1.01474
1.0286
1.05866
1.1267
1.2894
1.72809
2.82044
2.73841
2.73211
2.70293
2.67914
2.67936
2.66412
2.66254
2.66881
1.00018
1.00067
1.00185
1.00431
1.00806
1.0146
1.02824
1.05781
1.12469
1.28461
1.71387
2.80399
2.73752
2.72103
2.69524
2.67534
2.67253
2.64779
2.65048
2.65478
1.00018
1.00067
1.00185
1.00428
1.00801
1.01444
1.02783
1.05683
1.12236
1.27905
1.69737
2.78502
2.73467
2.71389
2.68968
2.66909
2.66249
2.63877
2.62604
2.62764
1.00018
1.00067
1.00184
1.00426
1.00794
1.01426
1.02736
1.0557
1.11966
1.27259
1.6783
2.76273
2.73111
2.69852
2.68195
2.66573
2.65497
2.61999
2.60887
2.59869
1.00018
1.00066
1.00183
1.00423
1.00787
1.01404
1.02682
1.0544
1.11655
1.26509
1.65619
2.73626
2.72396
2.69041
2.6783
2.65843
2.644
2.60912
2.57546
2.55253
1.00017
1.00066
1.00181
1.00419
1.00779
1.0138
1.02621
1.05292
1.11298
1.25641
1.63025
2.70451
2.70961
2.67231
2.67708
2.65659
2.63419
2.58575
2.549
2.49218
1.00006
1.00022
1.0007
1.00199
1.00492
1.01146
1.02598
1.05863
1.13415
1.31741
1.81715
2.92766
2.71605
2.77021
2.76545
2.74241
2.75389
2.7472
2.75519
2.81767
1.00006
1.00022
1.0007
1.00199
1.00492
1.01146
1.02598
1.05861
1.13412
1.31734
1.81704
2.92694
2.71644
2.77125
2.76366
2.7404
2.75203
2.74507
2.75184
2.81103
1.00006
1.00022
1.0007
1.00199
1.00492
1.01145
1.02596
1.05858
1.13405
1.31718
1.81671
2.92561
2.7174
2.77189
2.76051
2.73815
2.75073
2.7445
2.74846
2.80362
1.00006
1.00022
1.0007
1.00198
1.00492
1.01144
1.02594
1.05853
1.13393
1.31692
1.81605
2.92369
2.71887
2.77249
2.75701
2.73397
2.74772
2.74243
2.74475
2.80101
1.00006
1.00022
1.0007
1.00198
1.00491
1.01143
1.02591
1.05845
1.13375
1.31651
1.815
2.9212
2.72072
2.77287
2.75306
2.72989
2.74396
2.74023
2.74203
2.79526
1.00006
1.00022
1.0007
1.00198
1.0049
1.01141
1.02586
1.05835
1.13351
1.31595
1.81349
2.91823
2.72272
2.77318
2.74857
2.72532
2.7392
2.73551
2.7364
2.79121
1.00006
1.00022
1.0007
1.00197
1.00489
1.01138
1.0258
1.05821
1.13319
1.31519
1.81143
2.91478
2.72468
2.77336
2.74325
2.72085
2.7346
2.73227
2.73196
2.78217
1.00006
1.00022
1.0007
1.00197
1.00488
1.01135
1.02572
1.05803
1.13278
1.3142
1.80876
2.91079
2.7265
2.77321
2.73793
2.7158
2.72874
2.72551
2.72686
2.77693
1.00006
1.00022
1.00069
1.00196
1.00486
1.01131
1.02562
1.05781
1.13225
1.31294
1.80541
2.90617
2.72813
2.77272
2.73192
2.71079
2.72308
2.72157
2.71933
2.76553
1.00006
1.00021
1.00069
1.00195
1.00484
1.01125
1.0255
1.05753
1.13161
1.31137
1.80129
2.90084
2.72948
2.77169
2.72614
2.7057
2.71703
2.71343
2.71416
2.759
1.00006
1.00021
1.00069
1.00194
1.00481
1.01119
1.02536
1.05719
1.13082
1.30944
1.79635
2.8947
2.73048
2.7699
2.71964
2.69975
2.70958
2.70851
2.70444
2.74519
1.00006
1.00021
1.00068
1.00193
1.00478
1.01112
1.02518
1.05679
1.12988
1.30712
1.79052
2.88761
2.73098
2.76731
2.71397
2.69474
2.70325
2.69857
2.69817
2.73711
1.00006
1.00021
1.00067
1.00192
1.00474
1.01103
1.02497
1.05631
1.12877
1.30435
1.78372
2.87947
2.73069
2.76429
2.70659
2.68842
2.69483
2.69265
2.6857
2.72018
1.00006
1.00021
1.00067
1.0019
1.0047
1.01092
1.02473
1.05575
1.12746
1.30109
1.77589
2.86995
2.73063
2.75844
2.70194
2.68305
2.68765
2.6804
2.67771
2.70969
1.00005
1.0002
1.00066
1.00188
1.00465
1.0108
1.02445
1.05509
1.12592
1.29726
1.76693
2.85866
2.73057
2.74874
2.69646
2.6769
2.67806
2.67321
2.66146
2.68823
1.00005
1.0002
1.00065
1.00185
1.00459
1.01065
1.02411
1.05433
1.12412
1.29285
1.75521
2.84591
2.73039
2.73958
2.69421
2.67198
2.67045
2.65868
2.65022
2.67197
1.00005
1.00019
1.00063
1.00182
1.00451
1.01049
1.02373
1.05343
1.12201
1.28785
1.73987
2.83045
2.72945
2.72444
2.68903
2.66674
2.66062
2.6498
2.62699
2.64256
1.00005
1.00019
1.00062
1.00179
1.00443
1.01029
1.02327
1.05239
1.11956
1.28199
1.72216
2.81231
2.72686
2.71567
2.68613
2.66271
2.65205
2.6324
2.61027
2.61227
1.00005
1.00018
1.0006
1.00175
1.00434
1.01006
1.02275
1.05119
1.11671
1.27514
1.70158
2.79011
2.7241
2.69908
2.67955
2.65848
2.64186
2.61909
2.57655
2.56382
1.00004
1.00017
1.00059
1.00171
1.00423
1.00981
1.02216
1.04981
1.11342
1.26715
1.67739
2.76234
2.71774
2.69283
2.67838
2.65398
2.63102
2.59859
2.55088
2.5021
1.00006
1.0002
1.00057
1.00156
1.00409
1.01016
1.02431
1.05696
1.13354
1.32099
1.8291
2.95099
2.6786
2.7808
2.77909
2.75124
2.75427
2.75382
2.75353
2.76502
1.00006
1.0002
1.00057
1.00156
1.00409
1.01016
1.0243
1.05695
1.13351
1.32093
1.82904
2.94982
2.67931
2.78157
2.77802
2.74855
2.75234
2.75106
2.75065
2.7622
1.00006
1.0002
1.00057
1.00156
1.00408
1.01016
1.02429
1.05692
1.13345
1.32079
1.82882
2.94751
2.68037
2.7822
2.77528
2.74588
2.75132
2.74982
2.74956
2.75814
1.00006
1.0002
1.00057
1.00156
1.00408
1.01015