/*--------------------------------*- C++ -*----------------------------------*\
  =========                 |
  \\      /  F ield         | OpenFOAM: The Open Source CFD Toolbox
   \\    /   O peration     | Website:  https://openfoam.org
    \\  /    A nd           | Version:  6.0
     \\/     M anipulation  |
\*---------------------------------------------------------------------------*/
FoamFile
{
    version     2.0;
    format      ascii;
    class       volVectorField;
    location    "3";
    object      U;
}
// * * * * * * * * * * * * * * * * * * * * * * * * * * * * * * * * * * * * * //

dimensions      [0 1 -1 0 0 0 0];

internalField   nonuniform List<vector> 
1200
(
(2.99996 1.51143e-08 0)
(2.99987 9.28337e-08 0)
(2.99968 3.05086e-07 0)
(2.99926 8.10811e-07 0)
(2.99832 1.95978e-06 0)
(2.99623 4.52135e-06 0)
(2.99156 1.0192e-05 0)
(2.98107 2.27381e-05 0)
(2.9571 5.06455e-05 0)
(2.90049 0.000113587 0)
(2.75719 0.000259413 0)
(2.3434 0.00061748 0)
(1.10777 0.00173414 0)
(0.180427 0.00564861 0)
(0.252858 0.0113943 0)
(0.380097 0.0206383 0)
(0.442147 0.0270129 0)
(0.358264 0.0297355 0)
(0.158297 0.0211357 0)
(-0.0163476 0.0257067 0)
(2.99996 4.61633e-08 0)
(2.99987 2.83521e-07 0)
(2.99968 9.31722e-07 0)
(2.99926 2.47609e-06 0)
(2.99832 5.98473e-06 0)
(2.99623 1.38074e-05 0)
(2.99157 3.11279e-05 0)
(2.98108 6.94673e-05 0)
(2.95713 0.000154861 0)
(2.90056 0.000348131 0)
(2.75736 0.000800023 0)
(2.34386 0.00193289 0)
(1.10903 0.00550594 0)
(0.181802 0.0182166 0)
(0.256548 0.0344144 0)
(0.386169 0.0562048 0)
(0.445253 0.0654975 0)
(0.359747 0.0647609 0)
(0.176784 0.0458435 0)
(-0.00560689 0.050581 0)
(2.99996 7.96996e-08 0)
(2.99987 4.89488e-07 0)
(2.99968 1.60869e-06 0)
(2.99926 4.27574e-06 0)
(2.99832 1.03374e-05 0)
(2.99624 2.38606e-05 0)
(2.99158 5.38301e-05 0)
(2.98111 0.00012026 0)
(2.95719 0.000268561 0)
(2.9007 0.000605705 0)
(2.75771 0.00140175 0)
(2.34488 0.00343925 0)
(1.11233 0.00996805 0)
(0.186239 0.0335824 0)
(0.263389 0.0606005 0)
(0.393446 0.0933179 0)
(0.447556 0.105641 0)
(0.358174 0.104893 0)
(0.185447 0.0804557 0)
(0.00669879 0.0845015 0)
(2.99996 1.17266e-07 0)
(2.99987 7.20239e-07 0)
(2.99968 2.36736e-06 0)
(2.99926 6.29377e-06 0)
(2.99832 1.52231e-05 0)
(2.99624 3.51622e-05 0)
(2.9916 7.94058e-05 0)
(2.98116 0.000177639 0)
(2.95729 0.000397447 0)
(2.90093 0.000898972 0)
(2.75828 0.00209097 0)
(2.34658 0.00518056 0)
(1.11813 0.0151731 0)
(0.194116 0.0508127 0)
(0.272774 0.0880529 0)
(0.401374 0.128647 0)
(0.449373 0.143073 0)
(0.355189 0.143831 0)
(0.188593 0.118081 0)
(0.0185043 0.121116 0)
(2.99996 1.60138e-07 0)
(2.99987 9.83593e-07 0)
(2.99968 3.23333e-06 0)
(2.99926 8.59774e-06 0)
(2.99833 2.08035e-05 0)
(2.99626 4.80797e-05 0)
(2.99163 0.000108666 0)
(2.98122 0.00024336 0)
(2.95743 0.000545281 0)
(2.90126 0.00123592 0)
(2.75912 0.00288456 0)
(2.34907 0.00718952 0)
(1.1267 0.0211463 0)
(0.205529 0.069487 0)
(0.284231 0.116509 0)
(0.409493 0.162764 0)
(0.450566 0.178185 0)
(0.351677 0.180409 0)
(0.189112 0.157574 0)
(0.0297198 0.158687 0)
(2.99996 2.09467e-07 0)
(2.99987 1.28659e-06 0)
(2.99968 4.22959e-06 0)
(2.99926 1.12482e-05 0)
(2.99834 2.72227e-05 0)
(2.99627 6.29388e-05 0)
(2.99167 0.000142324 0)
(2.9813 0.000318959 0)
(2.95762 0.000715313 0)
(2.90171 0.00162335 0)
(2.76024 0.00379668 0)
(2.35248 0.0094938 0)
(1.13828 0.0279198 0)
(0.220573 0.0895335 0)
(0.297497 0.146027 0)
(0.417498 0.196306 0)
(0.451095 0.211992 0)
(0.348311 0.215665 0)
(0.188687 0.19755 0)
(0.0391453 0.197411 0)
(2.99996 2.66478e-07 0)
(2.99987 1.63673e-06 0)
(2.99968 5.38061e-06 0)
(2.99927 1.43095e-05 0)
(2.99835 3.46348e-05 0)
(2.9963 8.00896e-05 0)
(2.99171 0.000181154 0)
(2.98141 0.000406116 0)
(2.95787 0.000911164 0)
(2.90229 0.00206904 0)
(2.76171 0.00484387 0)
(2.35691 0.0121285 0)
(1.15302 0.0355528 0)
(0.239271 0.11093 0)
(0.312327 0.176629 0)
(0.425214 0.229426 0)
(0.451018 0.244973 0)
(0.345188 0.25012 0)
(0.187949 0.237229 0)
(0.0469861 0.23746 0)
(2.99996 3.32636e-07 0)
(2.99987 2.043e-06 0)
(2.99969 6.71585e-06 0)
(2.99927 1.786e-05 0)
(2.99836 4.3229e-05 0)
(2.99632 9.99686e-05 0)
(2.99178 0.000226138 0)
(2.98154 0.000507018 0)
(2.95818 0.00113768 0)
(2.90301 0.00258372 0)
(2.76356 0.00605006 0)
(2.36248 0.0151484 0)
(1.17106 0.0441605 0)
(0.261579 0.133752 0)
(0.328443 0.208396 0)
(0.432432 0.262038 0)
(0.450403 0.277281 0)
(0.342555 0.284132 0)
(0.187417 0.277152 0)
(0.0537836 0.27905 0)
(2.99996 4.09783e-07 0)
(2.99988 2.5167e-06 0)
(2.99969 8.27261e-06 0)
(2.99928 2.19994e-05 0)
(2.99837 5.32489e-05 0)
(2.99636 0.000123145 0)
(2.99185 0.000278583 0)
(2.98171 0.000624635 0)
(2.95856 0.0014016 0)
(2.90392 0.00318277 0)
(2.76585 0.00745086 0)
(2.36934 0.0186383 0)
(1.19254 0.0539422 0)
(0.287367 0.158202 0)
(0.345459 0.241418 0)
(0.43894 0.293861 0)
(0.449425 0.309031 0)
(0.340713 0.317889 0)
(0.187656 0.317454 0)
(0.0598969 0.321896 0)
(2.99996 5.00155e-07 0)
(2.99988 3.07162e-06 0)
(2.99969 1.00965e-05 0)
(2.99929 2.68507e-05 0)
(2.99839 6.49977e-05 0)
(2.9964 0.000150339 0)
(2.99194 0.000340164 0)
(2.98192 0.000762842 0)
(2.95903 0.00171189 0)
(2.90502 0.00388712 0)
(2.76866 0.00909605 0)
(2.37766 0.0227217 0)
(1.21762 0.0652149 0)
(0.316435 0.184687 0)
(0.362861 0.275743 0)
(0.444479 0.324305 0)
(0.448305 0.34017 0)
(0.33987 0.351549 0)
(0.188841 0.358269 0)
(0.065562 0.366164 0)
(2.99996 6.06196e-07 0)
(2.99988 3.72286e-06 0)
(2.9997 1.22378e-05 0)
(2.9993 3.25503e-05 0)
(2.99842 7.88159e-05 0)
(2.99645 0.000182368 0)
(2.99205 0.000412814 0)
(2.98217 0.000926185 0)
(2.9596 0.00207927 0)
(2.90637 0.0047223 0)
(2.77207 0.0110484 0)
(2.38768 0.027564 0)
(1.24658 0.0784586 0)
(0.348472 0.214017 0)
(0.379862 0.311037 0)
(0.448708 0.352695 0)
(0.447446 0.370777 0)
(0.340365 0.385361 0)
(0.191511 0.399773 0)
(0.0711852 0.412082 0)
(2.99996 7.30071e-07 0)
(2.99988 4.48383e-06 0)
(2.9997 1.47415e-05 0)
(2.99931 3.92213e-05 0)
(2.99844 9.5013e-05 0)
(2.99651 0.000219982 0)
(2.99219 0.000498327 0)
(2.98247 0.00111895 0)
(2.96029 0.00251404 0)
(2.908 0.00571366 0)
(2.77621 0.0133735 0)
(2.39973 0.0333539 0)
(1.28004 0.0943477 0)
(0.383011 0.248083 0)
(0.395384 0.344838 0)
(0.45124 0.379232 0)
(0.447313 0.400941 0)
(0.342406 0.419495 0)
(0.195812 0.442158 0)
(0.0770162 0.460085 0)
(2.99996 8.72918e-07 0)
(2.99988 5.36166e-06 0)
(2.99971 1.76316e-05 0)
(2.99933 4.69299e-05 0)
(2.99848 0.000113756 0)
(2.99658 0.000263585 0)
(2.99235 0.000597669 0)
(2.98284 0.00134342 0)
(2.96113 0.00302168 0)
(2.90997 0.00687443 0)
(2.78122 0.0161046 0)
(2.41431 0.0401882 0)
(1.3196 0.113295 0)
(0.419352 0.289576 0)
(0.408055 0.373044 0)
(0.452335 0.405214 0)
(0.448089 0.430842 0)
(0.346252 0.453908 0)
(0.202371 0.485636 0)
(0.0835263 0.510727 0)
(2.99996 1.03424e-06 0)
(2.99989 6.35337e-06 0)
(2.99972 2.08988e-05 0)
(2.99934 5.56523e-05 0)
(2.99852 0.000134988 0)
(2.99667 0.00031305 0)
(2.99255 0.000710545 0)
(2.98328 0.00159891 0)
(2.96213 0.00360036 0)
(2.91235 0.00819926 0)
(2.78726 0.0192235 0)
(2.43192 0.0479886 0)
(1.3676 0.134802 0)
(0.457455 0.337384 0)
(0.417167 0.39708 0)
(0.454382 0.429786 0)
(0.449894 0.460215 0)
(0.352173 0.488553 0)
(0.211547 0.530601 0)
(0.0910826 0.564899 0)
(2.99996 1.21176e-06 0)
(2.99989 7.44517e-06 0)
(2.99973 2.44983e-05 0)
(2.99936 6.52704e-05 0)
(2.99856 0.000158427 0)
(2.99677 0.000367732 0)
(2.99278 0.000835512 0)
(2.9838 0.00188217 0)
(2.96333 0.00424264 0)
(2.91518 0.00967003 0)
(2.79445 0.0226806 0)
(2.45286 0.0565909 0)
(1.42464 0.15808 0)
(0.498127 0.389983 0)
(0.4217 0.422313 0)
(0.457046 0.451202 0)
(0.453379 0.488299 0)
(0.360682 0.523223 0)
(0.22425 0.577582 0)
(0.100335 0.623725 0)
(2.99997 1.40132e-06 0)
(2.99989 8.61152e-06 0)
(2.99974 2.83471e-05 0)
(2.99939 7.55672e-05 0)
(2.99862 0.000183562 0)
(2.9969 0.000426486 0)
(2.99305 0.000970096 0)
(2.98442 0.00218795 0)
(2.96473 0.00493742 0)
(2.91849 0.0112629 0)
(2.8029 0.0264218 0)
(2.47731 0.0658377 0)
(1.49151 0.182821 0)
(0.541904 0.44752 0)
(0.421026 0.449245 0)
(0.459941 0.47004 0)
(0.459132 0.514599 0)
(0.37255 0.557847 0)
(0.241276 0.627387 0)
(0.111897 0.689008 0)
(2.99997 1.59576e-06 0)
(2.9999 9.80871e-06 0)
(2.99975 3.23025e-05 0)
(2.99942 8.61695e-05 0)
(2.99868 0.00020951 0)
(2.99704 0.000487344 0)
(2.99337 0.00111004 0)
(2.98513 0.00250723 0)
(2.96635 0.00566576 0)
(2.92234 0.0129377 0)
(2.81268 0.0303592 0)
(2.50552 0.0755449 0)
(1.56934 0.208352 0)
(0.589906 0.509799 0)
(0.415477 0.477755 0)
(0.46302 0.487512 0)
(0.467689 0.538399 0)
(0.388798 0.592711 0)
(0.264007 0.67955 0)
(0.127253 0.764261 0)
(2.99997 1.7835e-06 0)
(2.9999 1.09659e-05 0)
(2.99976 3.61345e-05 0)
(2.99945 9.64775e-05 0)
(2.99875 0.000234863 0)
(2.9972 0.000547185 0)
(2.99373 0.00124865 0)
(2.98594 0.00282594 0)
(2.9682 0.00639826 0)
(2.92673 0.0146328 0)
(2.82385 0.034357 0)
(2.5375 0.0853603 0)
(1.65949 0.233929 0)
(0.643013 0.575535 0)
(0.406934 0.509886 0)
(0.466355 0.505705 0)
(0.47959 0.559319 0)
(0.410128 0.628253 0)
(0.294374 0.734323 0)
(0.147736 0.853619 0)
(2.99997 1.94472e-06 0)
(2.99991 1.1958e-05 0)
(2.99978 3.94143e-05 0)
(2.99948 0.000105301 0)
(2.99883 0.000256637 0)
(2.99737 0.000598934 0)
(2.99413 0.00136975 0)
(2.98684 0.00310786 0)
(2.97029 0.00705518 0)
(2.93168 0.0161746 0)
(2.8364 0.0380496 0)
(2.57332 0.0946314 0)
(1.76181 0.258447 0)
(0.703073 0.635461 0)
(0.399524 0.54676 0)
(0.470256 0.526189 0)
(0.495276 0.577555 0)
(0.437669 0.664164 0)
(0.334998 0.794101 0)
(0.1758 0.962087 0)
(2.99997 2.07764e-06 0)
(2.99992 1.2783e-05 0)
(2.99979 4.21873e-05 0)
(2.99952 0.000112935 0)
(2.99891 0.000276009 0)
(2.99757 0.000646418 0)
(2.99456 0.00148454 0)
(2.98783 0.00338424 0)
(2.97257 0.00772123 0)
(2.9371 0.0177888 0)
(2.85025 0.0420109 0)
(2.61294 0.104616 0)
(1.87368 0.285267 0)
(0.764135 0.719441 0)
(0.398191 0.602151 0)
(0.475518 0.553062 0)
(0.515171 0.590269 0)
(0.473496 0.696816 0)
(0.389793 0.858717 0)
(0.214901 1.09745 0)
(2.99998 1.59898e-06 0)
(2.99993 9.8365e-06 0)
(2.99984 3.2445e-05 0)
(2.99962 8.67476e-05 0)
(2.99915 0.00021156 0)
(2.99809 0.00049398 0)
(2.99576 0.00113009 0)
(2.99057 0.00256436 0)
(2.97892 0.00581926 0)
(2.95238 0.0133223 0)
(2.88972 0.0312248 0)
(2.72987 0.0771974 0)
(2.27126 0.213115 0)
(1.18103 0.635105 0)
(0.652162 0.66097 0)
(0.639652 0.653912 0)
(0.676644 0.659151 0)
(0.706355 0.748753 0)
(0.760419 0.926016 0)
(0.685713 1.21194 0)
(2.99998 8.8605e-07 0)
(2.99995 5.44018e-06 0)
(2.99987 1.78718e-05 0)
(2.9997 4.74803e-05 0)
(2.99932 0.000114755 0)
(2.99848 0.000264809 0)
(2.99661 0.00059708 0)
(2.99245 0.00133162 0)
(2.98312 0.00296015 0)
(2.96192 0.00660623 0)
(2.9123 0.0149619 0)
(2.78871 0.0351423 0)
(2.44446 0.0909344 0)
(1.49819 0.247928 0)
(0.728296 0.550297 0)
(0.705659 0.652289 0)
(0.761497 0.698991 0)
(0.861678 0.760089 0)
(1.01916 0.875647 0)
(1.09348 1.02166 0)
(2.99999 8.42264e-07 0)
(2.99996 5.17274e-06 0)
(2.99989 1.70164e-05 0)
(2.99975 4.53557e-05 0)
(2.99944 0.000110204 0)
(2.99874 0.000256147 0)
(2.99718 0.000582651 0)
(2.99371 0.00131239 0)
(2.98594 0.00294765 0)
(2.96829 0.00664037 0)
(2.92717 0.0151248 0)
(2.82589 0.0353633 0)
(2.54781 0.0876137 0)
(1.73447 0.240013 0)
(0.888612 0.625616 0)
(0.776108 0.702198 0)
(0.812491 0.755675 0)
(0.928947 0.799429 0)
(1.11988 0.862572 0)
(1.25506 0.91256 0)
(2.99999 9.1478e-07 0)
(2.99997 5.62412e-06 0)
(2.99992 1.85306e-05 0)
(2.99982 4.9469e-05 0)
(2.9996 0.000120391 0)
(2.99911 0.000280306 0)
(2.99802 0.000638744 0)
(2.9956 0.00144114 0)
(2.99022 0.00324063 0)
(2.97816 0.00729965 0)
(2.95062 0.0165775 0)
(2.88521 0.0384026 0)
(2.71544 0.0928805 0)
(2.22494 0.244115 0)
(1.29532 0.651088 0)
(0.94551 0.752719 0)
(0.929002 0.817262 0)
(1.00881 0.858673 0)
(1.17571 0.881286 0)
(1.31754 0.891027 0)
(2.99999 7.4167e-07 0)
(2.99998 4.56134e-06 0)
(2.99995 1.50275e-05 0)
(2.99989 4.00657e-05 0)
(2.99974 9.72631e-05 0)
(2.99943 0.000225639 0)
(2.99873 0.000511809 0)
(2.99718 0.00114832 0)
(2.99375 0.00256485 0)
(2.9861 0.00572835 0)
(2.96882 0.0128567 0)
(2.92878 0.0292461 0)
(2.83027 0.0686565 0)
(2.55554 0.174194 0)
(1.8442 0.467743 0)
(1.20497 0.802056 0)
(1.08857 0.873005 0)
(1.09668 0.914057 0)
(1.20813 0.921297 0)
(1.3418 0.908517 0)
(3 5.00451e-07 0)
(2.99999 3.0768e-06 0)
(2.99997 1.01298e-05 0)
(2.99993 2.69799e-05 0)
(2.99985 6.54018e-05 0)
(2.99966 0.000151443 0)
(2.99925 0.000342737 0)
(2.99834 0.000766935 0)
(2.99633 0.00170747 0)
(2.99188 0.00379728 0)
(2.98196 0.0084677 0)
(2.95949 0.0190458 0)
(2.90678 0.0437433 0)
(2.77173 0.105922 0)
(2.38773 0.283488 0)
(1.63137 0.69799 0)
(1.318 0.832054 0)
(1.26321 0.906229 0)
(1.29626 0.941393 0)
(1.38207 0.933706 0)
(3 3.23459e-07 0)
(2.99999 1.98873e-06 0)
(2.99998 6.54669e-06 0)
(2.99996 1.74276e-05 0)
(2.99991 4.22053e-05 0)
(2.9998 9.75899e-05 0)
(2.99955 0.000220443 0)
(2.999 0.000492108 0)
(2.99779 0.00109232 0)
(2.99511 0.00241944 0)
(2.98914 0.00536284 0)
(2.97571 0.01194 0)
(2.94486 0.0268901 0)
(2.87041 0.0622628 0)
(2.66891 0.155802 0)
(2.14107 0.407295 0)
(1.56028 0.797535 0)
(1.4296 0.909447 0)
(1.40921 0.960964 0)
(1.44607 0.969797 0)
(3 2.09196e-07 0)
(3 1.28595e-06 0)
(2.99999 4.23374e-06 0)
(2.99998 1.1281e-05 0)
(2.99995 2.73681e-05 0)
(2.9999 6.34415e-05 0)
(2.99977 0.000143754 0)
(2.9995 0.00032206 0)
(2.9989 0.000717612 0)
(2.99758 0.00159551 0)
(2.99465 0.00354762 0)
(2.98815 0.00790769 0)
(2.97355 0.0177424 0)
(2.93988 0.0404249 0)
(2.85641 0.0957967 0)
(2.61152 0.25007 0)
(2.07755 0.618824 0)
(1.7028 0.873597 0)
(1.58833 0.958522 0)
(1.56349 1.0005 0)
(3 1.06997e-07 0)
(3 6.57339e-07 0)
(3 2.16162e-06 0)
(2.99999 5.74951e-06 0)
(2.99998 1.39143e-05 0)
(2.99995 3.21531e-05 0)
(2.99989 7.25804e-05 0)
(2.99977 0.000161893 0)
(2.99949 0.000358946 0)
(2.99889 0.00079361 0)
(2.99756 0.00175313 0)
(2.99464 0.00387601 0)
(2.98818 0.00859773 0)
(2.97373 0.019225 0)
(2.94047 0.0438213 0)
(2.85593 0.105947 0)
(2.62022 0.277677 0)
(2.11556 0.640841 0)
(1.83837 0.847728 0)
(1.75572 0.958719 0)
(3 5.28268e-08 0)
(3 3.24469e-07 0)
(3 1.06653e-06 0)
(3 2.83496e-06 0)
(2.99999 6.85458e-06 0)
(2.99998 1.58201e-05 0)
(2.99995 3.56566e-05 0)
(2.99988 7.93887e-05 0)
(2.99974 0.00017565 0)
(2.99943 0.000387417 0)
(2.99876 0.000853334 0)
(2.99727 0.00187932 0)
(2.994 0.0041437 0)
(2.98675 0.0091666 0)
(2.97047 0.0204375 0)
(2.93277 0.0464561 0)
(2.83743 0.111998 0)
(2.58202 0.288087 0)
(2.18228 0.65237 0)
(1.99596 0.861955 0)
(3 2.77541e-08 0)
(3 1.70572e-07 0)
(3 5.61159e-07 0)
(3 1.49283e-06 0)
(3 3.61219e-06 0)
(2.99999 8.34293e-06 0)
(2.99998 1.88177e-05 0)
(2.99996 4.19273e-05 0)
(2.9999 9.28281e-05 0)
(2.99979 0.000204859 0)
(2.99955 0.000451383 0)
(2.99902 0.000994004 0)
(2.9979 0.00218951 0)
(2.99547 0.00482966 0)
(2.99023 0.0106913 0)
(2.97872 0.0238646 0)
(2.95244 0.054387 0)
(2.88271 0.131882 0)
(2.7135 0.331043 0)
(2.39237 0.621213 0)
(3 1.04677e-08 0)
(3 6.43262e-08 0)
(3 2.11291e-07 0)
(3 5.59576e-07 0)
(3 1.34372e-06 0)
(3 3.07058e-06 0)
(2.99999 6.83316e-06 0)
(2.99998 1.49838e-05 0)
(2.99996 3.2575e-05 0)
(2.99991 7.04376e-05 0)
(2.99981 0.000151741 0)
(2.99959 0.000325949 0)
(2.99912 0.000698504 0)
(2.99808 0.00149411 0)
(2.99584 0.00319319 0)
(2.99094 0.0068342 0)
(2.98013 0.014731 0)
(2.95557 0.0325005 0)
(2.89509 0.0777073 0)
(2.72586 0.174046 0)
(3 4.04434e-09 0)
(3 2.48394e-08 0)
(3 8.15422e-08 0)
(3 2.15936e-07 0)
(3 5.18704e-07 0)
(3 1.1861e-06 0)
(3 2.6422e-06 0)
(2.99999 5.80239e-06 0)
(2.99998 1.26413e-05 0)
(2.99995 2.74163e-05 0)
(2.99989 5.93046e-05 0)
(2.99975 0.000128085 0)
(2.99946 0.000276396 0)
(2.9988 0.000596233 0)
(2.99735 0.0012865 0)
(2.99415 0.00277917 0)
(2.98702 0.00602204 0)
(2.97095 0.0131389 0)
(2.93386 0.0291865 0)
(2.82424 0.0668932 0)
(3 1.96144e-09 0)
(3 1.20534e-08 0)
(3 3.96351e-08 0)
(3 1.05316e-07 0)
(3 2.54325e-07 0)
(3 5.85741e-07 0)
(3 1.31648e-06 0)
(2.99999 2.92137e-06 0)
(2.99999 6.44e-06 0)
(2.99998 1.41493e-05 0)
(2.99995 3.10386e-05 0)
(2.99988 6.80489e-05 0)
(2.99974 0.000149191 0)
(2.99943 0.000327226 0)
(2.99875 0.000718304 0)
(2.99726 0.00157895 0)
(2.99399 0.00347967 0)
(2.98675 0.00770265 0)
(2.97056 0.0172339 0)
(2.92694 0.0393252 0)
(3 7.24726e-10 0)
(3 4.44625e-09 0)
(3 1.45737e-08 0)
(3 3.85408e-08 0)
(3 9.24739e-08 0)
(3 2.11248e-07 0)
(3 4.70128e-07 0)
(3 1.03128e-06 0)
(2.99999 2.24361e-06 0)
(2.99998 4.85683e-06 0)
(2.99996 1.04796e-05 0)
(2.99991 2.2559e-05 0)
(2.9998 4.847e-05 0)
(2.99956 0.000103969 0)
(2.99902 0.000222675 0)
(2.99783 0.000476275 0)
(2.99518 0.00101782 0)
(2.98927 0.00217525 0)
(2.97595 0.00466483 0)
(2.94099 0.0100744 0)
(3 5.48323e-10 0)
(3 3.36813e-09 0)
(3 1.10818e-08 0)
(3 2.95327e-08 0)
(3 7.17107e-08 0)
(3 1.66465e-07 0)
(3 3.77855e-07 0)
(3 8.4815e-07 0)
(2.99999 1.89346e-06 0)
(2.99999 4.21648e-06 0)
(2.99997 9.38016e-06 0)
(2.99993 2.08627e-05 0)
(2.99985 4.64089e-05 0)
(2.99966 0.000103274 0)
(2.99925 0.000229937 0)
(2.99832 0.000512297 0)
(2.99626 0.00114265 0)
(2.99162 0.00255255 0)
(2.98112 0.00572881 0)
(2.95444 0.0129451 0)
(3 3.50656e-10 0)
(3 2.15746e-09 0)
(3 7.11212e-09 0)
(3 1.89749e-08 0)
(3 4.60949e-08 0)
(3 1.0701e-07 0)
(3 2.42905e-07 0)
(3 5.45335e-07 0)
(3 1.21803e-06 0)
(2.99999 2.71474e-06 0)
(2.99998 6.04716e-06 0)
(2.99996 1.34735e-05 0)
(2.99991 3.00398e-05 0)
(2.9998 6.70367e-05 0)
(2.99957 0.000149761 0)
(2.99905 0.000334991 0)
(2.9979 0.000750503 0)
(2.99539 0.00168506 0)
(2.98981 0.00379832 0)
(2.97693 0.00862255 0)
(3 1.16374e-10 0)
(3 7.16853e-10 0)
(3 2.3605e-09 0)
(3 6.25726e-09 0)
(3 1.50133e-08 0)
(3 3.42269e-08 0)
(3 7.58966e-08 0)
(3 1.65674e-07 0)
(3 3.58251e-07 0)
(2.99999 7.69884e-07 0)
(2.99998 1.64687e-06 0)
(2.99996 3.50914e-06 0)
(2.99992 7.4499e-06 0)
(2.99982 1.57583e-05 0)
(2.99961 3.32061e-05 0)
(2.99912 6.97041e-05 0)
(2.99806 0.000145701 0)
(2.99568 0.000303866 0)
(2.99038 0.000627772 0)
(2.97809 0.00129308 0)
(3 4.04904e-11 0)
(3 2.47868e-10 0)
(3 8.13586e-10 0)
(3 2.17593e-09 0)
(3 5.32821e-09 0)
(3 1.25133e-08 0)
(3 2.87915e-08 0)
(3 6.55831e-08 0)
(3 1.48673e-07 0)
(2.99999 3.36298e-07 0)
(2.99999 7.59994e-07 0)
(2.99997 1.71678e-06 0)
(2.99993 3.87698e-06 0)
(2.99984 8.75254e-06 0)
(2.99964 1.97521e-05 0)
(2.9992 4.45566e-05 0)
(2.99822 0.000100513 0)
(2.99603 0.00022661 0)
(2.99113 0.000513311 0)
(2.97982 0.00116737 0)
(3 4.74982e-12 0)
(3 2.91327e-11 0)
(3 9.63513e-11 0)
(3 2.63304e-10 0)
(3 6.65807e-10 0)
(3 1.62708e-09 0)
(3 3.92075e-09 0)
(3 9.4139e-09 0)
(3 2.26515e-08 0)
(2.99999 5.47832e-08 0)
(2.99999 1.33331e-07 0)
(2.99997 3.26527e-07 0)
(2.99993 8.03913e-07 0)
(2.99984 1.98674e-06 0)
(2.99965 4.91976e-06 0)
(2.99923 1.21808e-05 0)
(2.9983 3.01189e-05 0)
(2.99623 7.40331e-05 0)
(2.99163 0.000182755 0)
(2.98111 0.000449316 0)
(1.27348 1.11884 0)
(1.45837 0.931608 0)
(1.47946 0.543466 0)
(1.40228 0.101102 0)
(1.46625 -0.0451029 0)
(1.414 -0.0192738 0)
(1.3747 -0.00129594 0)
(1.26488 -0.00734681 0)
(0.938501 -0.0575456 0)
(0.190309 -0.0777832 0)
(-0.154276 0.0225632 0)
(0.527119 0.00185661 0)
(0.777312 -0.0548947 0)
(0.873825 -0.0423071 0)
(0.948942 -0.0331103 0)
(1.0137 -0.0228222 0)
(1.05143 -0.00455771 0)
(1.08269 0.00860993 0)
(1.15101 0.00406767 0)
(1.2398 0.00243303 0)
(1.47488 0.847897 0)
(1.58684 0.491761 0)
(1.59263 0.194757 0)
(1.62586 0.0396463 0)
(1.6603 -0.018349 0)
(1.6476 -0.00361394 0)
(1.57397 -0.0098175 0)
(1.44903 -0.0503692 0)
(1.28637 -0.111785 0)
(0.950469 -0.100836 0)
(0.579388 0.0368826 0)
(0.657014 0.0795902 0)
(0.885115 -0.00664896 0)
(1.09218 -0.085646 0)
(1.22782 -0.127593 0)
(1.31039 -0.123345 0)
(1.3542 -0.080237 0)
(1.36933 -0.0145247 0)
(1.41093 0.0260294 0)
(1.4816 0.0357986 0)
(1.55565 0.736692 0)
(1.69011 0.442879 0)
(1.79146 0.294946 0)
(1.83699 0.24378 0)
(1.83827 0.158058 0)
(1.81855 0.0465964 0)
(1.76739 -0.0628944 0)
(1.70603 -0.124798 0)
(1.59638 -0.139265 0)
(1.35165 -0.0881171 0)
(1.11917 0.0821073 0)
(1.07708 0.0720013 0)
(1.17729 -0.00639668 0)
(1.31184 -0.123087 0)
(1.42218 -0.176267 0)
(1.49448 -0.158377 0)
(1.54444 -0.0970141 0)
(1.57989 -0.019671 0)
(1.60719 0.0476635 0)
(1.6552 0.0701894 0)
(1.60076 0.76553 0)
(1.74082 0.576178 0)
(1.84989 0.403115 0)
(1.89822 0.263099 0)
(1.88942 0.142544 0)
(1.87826 0.0134835 0)
(1.86257 -0.0774869 0)
(1.82086 -0.12685 0)
(1.71663 -0.141116 0)
(1.48148 -0.087497 0)
(1.25536 0.102797 0)
(1.24583 -0.00380856 0)
(1.34572 -0.102395 0)
(1.45964 -0.165767 0)
(1.55373 -0.172628 0)
(1.62544 -0.133642 0)
(1.67901 -0.0694989 0)
(1.71496 -0.00735143 0)
(1.7449 0.0483186 0)
(1.78344 0.0979061 0)
(1.62304 0.805189 0)
(1.76161 0.646123 0)
(1.87042 0.474345 0)
(1.92869 0.306152 0)
(1.93506 0.193537 0)
(1.93127 0.0854618 0)
(1.91757 -0.023511 0)
(1.88059 -0.117005 0)
(1.79474 -0.174296 0)
(1.60455 -0.154569 0)
(1.36104 0.06445 0)
(1.37706 -0.0737507 0)
(1.49959 -0.144161 0)
(1.59368 -0.166984 0)
(1.6759 -0.15264 0)
(1.74602 -0.118413 0)
(1.79386 -0.0745152 0)
(1.82738 -0.0129398 0)
(1.85888 0.0455074 0)
(1.89169 0.112106 0)
(1.64183 0.840096 0)
(1.77339 0.700882 0)
(1.87918 0.537909 0)
(1.94429 0.369979 0)
(1.96038 0.243596 0)
(1.95495 0.116328 0)
(1.94473 -0.00941596 0)
(1.91937 -0.119171 0)
(1.85882 -0.201866 0)
(1.73137 -0.237136 0)
(1.55414 -0.148391 0)
(1.54053 -0.170943 0)
(1.6265 -0.170325 0)
(1.70801 -0.155493 0)
(1.78238 -0.13155 0)
(1.84123 -0.103194 0)
(1.88574 -0.0614698 0)
(1.91678 0.000202063 0)
(1.94528 0.0610864 0)
(1.97529 0.114787 0)
(1.6644 0.876181 0)
(1.78403 0.748387 0)
(1.88277 0.589081 0)
(1.95108 0.417455 0)
(1.97482 0.279498 0)
(1.97137 0.146724 0)
(1.96447 0.0181247 0)
(1.94478 -0.104478 0)
(1.89464 -0.220276 0)
(1.79488 -0.326191 0)
(1.66704 -0.347482 0)
(1.65615 -0.258005 0)
(1.73137 -0.190295 0)
(1.80047 -0.14231 0)
(1.86427 -0.115629 0)
(1.9193 -0.0916722 0)
(1.9632 -0.0485335 0)
(1.99413 0.010946 0)
(2.018 0.072306 0)
(2.04575 0.116371 0)
(1.68913 0.928819 0)
(1.7947 0.792991 0)
(1.88372 0.621958 0)
(1.95273 0.448719 0)
(1.98266 0.303082 0)
(1.98222 0.163612 0)
(1.97823 0.0296012 0)
(1.96076 -0.108162 0)
(1.91441 -0.266912 0)
(1.84368 -0.435363 0)
(1.77986 -0.463271 0)
(1.77989 -0.306514 0)
(1.84064 -0.211741 0)
(1.89033 -0.138373 0)
(1.93573 -0.0880574 0)
(1.98271 -0.0553527 0)
(2.0282 -0.0213761 0)
(2.05948 0.028618 0)
(2.07841 0.0850355 0)
(2.10515 0.127063 0)
(1.74511 0.957492 0)
(1.81239 0.813218 0)
(1.88801 0.631346 0)
(1.95664 0.468706 0)
(1.98995 0.322251 0)
(1.99163 0.177471 0)
(1.98799 0.0322398 0)
(1.96833 -0.127973 0)
(1.92146 -0.33863 0)
(1.88913 -0.49944 0)
(1.88056 -0.522366 0)
(1.89233 -0.388345 0)
(1.93357 -0.279126 0)
(1.97423 -0.182306 0)
(2.00728 -0.0962754 0)
(2.03985 -0.0274749 0)
(2.07867 0.015995 0)
(2.11187 0.0494972 0)
(2.12946 0.0930579 0)
(2.15089 0.13469 0)
(1.81539 0.949145 0)
(1.82992 0.867806 0)
(1.89089 0.701119 0)
(1.96187 0.518225 0)
(1.99591 0.360023 0)
(1.99749 0.1994 0)
(1.99115 0.0318797 0)
(1.96476 -0.164976 0)
(1.93257 -0.393473 0)
(1.9312 -0.508518 0)
(1.9516 -0.542148 0)
(1.98174 -0.472709 0)
(2.01789 -0.357237 0)
(2.049 -0.245266 0)
(2.07405 -0.139989 0)
(2.09646 -0.0427048 0)
(2.11872 0.0313147 0)
(2.14402 0.0691939 0)
(2.16436 0.100474 0)
(2.18396 0.132121 0)
(1.94985 0.863468 0)
(1.88419 0.881294 0)
(1.90417 0.783064 0)
(1.96026 0.610792 0)
(1.99701 0.42598 0)
(1.99759 0.235423 0)
(1.9873 0.0308484 0)
(1.9576 -0.219735 0)
(1.94798 -0.396001 0)
(1.96555 -0.499649 0)
(2.00149 -0.535371 0)
(2.04544 -0.497497 0)
(2.08679 -0.405787 0)
(2.11617 -0.296266 0)
(2.13761 -0.188706 0)
(2.15407 -0.0845849 0)
(2.16723 0.00789039 0)
(2.17968 0.0761211 0)
(2.19353 0.118094 0)
(2.21194 0.146601 0)
(2.06295 0.774567 0)
(1.95095 0.854276 0)
(1.93167 0.820882 0)
(1.96109 0.691758 0)
(1.98991 0.48784 0)
(1.98854 0.265733 0)
(1.97242 0.00563266 0)
(1.95643 -0.235481 0)
(1.96221 -0.387941 0)
(1.98957 -0.482797 0)
(2.03915 -0.510017 0)
(2.09804 -0.478353 0)
(2.1482 -0.410976 0)
(2.1778 -0.318608 0)
(2.19617 -0.218478 0)
(2.20893 -0.118968 0)
(2.21794 -0.0239257 0)
(2.2235 0.061139 0)
(2.22824 0.124168 0)
(2.2394 0.16501 0)
(2.17989 0.789631 0)
(2.02439 0.842477 0)
(1.97415 0.836421 0)
(1.96916 0.731152 0)
(1.97665 0.515148 0)
(1.97188 0.255776 0)
(1.96044 -0.0202348 0)
(1.95807 -0.225994 0)
(1.97339 -0.37517 0)
(2.01492 -0.455375 0)
(2.07794 -0.467122 0)
(2.14545 -0.440119 0)
(2.19787 -0.394918 0)
(2.23096 -0.323896 0)
(2.24911 -0.230381 0)
(2.25961 -0.138227 0)
(2.26514 -0.0475862 0)
(2.26592 0.0381249 0)
(2.26496 0.112488 0)
(2.27078 0.166878 0)
(2.36762 0.662358 0)
(2.10314 0.807347 0)
(2.02175 0.835863 0)
(1.97806 0.714758 0)
(1.96351 0.473669 0)
(1.95746 0.214462 0)
(1.95173 -0.0344605 0)
(1.95834 -0.234545 0)
(1.98829 -0.362407 0)
(2.04482 -0.415589 0)
(2.11728 -0.420881 0)
(2.18445 -0.401431 0)
(2.23702 -0.366935 0)
(2.27459 -0.311308 0)
(2.29492 -0.229585 0)
(2.30291 -0.145801 0)
(2.30704 -0.0620316 0)
(2.30692 0.0219022 0)
(2.30187 0.103911 0)
(2.30637 0.170301 0)
(2.54261 0.248288 0)
(2.161 0.730032 0)
(2.04924 0.816711 0)
(1.96913 0.632479 0)
(1.94308 0.399752 0)
(1.94427 0.159743 0)
(1.94808 -0.0567884 0)
(1.96877 -0.219802 0)
(2.0148 -0.327646 0)
(2.0805 -0.374776 0)
(2.15021 -0.383277 0)
(2.21472 -0.365943 0)
(2.26703 -0.333547 0)
(2.30742 -0.2845 0)
(2.33047 -0.21872 0)
(2.33837 -0.141006 0)
(2.34197 -0.0643699 0)
(2.34257 0.0114043 0)
(2.33733 0.0902445 0)
(2.34399 0.168883 0)
(2.66405 0.181072 0)
(2.24234 0.768009 0)
(2.05964 0.846474 0)
(1.94372 0.561142 0)
(1.93068 0.35632 0)
(1.93655 0.160868 0)
(1.94893 -0.0138708 0)
(1.97938 -0.171805 0)
(2.03123 -0.281782 0)
(2.09919 -0.331299 0)
(2.1711 -0.341889 0)
(2.23563 -0.324885 0)
(2.28781 -0.292817 0)
(2.3291 -0.248224 0)
(2.35479 -0.195433 0)
(2.36411 -0.126892 0)
(2.36665 -0.0614481 0)
(2.368 0.00279144 0)
(2.36627 0.0705877 0)
(2.37488 0.148591 0)
(2.82158 0.119625 0)
(2.44036 0.602503 0)
(2.05985 0.774009 0)
(1.93821 0.558688 0)
(1.9442 0.379677 0)
(1.95223 0.187741 0)
(1.96449 -0.00516472 0)
(1.98709 -0.164576 0)
(2.03761 -0.252124 0)
(2.10645 -0.281613 0)
(2.17915 -0.286806 0)
(2.24449 -0.271419 0)
(2.29686 -0.243038 0)
(2.33845 -0.20503 0)
(2.36604 -0.162081 0)
(2.37687 -0.106483 0)
(2.379 -0.0542817 0)
(2.38161 -0.00332649 0)
(2.38351 0.0499661 0)
(2.3959 0.111101 0)
(2.86025 0.0218552 0)
(2.54877 0.234044 0)
(2.09334 0.429138 0)
(1.9028 0.442401 0)
(1.91205 0.304611 0)
(1.91646 0.13846 0)
(1.92489 -0.0234328 0)
(1.95464 -0.141312 0)
(2.017 -0.194165 0)
(2.09354 -0.213963 0)
(2.1677 -0.215132 0)
(2.23496 -0.204106 0)
(2.2895 -0.18479 0)
(2.33307 -0.159507 0)
(2.36321 -0.130124 0)
(2.37555 -0.0861513 0)
(2.37723 -0.0431112 0)
(2.38036 -0.000257302 0)
(2.3844 0.0427756 0)
(2.4001 0.0886309 0)
(2.87469 0.0109912 0)
(2.60607 0.0760637 0)
(2.05529 0.184281 0)
(1.74781 0.346304 0)
(1.77538 0.217959 0)
(1.80981 0.100355 0)
(1.84252 -0.00498524 0)
(1.89 -0.081332 0)
(1.96686 -0.110185 0)
(2.04808 -0.123754 0)
(2.12807 -0.125648 0)
(2.20007 -0.122976 0)
(2.25909 -0.118074 0)
(2.30713 -0.111104 0)
(2.34365 -0.100955 0)
(2.36111 -0.0763116 0)
(2.36409 -0.0469189 0)
(2.36813 -0.0154508 0)
(2.37368 0.0189337 0)
(2.3912 0.0586208 0)
(2.88092 0.00359016 0)
(2.62582 0.0187687 0)
(2.04446 0.0689547 0)
(1.6382 0.165304 0)
(1.61953 0.123325 0)
(1.65794 0.0854906 0)
(1.69084 0.0488544 0)
(1.75279 0.019243 0)
(1.85183 0.00118159 0)
(1.95279 -0.00848424 0)
(2.04865 -0.0140194 0)
(2.13399 -0.0193413 0)
(2.20522 -0.0245396 0)
(2.26368 -0.0285252 0)
(2.30939 -0.0310511 0)
(2.33392 -0.0277463 0)
(2.34008 -0.0194573 0)
(2.34525 -0.00924804 0)
(2.3521 0.00386482 0)
(2.3708 0.0225133 0)
)
;

boundaryField
{
    inlet
    {
        type            fixedValue;
        value           uniform (3 0 0);
    }
    outlet
    {
        type            inletOutlet;
        inletValue      uniform (3 0 0);
        value           nonuniform List<vector> 
20
(
(1.2398 0.00243303 0)
(1.4816 0.0357986 0)
(1.6552 0.0701894 0)
(1.78344 0.0979061 0)
(1.89169 0.112106 0)
(1.97529 0.114787 0)
(2.04575 0.116371 0)
(2.10515 0.127063 0)
(2.15089 0.13469 0)
(2.18396 0.132121 0)
(2.21194 0.146601 0)
(2.2394 0.16501 0)
(2.27078 0.166878 0)
(2.30637 0.170301 0)
(2.34399 0.168883 0)
(2.37488 0.148591 0)
(2.3959 0.111101 0)
(2.4001 0.0886309 0)
(2.3912 0.0586208 0)
(2.3708 0.0225133 0)
)
;
    }
    top
    {
        type            symmetryPlane;
    }
    bottom
    {
        type            symmetryPlane;
    }
    step
    {
        type            slip;
    }
    defaultFaces
    {
        type            empty;
    }
}


// ************************************************************************* //
