/*--------------------------------*- C++ -*----------------------------------*\
  =========                 |
  \\      /  F ield         | OpenFOAM: The Open Source CFD Toolbox
   \\    /   O peration     | Website:  https://openfoam.org
    \\  /    A nd           | Version:  6.0
     \\/     M anipulation  |
\*---------------------------------------------------------------------------*/
FoamFile
{
    version     2.0;
    format      ascii;
    class       volVectorField;
    location    "3";
    object      U;
}
// * * * * * * * * * * * * * * * * * * * * * * * * * * * * * * * * * * * * * //

dimensions      [0 1 -1 0 0 0 0];

internalField   nonuniform List<vector> 
24000
(
(3.08432 -3.36039e-08 -0.1396)
(3.11007 6.26036e-07 -0.149927)
(3.1238 -6.91196e-08 -0.153055)
(3.13399 3.95214e-06 -0.152604)
(3.13966 2.56879e-06 -0.15313)
(3.14056 2.27451e-05 -0.153844)
(3.13943 4.51058e-05 -0.15443)
(3.13537 7.49668e-05 -0.156324)
(3.12344 0.000126992 -0.161313)
(3.09124 0.000236779 -0.173512)
(3.00336 0.000488619 -0.20296)
(2.73449 0.00122084 -0.285573)
(1.9948 0.0033987 -0.452119)
(1.69325 0.0029318 -0.468135)
(1.68543 0.0018644 -0.463302)
(1.68154 0.00102737 -0.461301)
(1.65189 0.000371819 -0.464007)
(1.54756 -0.000286746 -0.472325)
(1.20848 -0.000959196 -0.532346)
(1.00735 -0.00175265 -0.464804)
(3.08432 -6.09901e-08 -0.1396)
(3.11007 1.994e-06 -0.149927)
(3.1238 -1.53608e-07 -0.153055)
(3.134 1.2292e-05 -0.152603)
(3.13966 8.39452e-06 -0.153127)
(3.14057 7.099e-05 -0.15384)
(3.13944 0.00014062 -0.154425)
(3.13539 0.000235091 -0.156314)
(3.12349 0.00040238 -0.161291)
(3.09136 0.000761049 -0.173459)
(3.0036 0.00160683 -0.202857)
(2.73549 0.00409805 -0.285175)
(1.99688 0.0110969 -0.451331)
(1.68895 0.0105506 -0.468187)
(1.68094 0.00755095 -0.463703)
(1.67719 0.00520852 -0.462055)
(1.64756 0.00343721 -0.465)
(1.54257 0.00188726 -0.473452)
(1.18951 0.00109132 -0.534326)
(0.985496 -0.00173023 -0.468589)
(3.08432 -5.1796e-08 -0.1396)
(3.11007 3.62719e-06 -0.149927)
(3.1238 -1.44406e-07 -0.153053)
(3.134 2.13724e-05 -0.152603)
(3.13968 1.5256e-05 -0.153121)
(3.1406 0.000124152 -0.153834)
(3.13948 0.00024532 -0.154415)
(3.13545 0.000412288 -0.156295)
(3.12361 0.00071238 -0.161248)
(3.09163 0.00136332 -0.173355)
(3.00427 0.00292704 -0.202641)
(2.73861 0.00753436 -0.284247)
(2.00329 0.0201042 -0.449803)
(1.68454 0.0206532 -0.46803)
(1.67606 0.0161133 -0.463829)
(1.6728 0.0124166 -0.462479)
(1.64382 0.00962176 -0.465587)
(1.53906 0.00751125 -0.474072)
(1.17973 0.00773457 -0.534804)
(0.972536 0.00261009 -0.470687)
(3.08432 -1.77216e-07 -0.139599)
(3.11007 5.54965e-06 -0.149927)
(3.12381 -4.48184e-08 -0.15305)
(3.134 3.11763e-05 -0.152602)
(3.1397 2.27109e-05 -0.153112)
(3.14065 0.000181865 -0.153824)
(3.13954 0.000358502 -0.154401)
(3.13554 0.000603856 -0.156265)
(3.1238 0.00104828 -0.161183)
(3.09208 0.00201685 -0.173198)
(3.0054 0.00436061 -0.20231)
(2.74373 0.0111971 -0.282828)
(2.01375 0.0297475 -0.447674)
(1.67927 0.0320021 -0.467825)
(1.67011 0.0263022 -0.463805)
(1.66749 0.0213768 -0.462745)
(1.63954 0.0175336 -0.465992)
(1.53578 0.0148482 -0.474515)
(1.17566 0.0162225 -0.534432)
(0.964644 0.00939902 -0.471589)
(3.08432 -7.09966e-07 -0.139598)
(3.11007 7.60417e-06 -0.149928)
(3.12381 1.88897e-07 -0.153046)
(3.13401 4.17972e-05 -0.152601)
(3.13973 3.09164e-05 -0.1531)
(3.14071 0.000243949 -0.153811)
(3.13962 0.000480651 -0.154381)
(3.13567 0.000810566 -0.156226)
(3.12407 0.00141011 -0.161095)
(3.09272 0.00271995 -0.172985)
(3.00702 0.00590396 -0.201851)
(2.75091 0.0150777 -0.280902)
(2.02875 0.0400034 -0.444892)
(1.67284 0.0446348 -0.46764)
(1.66288 0.0380067 -0.463681)
(1.66105 0.0320527 -0.462909)
(1.63439 0.0272737 -0.466281)
(1.53233 0.0241009 -0.4749)
(1.1764 0.0265464 -0.533478)
(0.961015 0.0188589 -0.471637)
(3.08432 -1.75648e-06 -0.139596)
(3.11007 9.4215e-06 -0.149931)
(3.12382 4.48944e-07 -0.15304)
(3.13401 5.30592e-05 -0.152599)
(3.13976 4.01752e-05 -0.153083)
(3.14079 0.000309741 -0.153795)
(3.13972 0.000610681 -0.154356)
(3.13584 0.00103109 -0.156175)
(3.12442 0.00179564 -0.160982)
(3.09355 0.003468 -0.172711)
(3.00919 0.00754775 -0.201251)
(2.7602 0.0191376 -0.278439)
(2.04883 0.0506563 -0.441447)
(1.66549 0.0584125 -0.467457)
(1.65431 0.0510301 -0.463446)
(1.65328 0.0442286 -0.462968)
(1.62804 0.0386855 -0.466468)
(1.52821 0.0351549 -0.475314)
(1.18067 0.0383581 -0.532173)
(0.961147 0.0302743 -0.470886)
(3.08432 -2.99305e-06 -0.139594)
(3.11007 1.07501e-05 -0.149934)
(3.12382 2.35081e-07 -0.153033)
(3.13402 6.44596e-05 -0.152597)
(3.13981 5.00754e-05 -0.153063)
(3.1409 0.000378186 -0.153774)
(3.13985 0.000746234 -0.154325)
(3.13605 0.00126112 -0.156113)
(3.12486 0.00219697 -0.160842)
(3.0946 0.004245 -0.172374)
(3.01194 0.00925628 -0.200499)
(2.77162 0.0232851 -0.275428)
(2.07426 0.0613945 -0.437308)
(1.65743 0.0730465 -0.467337)
(1.64466 0.0652024 -0.463031)
(1.6443 0.0578311 -0.462841)
(1.62038 0.0517788 -0.466474)
(1.52292 0.0480643 -0.475683)
(1.18665 0.0516287 -0.530735)
(0.963811 0.0436209 -0.470031)
(3.08433 -3.93077e-06 -0.139591)
(3.11007 1.1868e-05 -0.149939)
(3.12383 -6.25755e-07 -0.153027)
(3.13403 7.51218e-05 -0.152596)
(3.13986 5.96825e-05 -0.153038)
(3.14102 0.000446582 -0.15375)
(3.14 0.000882404 -0.154289)
(3.13631 0.00149222 -0.156039)
(3.12538 0.00259858 -0.160677)
(3.09587 0.00501833 -0.171973)
(3.01529 0.0109535 -0.199591)
(2.78523 0.0273373 -0.271859)
(2.10539 0.0717817 -0.432348)
(1.64882 0.0882324 -0.46733)
(1.63385 0.0804084 -0.462421)
(1.63427 0.0728927 -0.462521)
(1.61155 0.0666414 -0.466278)
(1.51624 0.0628458 -0.475889)
(1.19212 0.0663886 -0.529301)
(0.967432 0.0588516 -0.468738)
(3.08433 -4.54311e-06 -0.139588)
(3.11007 1.32178e-05 -0.149943)
(3.12384 -1.32223e-06 -0.153018)
(3.13404 8.48268e-05 -0.152596)
(3.13993 6.89582e-05 -0.153011)
(3.14116 0.000510752 -0.153722)
(3.14019 0.00101055 -0.154247)
(3.1366 0.00170888 -0.155954)
(3.126 0.00296946 -0.160486)
(3.09734 0.00571585 -0.171513)
(3.01923 0.0124524 -0.198537)
(2.80103 0.0307884 -0.267738)
(2.14235 0.0806866 -0.426586)
(1.64058 0.104264 -0.467352)
(1.62115 0.0971829 -0.461577)
(1.62243 0.0899207 -0.462028)
(1.60097 0.0835445 -0.465855)
(1.50768 0.0794227 -0.475893)
(1.19662 0.082229 -0.52779)
(0.971034 0.0759658 -0.46763)
(3.08433 -5.02843e-06 -0.139584)
(3.11008 1.47122e-05 -0.149949)
(3.12386 -1.44916e-06 -0.153008)
(3.13405 9.39848e-05 -0.152596)
(3.14 7.89442e-05 -0.152981)
(3.14133 0.000567456 -0.153692)
(3.14039 0.00112155 -0.154202)
(3.13694 0.00189107 -0.155862)
(3.12668 0.00326227 -0.160277)
(3.09897 0.00620965 -0.171006)
(3.02361 0.0133542 -0.197375)
(2.81839 0.0321335 -0.263065)
(2.18451 0.084539 -0.420024)
(1.63596 0.122509 -0.466939)
(1.6096 0.116572 -0.460237)
(1.61053 0.109567 -0.461087)
(1.58951 0.10272 -0.465175)
(1.4977 0.0977368 -0.475529)
(1.19622 0.0993594 -0.525999)
(0.971959 0.0953204 -0.466821)
(3.08433 -5.49979e-06 -0.13958)
(3.11008 1.6297e-05 -0.149954)
(3.12387 -1.26219e-06 -0.152998)
(3.13406 0.000102604 -0.152595)
(3.14008 8.93271e-05 -0.152946)
(3.14151 0.000617005 -0.15366)
(3.14061 0.00121517 -0.154153)
(3.13729 0.00203828 -0.155763)
(3.12739 0.00347967 -0.160055)
(3.10062 0.00651763 -0.170481)
(3.02804 0.0137251 -0.196128)
(2.83106 0.0316174 -0.259)
(2.22218 0.0829271 -0.413998)
(1.64067 0.141687 -0.465361)
(1.60325 0.1382 -0.458073)
(1.60113 0.131846 -0.459386)
(1.5788 0.124462 -0.463878)
(1.48751 0.118374 -0.474631)
(1.18906 0.119294 -0.523715)
(0.966431 0.118217 -0.466617)
(3.08433 -5.89285e-06 -0.139576)
(3.11008 1.78669e-05 -0.149961)
(3.12388 -9.57996e-07 -0.152986)
(3.13408 0.000110908 -0.152594)
(3.14016 9.87643e-05 -0.152909)
(3.14169 0.000664687 -0.153624)
(3.14085 0.00130431 -0.1541)
(3.13766 0.00217728 -0.155657)
(3.12812 0.00368613 -0.159816)
(3.10228 0.00682099 -0.169934)
(3.03258 0.0141288 -0.194747)
(2.8412 0.0313029 -0.255407)
(2.24802 0.0817083 -0.409251)
(1.64773 0.159263 -0.463781)
(1.60192 0.159942 -0.455664)
(1.59641 0.15557 -0.457188)
(1.57132 0.148463 -0.461798)
(1.47935 0.14181 -0.472636)
(1.18232 0.143035 -0.520668)
(0.959488 0.14597 -0.465945)
(3.08434 -5.97948e-06 -0.139571)
(3.11008 1.9286e-05 -0.149968)
(3.1239 -7.55426e-07 -0.152973)
(3.1341 0.000119087 -0.152593)
(3.14026 0.000106354 -0.15287)
(3.1419 0.000713975 -0.153584)
(3.1411 0.00139809 -0.154042)
(3.13805 0.00232579 -0.155541)
(3.12888 0.00391657 -0.159556)
(3.10399 0.00719332 -0.169348)
(3.03746 0.014719 -0.193188)
(2.85098 0.0320567 -0.251761)
(2.27293 0.0832975 -0.403657)
(1.65525 0.17519 -0.46292)
(1.60147 0.180456 -0.453425)
(1.59316 0.179601 -0.454674)
(1.5663 0.174412 -0.459093)
(1.47437 0.168733 -0.469771)
(1.17968 0.172076 -0.516422)
(0.954564 0.180081 -0.465286)
(3.08434 -5.70625e-06 -0.139566)
(3.11008 2.03714e-05 -0.149975)
(3.12392 -3.45431e-07 -0.15296)
(3.13412 0.000126279 -0.152591)
(3.14036 0.000111623 -0.152828)
(3.14212 0.000763015 -0.153541)
(3.14137 0.0014937 -0.153979)
(3.13847 0.00247931 -0.155416)
(3.12968 0.00415901 -0.159271)
(3.10577 0.0075923 -0.168702)
(3.04216 0.0153578 -0.191484)
(2.86094 0.0333879 -0.247846)
(2.29828 0.086571 -0.396722)
(1.663 0.191458 -0.462396)
(1.60035 0.200325 -0.452047)
(1.58909 0.203609 -0.452739)
(1.56177 0.201976 -0.456381)
(1.47132 0.19956 -0.466196)
(1.18144 0.207201 -0.510831)
(0.953149 0.221497 -0.463567)
(3.08434 -4.79582e-06 -0.139561)
(3.11008 2.08225e-05 -0.149981)
(3.12393 6.17627e-07 -0.152947)
(3.13413 0.000132132 -0.152589)
(3.14046 0.000114919 -0.152783)
(3.14235 0.000808386 -0.153493)
(3.14165 0.00158458 -0.153911)
(3.13891 0.00262743 -0.155279)
(3.13052 0.00439519 -0.158963)
(3.10761 0.00798601 -0.167988)
(3.04643 0.0160386 -0.18975)
(2.87082 0.0348783 -0.243661)
(2.32416 0.0906304 -0.388923)
(1.67117 0.209914 -0.461299)
(1.59836 0.221261 -0.450698)
(1.58444 0.228064 -0.451113)
(1.55742 0.230462 -0.454064)
(1.46943 0.233051 -0.462619)
(1.18627 0.24786 -0.504258)
(0.955472 0.271622 -0.460536)
(3.08434 -4.82832e-06 -0.139555)
(3.11008 2.17703e-05 -0.149988)
(3.12395 8.77716e-07 -0.152932)
(3.13415 0.0001395 -0.152586)
(3.14057 0.00011839 -0.152737)
(3.1426 0.000848839 -0.153443)
(3.14195 0.00166729 -0.153838)
(3.13937 0.00276372 -0.155134)
(3.1314 0.00461368 -0.158636)
(3.10953 0.00836052 -0.167228)
(3.05083 0.0167646 -0.187917)
(2.88122 0.0366954 -0.239316)
(2.35221 0.0953988 -0.380244)
(1.68138 0.232538 -0.459777)
(1.59622 0.245116 -0.449394)
(1.57943 0.253991 -0.449501)
(1.55327 0.260253 -0.451903)
(1.46877 0.269122 -0.459092)
(1.1944 0.294477 -0.497095)
(0.961661 0.333389 -0.456382)
(3.08435 -1.10054e-05 -0.139547)
(3.11008 2.39181e-05 -0.149997)
(3.12397 -1.43087e-06 -0.152913)
(3.13417 0.000148826 -0.152587)
(3.14069 0.000121297 -0.15268)
(3.14285 0.000884807 -0.153399)
(3.14227 0.0017417 -0.153754)
(3.13985 0.00288604 -0.15498)
(3.13232 0.00480673 -0.158294)
(3.11153 0.00868869 -0.166438)
(3.05552 0.0174352 -0.186039)
(2.89269 0.0386594 -0.234758)
(2.38156 0.101764 -0.371623)
(1.6956 0.261018 -0.456593)
(1.59519 0.273379 -0.447002)
(1.57552 0.282967 -0.447614)
(1.55035 0.292623 -0.449831)
(1.46999 0.308904 -0.45572)
(1.20647 0.34853 -0.489176)
(0.972632 0.409747 -0.450053)
(3.08435 -1.96623e-05 -0.139529)
(3.11009 2.38525e-05 -0.150026)
(3.12399 -6.205e-06 -0.15288)
(3.13419 0.000154969 -0.152602)
(3.14081 0.000117779 -0.152614)
(3.14312 0.000912862 -0.153359)
(3.1426 0.00180536 -0.153666)
(3.14035 0.00299715 -0.15482)
(3.13327 0.00499482 -0.157945)
(3.1136 0.00903013 -0.165636)
(3.06047 0.0181605 -0.184157)
(2.90559 0.0407069 -0.230153)
(2.41719 0.109063 -0.362966)
(1.71783 0.293473 -0.451715)
(1.59805 0.305776 -0.443472)
(1.57484 0.31633 -0.444655)
(1.5486 0.329719 -0.44705)
(1.47411 0.354701 -0.451783)
(1.22421 0.413508 -0.481264)
(0.989292 0.506399 -0.4418)
(3.08435 -2.49278e-05 -0.139507)
(3.1101 2.0569e-05 -0.150056)
(3.12401 -1.18568e-05 -0.152846)
(3.13422 0.000155784 -0.152619)
(3.14094 0.000105706 -0.152549)
(3.14341 0.000930623 -0.153321)
(3.14295 0.00186328 -0.153577)
(3.14088 0.00311641 -0.154656)
(3.13426 0.00521916 -0.157584)
(3.11578 0.00946741 -0.164808)
(3.06573 0.0191266 -0.182219)
(2.91984 0.043333 -0.22534)
(2.45712 0.117901 -0.352959)
(1.74773 0.328508 -0.446107)
(1.60562 0.341559 -0.439131)
(1.57772 0.354615 -0.440516)
(1.54673 0.374049 -0.444051)
(1.48159 0.409249 -0.44665)
(1.25083 0.493312 -0.47048)
(1.0139 0.633912 -0.43047)
(3.08435 -3.27834e-05 -0.139485)
(3.1101 1.71127e-05 -0.150087)
(3.12404 -1.81378e-05 -0.152813)
(3.13424 0.000150722 -0.152637)
(3.14106 9.7387e-05 -0.152484)
(3.1437 0.000854852 -0.153278)
(3.14331 0.00200182 -0.153479)
(3.14143 0.00343773 -0.154486)
(3.13531 0.00573603 -0.157212)
(3.11809 0.0103243 -0.163954)
(3.07141 0.0208679 -0.180216)
(2.93574 0.0479137 -0.220189)
(2.50063 0.133597 -0.342322)
(1.78305 0.372416 -0.439393)
(1.61512 0.392356 -0.434706)
(1.5808 0.412513 -0.436186)
(1.54421 0.439835 -0.440721)
(1.48395 0.487933 -0.441082)
(1.27793 0.601446 -0.458164)
(1.04759 0.813151 -0.411439)
(3.00695 3.04628e-07 -0.0225744)
(3.0172 7.65076e-07 -0.0336147)
(3.02674 1.63392e-06 -0.0381788)
(3.03634 6.64722e-06 -0.0412141)
(3.04115 9.91162e-06 -0.0435587)
(3.04153 3.19986e-05 -0.0442827)
(3.03999 5.90346e-05 -0.0450177)
(3.03297 0.000101996 -0.0466224)
(3.01195 0.000186734 -0.0500293)
(2.95589 0.000375299 -0.0574308)
(2.80233 0.000829222 -0.0740456)
(2.35959 0.00205716 -0.122369)
(1.43258 0.00569401 -0.186063)
(1.14867 0.00546935 -0.152351)
(1.14256 0.00522059 -0.149359)
(1.14446 0.00515653 -0.14865)
(1.11654 0.00503406 -0.149717)
(0.980665 0.00494279 -0.15419)
(0.524347 0.0084375 -0.163659)
(0.672469 0.00118099 -0.131542)
(3.00695 9.55083e-07 -0.0225744)
(3.0172 2.38081e-06 -0.0336148)
(3.02674 4.9818e-06 -0.0381779)
(3.03634 2.02585e-05 -0.0412142)
(3.04116 3.0229e-05 -0.0435564)
(3.04154 9.71641e-05 -0.044284)
(3.04001 0.000179153 -0.045017)
(3.03301 0.00030991 -0.0466187)
(3.01203 0.000568594 -0.05002)
(2.9561 0.00114621 -0.0574082)
(2.80286 0.00254589 -0.0739918)
(2.36113 0.00634243 -0.122177)
(1.43476 0.0175232 -0.185756)
(1.14955 0.0169754 -0.152127)
(1.14108 0.0162028 -0.149079)
(1.1406 0.0159834 -0.148426)
(1.11076 0.0156832 -0.1496)
(0.974509 0.0154624 -0.154127)
(0.519214 0.024491 -0.163056)
(0.647382 0.00591293 -0.131968)
(3.00695 1.68782e-06 -0.0225742)
(3.0172 4.1819e-06 -0.0336151)
(3.02675 8.49318e-06 -0.038176)
(3.03634 3.45459e-05 -0.0412143)
(3.04118 5.159e-05 -0.0435519)
(3.04157 0.000165461 -0.0442872)
(3.04006 0.000304881 -0.0450165)
(3.03309 0.000528487 -0.0466126)
(3.01221 0.00097259 -0.0500036)
(2.95653 0.00196725 -0.0573687)
(2.80401 0.00439116 -0.0738975)
(2.36463 0.0109911 -0.121862)
(1.43975 0.0305108 -0.185295)
(1.15263 0.0300713 -0.151787)
(1.14139 0.0290483 -0.148612)
(1.13847 0.0287491 -0.148022)
(1.10708 0.0283607 -0.149292)
(0.971408 0.0280398 -0.153869)
(0.517791 0.0418119 -0.162155)
(0.629385 0.0142025 -0.131994)
(3.00695 2.46604e-06 -0.022574)
(3.0172 6.15096e-06 -0.0336157)
(3.02675 1.21728e-05 -0.0381732)
(3.03635 4.96401e-05 -0.0412147)
(3.0412 7.4093e-05 -0.043545)
(3.04162 0.000238317 -0.0442925)
(3.04012 0.000438991 -0.0450162)
(3.03321 0.00076214 -0.046604)
(3.01249 0.00140588 -0.0499799)
(2.95722 0.00285021 -0.0573111)
(2.80581 0.00637958 -0.0737595)
(2.37019 0.0160124 -0.121417)
(1.44766 0.0445476 -0.184665)
(1.15651 0.0443467 -0.151294)
(1.14327 0.0432159 -0.147993)
(1.13788 0.0428607 -0.147468)
(1.10495 0.0424002 -0.148827)
(0.970311 0.0420519 -0.153395)
(0.518779 0.0600342 -0.161027)
(0.61495 0.0250608 -0.131716)
(3.00695 3.18754e-06 -0.0225735)
(3.01721 8.17482e-06 -0.0336167)
(3.02676 1.60514e-05 -0.0381694)
(3.03636 6.56157e-05 -0.0412152)
(3.04124 9.79403e-05 -0.0435356)
(3.04169 0.000316135 -0.0443001)
(3.04022 0.000582762 -0.0450163)
(3.03338 0.00101284 -0.0465928)
(3.01287 0.00187122 -0.0499482)
(2.95816 0.00380042 -0.0572343)
(2.80834 0.00852602 -0.0735734)
(2.37802 0.0214538 -0.120835)
(1.45873 0.0597646 -0.183846)
(1.16127 0.0599316 -0.150744)
(1.14617 0.0586356 -0.147267)
(1.13855 0.0583406 -0.146766)
(1.10417 0.0580189 -0.1482)
(0.970717 0.0579837 -0.15272)
(0.521654 0.0798723 -0.159701)
(0.603339 0.0390285 -0.131181)
(3.00695 3.77084e-06 -0.0225726)
(3.01721 1.012e-05 -0.0336182)
(3.02677 2.01806e-05 -0.0381646)
(3.03638 8.24577e-05 -0.041216)
(3.04129 0.000123275 -0.0435235)
(3.04179 0.000398247 -0.04431)
(3.04034 0.000735242 -0.0450166)
(3.03361 0.00127933 -0.0465787)
(3.01337 0.00236618 -0.0499081)
(2.9594 0.00481265 -0.0571364)
(2.81166 0.0108187 -0.0733338)
(2.38833 0.0272831 -0.120102)
(1.47325 0.0760012 -0.182821)
(1.16817 0.0768108 -0.150109)
(1.15047 0.0752749 -0.146412)
(1.14046 0.0750791 -0.145936)
(1.10453 0.0751167 -0.147413)
(0.972171 0.0758017 -0.151841)
(0.526007 0.101484 -0.158141)
(0.594548 0.0559769 -0.130416)
(3.00695 4.25984e-06 -0.0225712)
(3.01721 1.19369e-05 -0.0336201)
(3.02679 2.44473e-05 -0.0381589)
(3.0364 0.000100144 -0.0412172)
(3.04135 0.000149933 -0.0435089)
(3.0419 0.000483504 -0.0443225)
(3.04049 0.000893802 -0.0450171)
(3.03388 0.00155674 -0.0465616)
(3.01399 0.00288136 -0.049859)
(2.96093 0.00586634 -0.0570162)
(2.81581 0.0132085 -0.0730365)
(2.40129 0.0333663 -0.119202)
(1.49159 0.0929057 -0.181572)
(1.17808 0.0947329 -0.14938)
(1.15706 0.093162 -0.1454)
(1.14421 0.0931368 -0.144963)
(1.10636 0.0936903 -0.1465)
(0.974661 0.0954301 -0.150818)
(0.531671 0.124883 -0.156374)
(0.587607 0.0758303 -0.129418)
(3.00696 4.81078e-06 -0.0225696)
(3.01721 1.37247e-05 -0.033622)
(3.0268 2.86176e-05 -0.0381519)
(3.03642 0.000118147 -0.0412188)
(3.04143 0.00017757 -0.0434916)
(3.04203 0.000569957 -0.0443375)
(3.04067 0.00105404 -0.0450179)
(3.03422 0.00183632 -0.0465414)
(3.01473 0.00339872 -0.0498002)
(2.96278 0.00692064 -0.0568725)
(2.82083 0.0155942 -0.0726784)
(2.41703 0.0394235 -0.118134)
(1.51414 0.109797 -0.180082)
(1.19171 0.113385 -0.148541)
(1.16696 0.112427 -0.144207)
(1.15051 0.112787 -0.143825)
(1.11007 0.113891 -0.145447)
(0.978448 0.116806 -0.149642)
(0.538843 0.149958 -0.154378)
(0.58256 0.0985645 -0.128266)
(3.00696 5.51044e-06 -0.0225677)
(3.01722 1.56562e-05 -0.0336243)
(3.02682 3.27677e-05 -0.0381435)
(3.03644 0.000135476 -0.0412205)
(3.04151 0.000205433 -0.0434718)
(3.04219 0.000654245 -0.0443548)
(3.04088 0.00120907 -0.0450189)
(3.0346 0.00210432 -0.0465178)
(3.0156 0.00388769 -0.0497316)
(2.96493 0.00789975 -0.0567044)
(2.82669 0.0177744 -0.0722577)
(2.43552 0.0448625 -0.116899)
(1.54144 0.125026 -0.178313)
(1.20995 0.132866 -0.14755)
(1.1816 0.133289 -0.142823)
(1.16053 0.134325 -0.142526)
(1.11633 0.135874 -0.144246)
(0.98389 0.139825 -0.148301)
(0.547822 0.176676 -0.152169)
(0.578406 0.124809 -0.126888)
(3.00697 6.29502e-06 -0.0225656)
(3.01722 1.77285e-05 -0.0336269)
(3.02684 3.70833e-05 -0.0381341)
(3.03647 0.000151808 -0.0412221)
(3.04161 0.000232748 -0.0434494)
(3.04237 0.000732232 -0.0443738)
(3.04112 0.0013504 -0.0450195)
(3.03504 0.00234389 -0.0464904)
(3.01657 0.00431039 -0.0496521)
(2.96733 0.00870545 -0.0565096)
(2.83323 0.0194649 -0.0717689)
(2.45653 0.0487168 -0.115466)
(1.5745 0.133673 -0.176191)
(1.23355 0.153762 -0.14643)
(1.20079 0.156415 -0.141264)
(1.17446 0.158089 -0.141054)
(1.12557 0.159691 -0.142888)
(0.991948 0.164274 -0.146767)
(0.561661 0.204574 -0.149654)
(0.575051 0.15539 -0.125348)
(3.00697 7.07475e-06 -0.0225632)
(3.01722 1.98271e-05 -0.0336297)
(3.02687 4.14581e-05 -0.0381236)
(3.03651 0.000167309 -0.0412238)
(3.04171 0.000259264 -0.0434249)
(3.04256 0.000803497 -0.0443939)
(3.04139 0.00147686 -0.045019)
(3.03551 0.00255431 -0.0464578)
(3.01761 0.00467169 -0.0495584)
(2.96989 0.00936222 -0.0562793)
(2.84011 0.0207455 -0.0712)
(2.4795 0.0514824 -0.113626)
(1.61563 0.13704 -0.17393)
(1.25523 0.174088 -0.145819)
(1.22133 0.180768 -0.139591)
(1.1915 0.1839 -0.139483)
(1.13785 0.185586 -0.141344)
(1.00354 0.190432 -0.14506)
(0.583774 0.231612 -0.146782)
(0.572208 0.191645 -0.123517)
(3.00698 7.85664e-06 -0.0225606)
(3.01723 2.18863e-05 -0.0336329)
(3.02689 4.57573e-05 -0.0381122)
(3.03654 0.000182237 -0.0412254)
(3.04183 0.000284691 -0.0433985)
(3.04277 0.000873284 -0.0444149)
(3.04167 0.00160038 -0.0450172)
(3.03603 0.00276121 -0.04642)
(3.01873 0.00503485 -0.0494511)
(2.97259 0.0100461 -0.0560137)
(2.84741 0.0221308 -0.0705873)
(2.50184 0.0550365 -0.110939)
(1.66336 0.1434 -0.171884)
(1.2667 0.194102 -0.146125)
(1.23467 0.204669 -0.138124)
(1.2068 0.210645 -0.137903)
(1.15155 0.2137 -0.139595)
(1.01789 0.219409 -0.143113)
(0.609601 0.260612 -0.143875)
(0.573376 0.23169 -0.12158)
(3.00698 8.7059e-06 -0.0225578)
(3.01723 2.38877e-05 -0.0336362)
(3.02692 4.97655e-05 -0.0380997)
(3.03658 0.00019669 -0.041227)
(3.04196 0.000308203 -0.0433698)
(3.043 0.000944657 -0.044437)
(3.04198 0.00172938 -0.0450141)
(3.03658 0.0029822 -0.0463759)
(3.01995 0.0054378 -0.0493272)
(2.97551 0.0108498 -0.0557064)
(2.8554 0.0238689 -0.0698927)
(2.52488 0.0593621 -0.107627)
(1.71675 0.153507 -0.168768)
(1.27762 0.214837 -0.146904)
(1.2434 0.228088 -0.137015)
(1.2189 0.237639 -0.136414)
(1.16474 0.243688 -0.137801)
(1.03409 0.251749 -0.140939)
(0.638884 0.29428 -0.140686)
(0.577525 0.276415 -0.119283)
(3.00699 9.49671e-06 -0.0225548)
(3.01724 2.56113e-05 -0.0336399)
(3.02695 5.32227e-05 -0.0380863)
(3.03663 0.00020992 -0.0412286)
(3.04209 0.000327168 -0.0433386)
(3.04325 0.00101539 -0.0444604)
(3.04232 0.00186092 -0.0450095)
(3.03719 0.00321072 -0.0463254)
(3.02127 0.00586256 -0.0491854)
(2.97869 0.0117204 -0.055356)
(2.86433 0.0258157 -0.0690503)
(2.55012 0.0638145 -0.104261)
(1.7755 0.163879 -0.164466)
(1.28902 0.236597 -0.147804)
(1.247 0.252438 -0.136109)
(1.22739 0.265159 -0.13509)
(1.1763 0.275029 -0.13604)
(1.05106 0.287112 -0.138634)
(0.671245 0.332824 -0.137573)
(0.584941 0.327682 -0.11682)
(3.00699 9.60454e-06 -0.0225519)
(3.01725 2.61205e-05 -0.0336432)
(3.02698 5.55289e-05 -0.0380732)
(3.03667 0.000220831 -0.0412284)
(3.04224 0.000341461 -0.0433074)
(3.04352 0.0010789 -0.0444842)
(3.04268 0.00198297 -0.0450032)
(3.03784 0.00342619 -0.0462683)
(3.02271 0.00626618 -0.0490255)
(2.98217 0.0125474 -0.0549593)
(2.87419 0.0276396 -0.0680737)
(2.57804 0.0679482 -0.10065)
(1.84093 0.172766 -0.159485)
(1.30182 0.260066 -0.148701)
(1.24876 0.278328 -0.135233)
(1.23288 0.293623 -0.133903)
(1.1856 0.307513 -0.134446)
(1.06747 0.325069 -0.136363)
(0.705423 0.376554 -0.134284)
(0.596091 0.387529 -0.11389)
(3.007 8.52084e-06 -0.0225503)
(3.01725 2.4547e-05 -0.0336447)
(3.02702 5.42472e-05 -0.0380611)
(3.03672 0.000229048 -0.0412266)
(3.04239 0.000349427 -0.0432747)
(3.0438 0.00112931 -0.0445093)
(3.04307 0.00208359 -0.0449962)
(3.03854 0.00360553 -0.0462058)
(3.02424 0.00659997 -0.0488497)
(2.98589 0.0132134 -0.0545218)
(2.88467 0.0290063 -0.0670008)
(2.60767 0.0705492 -0.0968203)
(1.9134 0.177694 -0.15366)
(1.31802 0.286601 -0.14962)
(1.25105 0.306645 -0.134292)
(1.23371 0.324135 -0.132802)
(1.19171 0.341495 -0.132979)
(1.08255 0.365649 -0.134047)
(0.740512 0.426074 -0.131128)
(0.610689 0.458301 -0.110709)
(3.00701 4.44956e-06 -0.0225487)
(3.01726 1.94813e-05 -0.033647)
(3.02705 4.78592e-05 -0.0380487)
(3.03676 0.000235178 -0.0412258)
(3.04255 0.000349039 -0.0432408)
(3.0441 0.00116493 -0.0445376)
(3.04347 0.0021597 -0.0449904)
(3.03928 0.00374012 -0.04614)
(3.02584 0.00683881 -0.0486614)
(2.98973 0.0136441 -0.0540597)
(2.89517 0.029706 -0.0658559)
(2.63817 0.0708681 -0.0935383)
(1.98843 0.175042 -0.148038)
(1.34042 0.316607 -0.150222)
(1.25573 0.338304 -0.13313)
(1.23393 0.357273 -0.131651)
(1.19619 0.377488 -0.131627)
(1.09687 0.409292 -0.131829)
(0.776943 0.482498 -0.127737)
(0.629165 0.543526 -0.107377)
(3.00702 -1.36608e-06 -0.0225457)
(3.01726 1.15589e-05 -0.0336507)
(3.02709 3.78329e-05 -0.0380356)
(3.03681 0.000234919 -0.0412267)
(3.04272 0.000339038 -0.0432054)
(3.04442 0.001186 -0.0445691)
(3.0439 0.00221779 -0.0449865)
(3.04003 0.00385449 -0.0460723)
(3.02746 0.00705267 -0.0484655)
(2.99355 0.0140321 -0.0535852)
(2.90524 0.0303077 -0.0647203)
(2.66565 0.0712625 -0.0904725)
(2.0451 0.174441 -0.14412)
(1.36755 0.348395 -0.150856)
(1.26322 0.371672 -0.131568)
(1.23605 0.392394 -0.130422)
(1.198 0.416488 -0.130216)
(1.11062 0.457321 -0.129626)
(0.815289 0.547776 -0.124763)
(0.651704 0.647635 -0.103475)
(3.00702 -6.13753e-06 -0.0225421)
(3.01726 3.52661e-06 -0.0336547)
(3.02713 2.61026e-05 -0.0380223)
(3.03686 0.000224748 -0.0412285)
(3.04289 0.00031297 -0.0431687)
(3.04474 0.00119753 -0.0446032)
(3.04434 0.00227463 -0.0449827)
(3.04081 0.00398097 -0.0460006)
(3.02913 0.00730267 -0.0482588)
(2.99744 0.0145193 -0.0530883)
(2.91529 0.0312385 -0.0635464)
(2.69232 0.0729976 -0.0873856)
(2.0977 0.179938 -0.13967)
(1.39465 0.382738 -0.152175)
(1.27007 0.405553 -0.13037)
(1.23931 0.428238 -0.129108)
(1.20007 0.458523 -0.128984)
(1.12013 0.512542 -0.127508)
(0.856002 0.625254 -0.121593)
(0.678494 0.779272 -0.0998034)
(3.00703 -1.34621e-05 -0.0225384)
(3.01726 -8.34969e-06 -0.0336584)
(3.02717 5.92264e-06 -0.03801)
(3.0369 0.000195461 -0.0412317)
(3.04306 0.000235521 -0.043131)
(3.04508 0.00121272 -0.0446386)
(3.0448 0.00239658 -0.0449775)
(3.04162 0.0042252 -0.0459258)
(3.03085 0.00769335 -0.0480463)
(3.00141 0.0151307 -0.0525788)
(2.92529 0.0322719 -0.0623524)
(2.71892 0.0749807 -0.0843092)
(2.15232 0.187859 -0.134976)
(1.42417 0.420617 -0.153713)
(1.27502 0.441745 -0.129524)
(1.24276 0.466188 -0.128263)
(1.20332 0.502615 -0.128023)
(1.1326 0.571058 -0.125723)
(0.907377 0.710832 -0.119174)
(0.71237 0.949498 -0.0956295)
(2.9787 5.35594e-07 0.000336604)
(2.9747 5.30382e-07 -0.00398415)
(2.977 3.87195e-06 -0.00723748)
(2.9801 8.52852e-06 -0.0103515)
(2.98174 1.73202e-05 -0.0127629)
(2.98179 3.07311e-05 -0.0134443)
(2.97846 5.46188e-05 -0.0144435)
(2.96711 0.000100746 -0.0161031)
(2.93682 0.000196781 -0.0191262)
(2.85927 0.000411627 -0.0252099)
(2.64786 0.000925301 -0.0385517)
(2.01165 0.00232551 -0.0772546)
(0.956904 0.0063914 -0.123812)
(0.672408 0.00656851 -0.0755345)
(0.719554 0.00735824 -0.0726344)
(0.758617 0.00813207 -0.0700406)
(0.74604 0.00815586 -0.0695447)
(0.56622 0.00781897 -0.0701466)
(0.205439 0.0140767 -0.0635925)
(0.534939 0.00402945 -0.0427807)
(2.9787 1.61372e-06 0.000336612)
(2.9747 1.67286e-06 -0.00398431)
(2.97701 1.17314e-05 -0.00723713)
(2.9801 2.57705e-05 -0.0103518)
(2.98175 5.22462e-05 -0.0127621)
(2.98181 9.26083e-05 -0.0134461)
(2.97848 0.00016444 -0.0144445)
(2.96715 0.000303263 -0.0161032)
(2.93692 0.00059296 -0.0191249)
(2.8595 0.00124368 -0.0252062)
(2.64847 0.00281449 -0.0385404)
(2.01342 0.00713475 -0.0772051)
(0.95835 0.0197106 -0.123782)
(0.668984 0.0202597 -0.0753986)
(0.714008 0.0222689 -0.072468)
(0.751068 0.024147 -0.0699241)
(0.735744 0.0241832 -0.0695074)
(0.553216 0.023272 -0.0701795)
(0.186892 0.0398694 -0.0632831)
(0.509403 0.0137339 -0.0427242)
(2.9787 2.7217e-06 0.000336626)
(2.9747 3.00628e-06 -0.00398464)
(2.97701 1.9925e-05 -0.00723643)
(2.98011 4.35961e-05 -0.0103526)
(2.98177 8.82446e-05 -0.0127607)
(2.98183 0.000156362 -0.0134498)
(2.97852 0.000277615 -0.0144469)
(2.96724 0.000512439 -0.0161039)
(2.93712 0.00100411 -0.0191233)
(2.85998 0.00211348 -0.0252007)
(2.64976 0.00481658 -0.038523)
(2.01729 0.0123273 -0.0771333)
(0.961802 0.0345738 -0.123824)
(0.666221 0.0359996 -0.0751481)
(0.709048 0.0392274 -0.0721492)
(0.744141 0.0422191 -0.0696857)
(0.725996 0.0426929 -0.0693827)
(0.542619 0.0416818 -0.0701493)
(0.173468 0.0679335 -0.0626842)
(0.487753 0.0265562 -0.0424003)
(2.9787 3.91772e-06 0.000336652)
(2.9747 4.47925e-06 -0.00398513)
(2.97702 2.86042e-05 -0.00723536)
(2.98013 6.23734e-05 -0.0103538)
(2.98179 0.00012615 -0.0127586)
(2.98186 0.000223667 -0.0134557)
(2.97859 0.000397479 -0.0144508)
(2.96737 0.000734837 -0.0161052)
(2.93742 0.00144325 -0.0191211)
(2.86073 0.0030468 -0.0251923)
(2.65178 0.00697495 -0.0384964)
(2.02346 0.0179559 -0.0770267)
(0.967652 0.0507994 -0.123908)
(0.665754 0.053159 -0.0747535)
(0.70515 0.057344 -0.071714)
(0.738026 0.0613366 -0.0693413)
(0.716963 0.0624741 -0.0691576)
(0.533998 0.0620239 -0.070016)
(0.163971 0.0961369 -0.0618918)
(0.46794 0.0418234 -0.0418269)
(2.9787 5.2789e-06 0.00033671)
(2.97471 5.86672e-06 -0.00398579)
(2.97704 3.7806e-05 -0.0072339)
(2.98015 8.23486e-05 -0.0103554)
(2.98183 0.000166445 -0.0127557)
(2.98191 0.000295317 -0.013464)
(2.97867 0.000525416 -0.0144562)
(2.96756 0.00097291 -0.016107)
(2.93784 0.00191496 -0.0191178)
(2.86177 0.00405358 -0.0251803)
(2.65462 0.00931442 -0.0384587)
(2.0322 0.024087 -0.0768745)
(0.97621 0.0684806 -0.124054)
(0.668259 0.0716066 -0.0742692)
(0.703024 0.0765646 -0.0711739)
(0.733074 0.0815926 -0.0688954)
(0.708883 0.083653 -0.0688398)
(0.52708 0.0844754 -0.0697394)
(0.15719 0.124991 -0.060971)
(0.449864 0.0602082 -0.0410375)
(2.9787 6.80281e-06 0.000336828)
(2.97471 7.01425e-06 -0.00398667)
(2.97705 4.74701e-05 -0.00723207)
(2.98017 0.000103588 -0.0103575)
(2.98187 0.000209213 -0.0127519)
(2.98197 0.000371256 -0.0134747)
(2.97878 0.000661137 -0.0144633)
(2.96779 0.00122607 -0.0161093)
(2.93839 0.00241812 -0.0191133)
(2.86313 0.00513131 -0.0251638)
(2.65835 0.0118292 -0.0384073)
(2.04376 0.0307016 -0.0766657)
(0.987791 0.0875373 -0.124259)
(0.673478 0.0912509 -0.0737162)
(0.703092 0.0968417 -0.0705272)
(0.729717 0.103013 -0.0683452)
(0.702009 0.106288 -0.068421)
(0.521819 0.108995 -0.0693501)
(0.152644 0.155051 -0.0599545)
(0.433959 0.0816738 -0.0400436)
(2.97871 8.34932e-06 0.000337009)
(2.97472 8.11356e-06 -0.0039878)
(2.97707 5.74783e-05 -0.00722986)
(2.9802 0.000125839 -0.0103602)
(2.98193 0.000254038 -0.0127473)
(2.98204 0.000450673 -0.0134878)
(2.97892 0.000802954 -0.0144719)
(2.96809 0.0014909 -0.0161119)
(2.93908 0.00294552 -0.0191071)
(2.86483 0.00626347 -0.0251416)
(2.66303 0.0144779 -0.038339)
(2.05839 0.0376854 -0.0763873)
(1.00271 0.107678 -0.124523)
(0.681334 0.111981 -0.0731081)
(0.705555 0.118221 -0.069788)
(0.728344 0.125644 -0.0676924)
(0.69668 0.130377 -0.0679102)
(0.518477 0.135471 -0.0687982)
(0.150088 0.186582 -0.0588308)
(0.41945 0.106406 -0.0388818)
(2.97871 9.80007e-06 0.00033723)
(2.97473 9.46753e-06 -0.00398913)
(2.9771 6.7687e-05 -0.00722722)
(2.98024 0.000148513 -0.0103633)
(2.982 0.000299911 -0.0127419)
(2.98213 0.000531877 -0.0135034)
(2.97909 0.000947707 -0.0144819)
(2.96845 0.00176093 -0.0161143)