/*--------------------------------*- C++ -*----------------------------------*\
  =========                 |
  \\      /  F ield         | OpenFOAM: The Open Source CFD Toolbox
   \\    /   O peration     | Website:  https://openfoam.org
    \\  /    A nd           | Version:  6.0
     \\/     M anipulation  |
\*---------------------------------------------------------------------------*/
FoamFile
{
    version     2.0;
    format      ascii;
    class       volScalarField;
    location    "3.9992881";
    object      p;
}
// * * * * * * * * * * * * * * * * * * * * * * * * * * * * * * * * * * * * * //

dimensions      [1 -1 -2 0 0 0 0];

internalField   nonuniform List<scalar> 
2700
(
1
1
1
1
1
1
1
1
1
1
1
1
1
1
1
4.5055
10.3155
10.7643
10.7335
10.5923
10.4721
10.7331
11.5779
12.297
12.2173
11.605
11.0044
11.3509
12.4747
13.2618
1
1
1
1
1
1
1
1
1
1
1
1
1
1
1
4.43074
10.1516
10.5852
10.8277
10.9864
11.1736
11.2967
11.294
11.2473
11.5216
11.7141
11.8422
11.7953
11.6462
11.7574
1
1
1
1
1
1
1
1
1
1
1
1
1
1
1
4.39524
10.1003
10.2753
10.5867
11.2349
11.7379
11.8085
11.1528
10.6163
10.6504
11.2705
12.3496
12.2148
11.0118
10.3267
1
1
1
1
1
1
1
1
1
1
1
1
1
1
1
4.35656
10.064
10.3794
10.6742
11.1416
11.5945
11.5932
11.2614
10.6728
10.8202
11.7352
12.1039
11.9132
11.2465
10.5519
1
1
1
1
1
1
1
1
1
1
1
1
1
1
1
4.33203
10.0943
10.7212
10.822
10.8776
10.853
11.0977
11.375
11.639
11.8134
11.7024
11.4793
11.6081
11.8915
12.2906
1
1
1
1
1
1
1
1
1
1
1
1
1
1
1
4.28358
10.1948
10.8172
10.9071
10.7663
10.4761
10.4118
11.0595
12.4229
12.6223
11.6775
11.0418
11.2393
12.3899
13.9119
1
1
1
1
1
1
1
1
1
1
1
1
1
1
1
4.20607
10.1723
10.6784
10.7048
10.6724
10.5571
10.7847
11.6057
11.9996
11.8918
11.7159
11.1356
11.127
12.197
12.7129
1
1
1
1
1
1
1
1
1
1
1
1
1
1
1
4.07905
10.0814
10.3837
10.5114
10.776
11.2884
11.6047
11.4702
11.0955
10.9569
11.3921
11.7928
11.8289
11.4993
11.1498
1
1
1
1
1
1
1
1
1
1
1
1
1
1
1
3.92071
9.94244
10.1818
10.3251
10.9526
11.6635
11.9811
11.5225
10.5889
10.3592
10.574
11.9238
12.486
10.8528
9.94048
1
1
1
1
1
1
1
1
1
1
1
1
1
1
1
3.76452
9.79512
10.3145
10.7607
11.1187
11.2963
11.366
11.0328
10.8635
10.7982
11.4604
12.1271
12.0522
10.9664
10.0381
1
1
1
1
1
1
1
1
1
1
1
1
1
1
1
3.61084
9.6846
10.7802
10.9508
10.9569
10.7961
10.5259
10.8269
11.3872
12.1887
12.1678
11.6753
11.1789
11.762
12.2896
1
1
1
1
1
1
1
1
1
1
1
1
1
1
1
3.5724
9.83908
10.8211
11.0103
10.903
10.4814
10.2592
10.5116
11.7603
12.6338
12.6437
10.9179
10.6807
12.3024
14.1635
1
1
1
1
1
1
1
1
1
1
1
1
1
1
1
3.43564
9.89866
10.5808
10.5479
10.5919
10.6826
10.8815
11.5363
11.8238
11.782
10.9818
11.1142
10.9948
12.2012
13.901
1
1
1
1
1
1
1
1
1
1
1
1
1
1
1
3.21924
9.74283
10.2952
10.1456
10.2833
10.861
11.7474
11.9578
11.5992
10.382
10.2116
11.114
11.8901
11.7124
11.1078
1
1
1
1
1
1
1
1
1
1
1
1
1
1
1
2.95043
9.36051
10.0737
10.1204
10.5396
11.2914
11.7153
11.9534
10.9473
10.1443
10.0655
11.2196
12.4363
11.3934
9.68455
1
1
1
1
1
1
1
1
1
1
1
1
1
1
1
2.70965
9.03463
10.1319
10.7883
11.1968
11.207
11.1764
10.5073
10.663
10.9592
11.3769
11.9718
12.0722
10.6073
9.99807
1
1
1
1
1
1
1
1
1
1
1
1
1
1
1
2.54967
8.86799
10.5701
11.0451
11.3153
11.2592
10.3119
9.78873
10.2128
11.7514
12.7043
12.2139
11.0407
10.2871
10.4448
1
1
1
1
1
1
1
1
1
1
1
1
1
1
1
2.47788
9.16171
10.787
10.8551
10.8297
10.3831
10.2737
10.1741
10.9361
12.1955
12.4515
11.4982
10.2777
11.1365
12.6457
1
1
1
1
1
1
1
1
1
1
1
1
1
1
1
2.26963
9.06658
10.8208
10.5282
10.0763
9.9761
10.3666
11.5839
11.9606
11.5816
11.2608
10.4166
10.4178
12.0285
13.1424
1
1
1
1
1
1
1
1
1
1
1
1
1
1
1
2.04464
8.67488
10.4767
9.97709
9.87461
9.98524
11.1174
12.0068
12.2687
11.4758
9.7489
10.0815
10.991
11.9573
13.0609
1
1
1
1
1
1
1
1
1
1
1
1
1
1
1
1.74887
8.09769
9.99612
9.90812
10.2423
11.2515
11.4472
11.4363
11.1479
9.89455
9.94384
10.4559
11.8273
11.5957
10.6874
1
1
1
1
1
1
1
1
1
1
1
1
1
1
1
1.49849
7.70134
9.78053
10.1287
11.0884
11.5294
11.5849
11.0129
9.74169
9.32217
9.73421
11.4963
11.8959
11.1028
9.44535
1
1
1
1
1
1
1
1
1
1
1
1
1
1
1
1.3154
7.51599
10.3202
10.9604
11.2033
11.2021
10.81
9.67023
9.66532
9.78442
11.0237
11.7246
11.933
9.66376
8.99452
1
1
1
1
1
1
1
1
1
1
1
1
1
1
1
1.1567
7.62337
10.8957
10.9053
11.0105
10.5282
9.7029
9.60911
10.213
12.1133
12.2452
11.3735
9.98249
9.53261
8.83817
1
1
1
1
1
1
1
1
1
1
1
1
1
1
1
1.04031
7.43136
10.7072
10.7487
10.393
9.5298
9.38515
9.52075
11.4344
12.5097
12.4301
11.0058
8.98861
9.60495
11.7036
1
1
1
1
1
1
1
1
1
1
1
1
1
1
1
1.00074
6.9269
10.4855
9.99514
9.59479
9.5381
9.99012
11.5785
11.6849
11.6375
11.2065
9.78468
9.19448
11.3406
12.9748
1
1
1
1
1
1
1
1
1
1
1
1
1
1
1
1.0001
6.10807
9.74705
9.46091
9.27888
9.82649
11.4516
11.9069
11.7693
10.5564
9.0215
9.42772
10.4993
11.5896
12.296
1
1
1
1
1
1
1
1
1
1
1
1
1
1
1
1.00014
5.69598
9.61033
9.48666
10.0814
11.1376
11.3235
11.3944
10.7904
8.8296
9.03665
9.57684
11.4352
10.7917
11.0213
1
1
1
1
1
1
1
1
1
1
1
1
1
1
1
1.00001
5.29417
9.4355
10.1832
11.0489
11.2359
11.0865
10.738
8.99606
8.44665
8.75496
10.5904
11.3321
10.0694
7.66403
1
1
1
1
1
1
1
1
1
1
1
1
1
1
1
0.99999
5.07369
9.98831
10.6437
10.8766
10.8841
10.5493
8.97993
8.88974
9.3509
10.1558
11.0221
10.672
8.82788
6.72494
1
1
1
1
1
1
1
1
1
1
1
1
1
1
1
0.999997
3.84361
9.55118
10.04
9.96494
9.86923
9.73889
9.98889
10.4519
10.8834
10.83
9.88321
8.89206
8.02165
6.48684
1
1
1
1
1
1
1
1
1
1
1
1
1
1
1
1
1.9781
8.19634
9.77094
9.86295
9.99298
10.1185
10.1294
10.0499
9.83395
9.46586
9.13697
8.71773
8.10884
6.62471
1
1
1
1
1
1
1
1
1
1
1
1
1
1
1
1
1.06856
6.18421
9.69696
9.82901
9.8538
9.81797
9.72881
9.55765
9.35592
9.13204
8.80258
8.23929
7.26885
5.98865
1
1
1
1
1
1
1
1
1
1
1
1
1
1
1
1
1.00007
3.54534
9.01612
9.54037
9.51888
9.52072
9.4584
9.34941
9.14778
8.82654
8.37265
7.76504
6.90799
5.92153
1
1
1
1
1
1
1
1
1
1
1
1
1
1
1
1
0.999998
1.36726
7.46698
9.52894
9.41158
9.35252
9.24548
9.08357
8.81548
8.47891
8.07037
7.529
6.75712
5.94862
1
1
1
1
1
1
1
1
1
1
1
1
1
1
1
1
0.999999
1.00733
4.74262
9.00453
9.13261
9.05527
8.93787
8.76718
8.52493
8.20492
7.8342
7.29819
6.64408
5.96264
1
1
1
1
1
1
1
1
1
1
1
1
1
1
1
1
1
0.99998
1.78897
7.67646
9.02872
8.82232
8.69979
8.53905
8.31298
8.01136
7.63002
7.14174
6.58086
5.97902
1
1
1
1
1
1
1
1
1
1
1
1
1
1
1
1
1
0.999996
1.03358
4.81841
8.55332
8.61584
8.46015
8.31186
8.09327
7.82162
7.46785
7.03793
6.5422
6.01337
1
1
1
1
1
1
1
1
1
1
1
1
1
1
1
1
1
1
1.00004
1.62014
7.00093
8.5673
8.33766
8.15333
7.91572
7.65001
7.33287
6.9561
6.51298
6.04644
1
1
1
1
1
1
1
1
1
1
1
1
1
1
1
1
1
1
1
1.02027
3.81135
7.972
8.16109
7.96875
7.73877
7.48811
7.20127
6.86926
6.4856
6.07916
1
1
1
1
1
1
1
1
1
1
1
1
1
1
1
1
1
1
1
1.00004
1.34873
5.70089
8.10868
7.89281
7.668
7.41567
7.12889
6.8133
6.47739
6.11583
1
1
1
1
1
1
1
1
1
1
1
1
1
1
1
1
1
1
1
1
1.00666
2.13385
6.70565
7.805
7.59439
7.35319
7.07226
6.77019
6.47212
6.13904
1
1
1
1
1
1
1
1
1
1
1
1
1
1
1
1
1
1
1
1
1.00002
1.06318
3.36483
7.24789
7.6288
7.35019
7.07475
6.77604
6.49689
6.17141
1
1
1
1
1
1
1
1
1
1
1
1
1
1
1
1
1
1
1
1
1
1.00045
1.26653
4.66461
7.41231
7.33201
7.06062
6.77427
6.50469
6.19142
1
1
1
1
1
1
1
1
1
1
1
1
1
1
1
1
1
1
1
1
1
1
1.00453
1.67486
5.42558
7.22746
7.05905
6.79538
6.53525
6.24284
1
1
1
1
1
1
1
1
1
1
1
1
1
1
1
1
1
1
1
1
1
1
1.00001
1.02378
2.13367
5.83087
7.02075
6.82707
6.56881
6.30965
1
1
1
1
1
1
1
1
1
1
1
1
1
1
1
1
1
1
1
1
1
1
1
1.00014
1.06383
2.58198
6.01632
6.82466
6.62018
6.36764
1
1
1
1
1
1
1
1
1
1
1
1
1
1
1
1
1
1
1
1
1
1
1
1
1.00058
1.1237
2.94853
6.04436
6.63402
6.43804
1
1
1
1
1
1
1
1
1
1
1
1
1
1
1
1
1
1
1
1
1
1
1
1
1
1.00157
1.19222
3.19154
5.9624
6.42
1
1
1
1
1
1
1
1
1
1
1
1
1
1
1
1
1
1
1
1
1
1
1
1
1
1
1.00319
1.25308
3.31222
5.8951
1
1
1
1
1
1
1
1
1
1
1
1
1
1
1
1
1
1
1
1
1
1
1
1
1
1
1.00001
1.00533
1.29144
3.65913
1
1
1
1
1
1
1
1
1
1
1
1
1
1
1
1
1
1
1
1
1
1
1
1
1
1
1
1.00002
1.00601
1.44163
1
1
1
1
1
1
1
1
1
1
1
1
1
1
1
1
1
1
1
1
1
1
1
1
1
1
1
1
1.00003
1.01222
1
1
1
1
1
1
1
1
1
1
1
1
1
1
1
1
1
1
1
1
1
1
1
1
1
1
1
1
1
1.00002
1
1
1
1
1
1
1
1
1
1
1
1
1
1
1
1
1
1
1
1
1
1
1
1
1
1
1
1
1
1
1
1
1
1
1
1
1
1
1
1
1
1
1
1
1
1
1
1
1
1
1
1
1
1
1
1
1
1
1
1
1
1
1
1
1
1
1
1
1
1
1
1
1
1
1
1
1
1
1
1
1
1
1
1
1
1
1
1
1
1
1
1
1
1
1
1
1
1
1
1
1
1
1
1
1
1
1
1
1
1
1
1
1
1
1
1
1
1
1
1
1
1
1
1
1
1
1
1
1
1
1
1
1
1
1
1
1
1
1
1
1
1
1
1
1
1
1
1
1
1
1
1
1
1
1
1
1
1
1
1
1
1
1
1
1
1
1
1
1
1
1
1
1
1
1
1
1
1
1
1
1.21206
0.456736
0.700471
1.04424
1.16938
1.24216
1.31202
1.85349
4.23083
5.24455
5.31275
5.26135
5.23407
5.09897
4.923
4.73459
4.55042
4.37224
4.19294
4.01495
3.80437
3.63278
3.46277
3.29343
3.12318
2.95725
2.80415
2.65965
2.54263
2.34687
2.555
0.814741
0.835738
0.945246
1.08512
1.22078
1.2577
1.76552
4.2035
5.30607
5.34704
5.25691
5.22103
5.08748
4.91075
4.71896
4.53605
4.35812
4.17895
3.99218
3.80411
3.62618
3.44599
3.26861
3.09974
2.94148
2.79096
2.64271
2.52471
2.33657
3.11431
1.2608
0.9145
0.900859
1.03025
1.20473
1.24889
1.6709
4.17093
5.42303
5.38645
5.26807
5.20579
5.09025
4.91701
4.73021
4.54915
4.37594
4.19444
4.00376
3.81262
3.62297
3.44137
3.26611
3.10457
2.95258
2.80198
2.6452
2.51275
2.31637
3.60767
1.81835
1.18597
0.930479
0.975212
1.11211
1.18974
1.45329
4.01638
5.64752
5.45041
5.2604
5.16324
5.05736
4.89827
4.71327
4.5272
4.34415
4.16596
3.98125
3.79951
3.6147
3.43097
3.25732
3.09243
2.94005
2.79627
2.6514
2.52643
2.32724
3.96678
2.30067
1.48478
0.99422
1.01512
1.05186
1.11635
1.31573
3.85316
5.89848
5.49285
5.24816
5.13214
5.00285
4.85248
4.68581
4.51945
4.34242
4.16108
3.96975
3.78992
3.60536
3.41633
3.23754
3.06841
2.91306
2.76805
2.62439
2.50986
2.32562
4.24097
2.73071
1.80809
1.21111
1.12018
1.0362
1.05685
1.18306
3.63875
6.26718
5.58086
5.19949
5.08657
4.9975
4.85454
4.70039
4.5216
4.33297
4.14235
3.95263
3.77565
3.5952
3.40637
3.22716
3.05835
2.90523
2.76216
2.62172
2.50959
2.32593
4.46924
3.09868
2.11322
1.47405
1.22772
1.02699
1.0396
1.2631
3.18296
6.13667
5.7279
5.1975
5.00552
4.9412
4.8234
4.6812
4.50011
4.3049
4.11031
3.9261
3.75148
3.57878
3.39847
3.22196
3.05095
2.8965
2.75386
2.61968
2.51252
2.32822
4.67735
3.41927
2.38009
1.74716
1.39474
1.06761
1.08557
1.43466
2.70804
5.76779
5.76908
5.23227
4.96736
4.88032
4.75876
4.61091
4.43615
4.25452
4.07401
3.89873
3.72498
3.5549
3.38076
3.21143
3.04532
2.89425
2.75096
2.61859
2.50921
2.32069
4.86035
3.67475
2.60932
2.01053
1.56166
1.15473
1.17825
1.78071
2.45623
4.8397
5.73041
5.24302
4.96084
4.83143
4.69657
4.54377
4.37824
4.21283
4.04686
3.87761
3.70157
3.5276
3.35559
3.19455
3.03609
2.88943
2.74473
2.6129
2.49738
2.30424
5.0321
3.85642
2.82056
2.24784
1.72754
1.30919
1.36624
2.27572
2.52239
3.68098
5.44444
5.24393
4.95079
4.77798
4.63716
4.49011
4.34074
4.18726
4.02801
3.85949
3.67897
3.49843
3.32665
3.17203
3.02055
2.8783
2.73292
2.60284
2.4794
2.28596
5.17788
3.99529
3.02276
2.46474
1.8834
1.479
1.69177
2.80072
2.74232
2.88466
4.67603
5.19642
4.93905
4.7373
4.58856
4.44901
4.31117
4.16248
4.00439
3.83503
3.65388
3.47267
3.30258
3.14994
3.00126
2.86105
2.71657
2.58881
2.4582
2.27002
5.29883
4.09485
3.23089
2.65298
2.02711
1.67032
2.23264
3.22434
3.01689
2.83902
3.66057
4.89603
4.93386
4.70049
4.53329
4.40655
4.28088
4.13141
3.96802
3.79822
3.62204
3.44681
3.28108
3.12873
2.97975
2.83888
2.69684
2.57081
2.43332
2.26099
5.39626
4.18423
3.44941
2.79964
2.17266
1.9836
2.90893
3.47243
3.26609
2.91133
2.97868
4.18087
4.79291
4.6864
4.49076
4.35314
4.22803
4.07766
3.91405
3.74949
3.58387
3.41991
3.26117
3.10948
2.95945
2.81689
2.67778
2.55012
2.40617
2.265
5.4661
4.29316
3.65809
2.90024
2.34141
2.53532
3.64063
3.63694
3.42511
3.0536
2.89665
3.36056
4.38134
4.61373
4.43575
4.2918
4.15581
4.01025
3.85375
3.69658
3.53982
3.38548
3.23426
3.08511
2.93695
2.79528
2.66038
2.52622
2.3859
2.28689
5.5284
4.43689
3.83249
2.99727
2.57426
3.33832
4.21026
3.86594
3.54995
3.21083
2.92071
2.87266
3.65013
4.37118
4.38305
4.22003
4.07169
3.93597
3.79233
3.64688
3.49875
3.35087
3.20401
3.05827
2.91453
2.77491
2.64492
2.49784
2.37874
2.33856
5.58137
4.61492
3.94399
3.12556
2.95853
4.27165
4.6106
4.15824
3.70239
3.3479
3.00406
2.81123
2.98714
3.80878
4.21699
4.12304
3.98205
3.8599
3.73427
3.599
3.45605
3.31118
3.16731
3.02817
2.8895
2.75176
2.62623
2.46689
2.37887
2.42979
5.63142
4.81963
4.00354
3.29717
3.66739
5.0863
4.85825
4.37109
3.87411
3.48524
3.12959
2.81932
2.69327
3.09453
3.83623
4.00328
3.89894
3.79174
3.68534
3.57895
3.44524
3.30474
3.15923
3.00521
2.86323
2.72506
2.58947
2.44375
2.38711
2.59683
5.72241
5.00564
4.04799
3.55044
4.72218
5.73157
5.12199
4.55918
4.05155
3.62318
3.25712
2.89716
2.65345
2.65187
3.20878
3.75212
3.83129
3.72668
3.61944
3.50008
3.37084
3.2382
3.09672
2.95523
2.8523
2.72387
2.56796
2.44743
2.42907
2.84792
5.84325
5.12729
4.16317
4.07284
5.80998
6.06712
5.41718
4.74161
4.20613
3.75574
3.37071
3.00738
2.6696
2.50497
2.64969
3.26441
3.66393
3.63585
3.55434
3.43798
3.31309
3.18765
3.05105
2.92915
2.79495
2.63792
2.5174
2.45904
2.54991
3.16024
5.97758
5.22113
4.35179
5.08876
6.75173
6.3169
5.62083
4.93272
4.36326
3.88379
3.47069
3.10842
2.74738
2.48516
2.40315
2.70331
3.31622
3.53676
3.47923
3.37276
3.26388
3.13824
3.0078
2.88428
2.73484
2.57924
2.50173
2.51454
2.88277
3.48141
5.93888
5.37626
4.66343
6.46385
7.34064
6.55545
5.81717
5.12088
4.51553
4.0041
3.55981
3.18494
2.84115
2.51002
2.335
2.34236
2.7816
3.33124
3.39588
3.2999
3.19812
3.08419
2.97447
2.84042
2.67665
2.55344
2.52491
2.72201
3.35293
3.64011
5.53347
5.20115
5.50382
7.86954
7.73761
6.79189
5.98524
5.27895
4.65621
4.11774
3.65002
3.25231
2.91942
2.59
2.31763
2.1905
2.31903
2.87482
3.24046
3.207
3.12848
3.02511
2.92063
2.77442
2.62248
2.54518
2.61296
3.13076
3.7595
3.74624
4.57881
4.9186
6.99433
8.83458
7.93854
7.00505
6.166
5.43334
4.78758
4.22304
3.73442
3.3147
2.97351
2.66261
2.35457
2.15305
2.09275
2.38791
2.9289
3.12089
3.05822
2.96007
2.8453
2.6894
2.59428
2.58225
2.92067
3.57646
3.88839
3.79169
3.09554
5.04001
8.74173
9.25371
8.13387
7.21116
6.33764
5.56713
4.89243
4.30501
3.80219
3.3776
3.0222
2.72143
2.4243
2.14605
2.00053
2.04666
2.48337
2.96241
2.96945
2.88702
2.76688
2.63881
2.58919
2.74836
3.42732
3.92381
3.95153
3.79645
2.20773
6.05267
10.3867
9.56446
8.29321
7.38004
6.48171
5.68396
4.9854
4.37904
3.8642
3.42964
3.06696
2.75401
2.46715
2.20137
1.97251
1.90167
2.07546
2.57354
2.85959
2.81709
2.70981
2.62336
2.66217
3.15505
3.81831
4.02106
3.96732
3.78995
1.51014
6.69293
11.5394
9.73802
8.46966
7.53185
6.66149
5.85338
5.13442
4.50551
3.97778
3.54378
3.16783
2.83192
2.5248
2.24112
1.98305
1.84425
1.84174
2.14997
2.66113
2.74226
2.65335
2.64276
2.9206
3.71782
4.10528
4.05373
3.96485
3.78105
1.16555
7.40149
12.0814
9.93784
8.71641
7.66848
6.70079
5.85471
5.12122
4.49894
3.97364
3.52251
3.13044
2.79566
2.51586
2.2695
2.05034
1.82477
1.74593
1.82359
2.26594
2.6003
2.61228
2.76638
3.39991
4.05846
4.14309
4.06514
3.95956
3.78204
1.07343
7.67015
11.9102
10.0151
8.85533
7.81231
6.79719
5.9195
5.17587
4.54763
4.013
3.5493
3.14416
2.80013
2.52355
2.2842
2.05176
1.83292
1.69852
1.62575
1.89175
2.37883
2.62286
3.15814
3.90457
4.20416
4.15424
4.05656
3.95476
3.7834
1.19903
7.69157
11.7183
10.1595
8.93966
7.82994
6.841
5.96331
5.21555
4.57724
4.03024
3.55908
3.15549
2.81361
2.52675
2.28681
2.06222
1.85934
1.66714
1.5474
1.64766
2.13513
2.82556
3.5611
4.15124
4.2329
4.13836
4.0497
3.95987
3.80774
1.34354
7.71671
11.5811
10.2698
9.1201
7.94455
6.8936
6.00034
5.23753
4.59131
4.03813
3.5614
3.15996
2.82161
2.52605
2.2848
2.07175
1.88299
1.65148
1.49561
1.51793
1.93146
3.03647
4.03225
4.38063
4.26893
4.13317
4.04387
3.96749
3.80394
)
;

boundaryField
{
    inlet
    {
        type            fixedValue;
        value           uniform 1;
    }
    outlet
    {
        type            zeroGradient;
    }
    top
    {
        type            symmetryPlane;
    }
    bottom
    {
        type            symmetryPlane;
    }
    step
    {
        type            zeroGradient;
    }
    defaultFaces
    {
        type            empty;
    }
}


// ************************************************************************* //
