/*--------------------------------*- C++ -*----------------------------------*\
  =========                 |
  \\      /  F ield         | OpenFOAM: The Open Source CFD Toolbox
   \\    /   O peration     | Website:  https://openfoam.org
    \\  /    A nd           | Version:  6.0
     \\/     M anipulation  |
\*---------------------------------------------------------------------------*/
FoamFile
{
    version     2.0;
    format      ascii;
    class       volScalarField;
    location    "3.9992881";
    object      rho;
}
// * * * * * * * * * * * * * * * * * * * * * * * * * * * * * * * * * * * * * //

dimensions      [1 -3 0 0 0 0 0];

internalField   nonuniform List<scalar> 
2700
(
1.39997
1.39997
1.39997
1.39997
1.39997
1.39997
1.39997
1.39997
1.39997
1.39997
1.39997
1.39997
1.39997
1.39997
1.39997
3.14452
5.3574
5.52102
5.50975
5.45753
5.41274
5.50834
5.81276
6.06865
6.04078
5.8205
5.60189
5.72655
6.1249
6.40461
1.39997
1.39997
1.39997
1.39997
1.39997
1.39997
1.39997
1.39997
1.39997
1.39997
1.39997
1.39997
1.39997
1.39997
1.39997
3.11298
5.29717
5.45455
5.54431
5.6027
5.67026
5.71361
5.71303
5.69697
5.79387
5.86206
5.9058
5.88618
5.83257
5.87752
1.39997
1.39997
1.39997
1.39997
1.39997
1.39997
1.39997
1.39997
1.39997
1.39997
1.39997
1.39997
1.39997
1.39997
1.39997
3.09471
5.27654
5.33994
5.45597
5.69265
5.87369
5.89936
5.66277
5.46668
5.4805
5.70689
6.08648
6.0373
5.60658
5.3631
1.39997
1.39997
1.39997
1.39997
1.39997
1.39997
1.39997
1.39997
1.39997
1.39997
1.39997
1.39997
1.39997
1.39997
1.39997
3.07611
5.2613
5.37834
5.48812
5.65926
5.82283
5.82252
5.70329
5.48853
5.54377
5.87412
6.00204
5.93258
5.69379
5.44845
1.39997
1.39997
1.39997
1.39997
1.39997
1.39997
1.39997
1.39997
1.39997
1.39997
1.39997
1.39997
1.39997
1.39997
1.39997
3.06423
5.27228
5.50464
5.54266
5.56371
5.55497
5.64418
5.74555
5.84285
5.90429
5.86488
5.78191
5.82632
5.92824
6.07634
1.39997
1.39997
1.39997
1.39997
1.39997
1.39997
1.39997
1.39997
1.39997
1.39997
1.39997
1.39997
1.39997
1.39997
1.39997
3.04129
5.31046
5.54053
5.57396
5.52301
5.41651
5.39379
5.63297
6.12062
6.19255
5.85814
5.62584
5.69646
6.10818
6.64523
1.39997
1.39997
1.39997
1.39997
1.39997
1.39997
1.39997
1.39997
1.39997
1.39997
1.39997
1.39997
1.39997
1.39997
1.39997
3.008
5.30544
5.4902
5.50043
5.48882
5.44696
5.53121
5.82975
5.97213
5.93462
5.87311
5.66091
5.65812
6.04132
6.23005
1.39997
1.39997
1.39997
1.39997
1.39997
1.39997
1.39997
1.39997
1.39997
1.39997
1.39997
1.39997
1.39997
1.39997
1.39997
2.9538
5.27692
5.38284
5.42995
5.52808
5.71471
5.82926
5.78243
5.64837
5.59849
5.75815
5.89995
5.91154
5.79446
5.67581
1.39997
1.39997
1.39997
1.39997
1.39997
1.39997
1.39997
1.39997
1.39997
1.39997
1.39997
1.39997
1.39997
1.39997
1.39997
2.88295
5.22888
5.30927
5.36227
5.59318
5.85032
5.96472
5.8026
5.46328
5.38074
5.46389
5.94893
6.14643
5.56183
5.23319
1.39997
1.39997
1.39997
1.39997
1.39997
1.39997
1.39997
1.39997
1.39997
1.39997
1.39997
1.39997
1.39997
1.39997
1.39997
2.81157
5.1759
5.36006
5.52407
5.65482
5.71946
5.74529
5.62561
5.56585
5.54389
5.78598
6.02235
5.99492
5.60599
5.27291
1.39997
1.39997
1.39997
1.39997
1.39997
1.39997
1.39997
1.39997
1.39997
1.39997
1.39997
1.39997
1.39997
1.39997
1.39997
2.73879
5.13665
5.53379
5.59591
5.59837
5.53929
5.44045
5.55255
5.75967
6.04742
6.04086
5.86471
5.68422
5.8949
6.09387
1.39997
1.39997
1.39997
1.39997
1.39997
1.39997
1.39997
1.39997
1.39997
1.39997
1.39997
1.39997
1.39997
1.39997
1.39997
2.71988
5.19907
5.55227
5.621
5.58088
5.42537
5.34351
5.43983
5.89507
6.20701
6.21649
5.59224
5.50532
6.0899
6.74383
1.39997
1.39997
1.39997
1.39997
1.39997
1.39997
1.39997
1.39997
1.39997
1.39997
1.39997
1.39997
1.39997
1.39997
1.39997
2.65594
5.22994
5.46809
5.45414
5.46873
5.5013
5.57539
5.81441
5.91973
5.90839
5.61923
5.66549
5.62244
6.05753
6.6639
1.39997
1.39997
1.39997
1.39997
1.39997
1.39997
1.39997
1.39997
1.39997
1.39997
1.39997
1.39997
1.39997
1.39997
1.39997
2.55667
5.18365
5.36552
5.30602
5.35629
5.56964
5.89036
5.96856
5.84431
5.39928
5.33912
5.66875
5.94958
5.88563
5.67759
1.39997
1.39997
1.39997
1.39997
1.39997
1.39997
1.39997
1.39997
1.39997
1.39997
1.39997
1.39997
1.39997
1.39997
1.39997
2.43236
5.04596
5.28487
5.29877
5.45386
5.72902
5.88141
5.9704
5.6083
5.31368
5.28772
5.7115
6.14576
5.77485
5.14999
1.39997
1.39997
1.39997
1.39997
1.39997
1.39997
1.39997
1.39997
1.39997
1.39997
1.39997
1.39997
1.39997
1.39997
1.39997
2.3172
4.92643
5.31042
5.55068
5.69931
5.70144
5.69218
5.44631
5.5056
5.61929
5.77306
5.98329
6.02102
5.49135
5.27292
1.39997
1.39997
1.39997
1.39997
1.39997
1.39997
1.39997
1.39997
1.39997
1.39997
1.39997
1.39997
1.39997
1.39997
1.39997
2.23477
4.86425
5.47709
5.65025
5.7457
5.72458
5.37415
5.17955
5.3414
5.90589
6.24723
6.0729
5.65292
5.37595
5.45374
1.39997
1.39997
1.39997
1.39997
1.39997
1.39997
1.39997
1.39997
1.39997
1.39997
1.39997
1.39997
1.39997
1.39997
1.39997
2.19273
4.98417
5.56044
5.58322
5.57163
5.4035
5.36144
5.32728
5.60984
6.06837
6.16076
5.81991
5.37428
5.6918
6.23842
1.39997
1.39997
1.39997
1.39997
1.39997
1.39997
1.39997
1.39997
1.39997
1.39997
1.39997
1.39997
1.39997
1.39997
1.39997
2.09326
4.96199
5.57743
5.46728
5.29358
5.25475
5.4022
5.84563
5.98552
5.85401
5.74177
5.42593
5.43099
6.01734
6.4184
1.39997
1.39997
1.39997
1.39997
1.39997
1.39997
1.39997
1.39997
1.39997
1.39997
1.39997
1.39997
1.39997
1.39997
1.39997
1.97907
4.83371
5.45812
5.26411
5.22079
5.26269
5.68014
6.00339
6.09935
5.82215
5.17997
5.30361
5.64626
5.99418
6.4024
1.39997
1.39997
1.39997
1.39997
1.39997
1.39997
1.39997
1.39997
1.39997
1.39997
1.39997
1.39997
1.39997
1.39997
1.39997
1.8308
4.63768
5.29136
5.24448
5.36747
5.73548
5.80373
5.80252
5.70044
5.23867
5.25619
5.44819
5.95105
5.86625
5.53899
1.39997
1.39997
1.39997
1.39997
1.39997
1.39997
1.39997
1.39997
1.39997
1.39997
1.39997
1.39997
1.39997
1.39997
1.39997
1.70309
4.51502
5.22397
5.34334
5.69131
5.84429
5.86033
5.65353
5.17703
5.02432
5.18747
5.83041
5.97675
5.69506
5.08244
1.39997
1.39997
1.39997
1.39997
1.39997
1.39997
1.39997
1.39997
1.39997
1.39997
1.39997
1.39997
1.39997
1.39997
1.39997
1.61017
4.45581
5.44244
5.66805
5.74339
5.73335
5.58409
5.15236
5.14939
5.20926
5.66508
5.91578
6.00336
5.15927
4.9154
1.39997
1.39997
1.39997
1.39997
1.39997
1.39997
1.39997
1.39997
1.39997
1.39997
1.39997
1.39997
1.39997
1.39997
1.39997
1.50506
4.5075
5.67071
5.66157
5.68909
5.49676
5.17696
5.13494
5.36768
6.06188
6.11072
5.79398
5.28356
5.11252
4.87953
1.39997
1.39997
1.39997
1.39997
1.39997
1.39997
1.39997
1.39997
1.39997
1.39997
1.39997
1.39997
1.39997
1.39997
1.39997
1.42537
4.42701
5.60348
5.61482
5.46774
5.12704
5.06193
5.11755
5.81917
6.2128
6.18126
5.66745
4.90711
5.15048
5.93185
1.39997
1.39997
1.39997
1.39997
1.39997
1.39997
1.39997
1.39997
1.39997
1.39997
1.39997
1.39997
1.39997
1.39997
1.39997
1.40066
4.19996
5.50993
5.32429
5.16623
5.13746
5.30025
5.88146
5.91726
5.90836
5.74793
5.21103
4.99679
5.79726
6.39213
1.39997
1.39997
1.39997
1.39997
1.39997
1.39997
1.39997
1.39997
1.39997
1.39997
1.39997
1.39997
1.39997
1.39997
1.39997
1.40007
3.82967
5.20355
5.11012
5.04782
5.26006
5.85463
6.01302
5.95852
5.51532
4.92842
5.07913
5.49448
5.89839
6.17547
1.39997
1.39997
1.39997
1.39997
1.39997
1.39997
1.39997
1.39997
1.39997
1.39997
1.39997
1.39997
1.39997
1.39997
1.39997
1.40011
3.64312
5.12526
5.10724
5.3505
5.74927
5.81381
5.83363
5.60929
4.85979
4.93904
5.14625
5.84307
5.61997
5.76619
1.39997
1.39997
1.39997
1.39997
1.39997
1.39997
1.39997
1.39997
1.39997
1.39997
1.39997
1.39997
1.39997
1.39997
1.39997
1.39998
3.46604
5.03852
5.34768
5.69012
5.77503
5.72294
5.59585
4.92102
4.70758
4.82769
5.52542
5.81417
5.35586
4.41187
1.39997
1.39997
1.39997
1.39997
1.39997
1.39997
1.39997
1.39997
1.39997
1.39997
1.39997
1.39997
1.39997
1.39997
1.39997
1.39996
3.36569
5.22666
5.50407
5.61417
5.62278
5.50745
4.905
4.87
5.04418
5.34277
5.67648
5.55265
4.83525
3.95427
1.39997
1.39997
1.39997
1.39997
1.39997
1.39997
1.39997
1.39997
1.39997
1.39997
1.39997
1.39997
1.39997
1.39997
1.39997
1.39997
2.86464
5.11866
5.2866
5.26146
5.22805
5.18013
5.27491
5.44722
5.59942
5.57277
5.22272
4.83367
4.45217
3.71538
1.39997
1.39997
1.39997
1.39997
1.39997
1.39997
1.39997
1.39997
1.39997
1.39997
1.39997
1.39997
1.39997
1.39997
1.39997
1.39997
1.98969
4.75034
5.24935
5.24546
5.28095
5.32424
5.32659
5.29277
5.20369
5.0603
4.93063
4.75743
4.48852
3.78524
1.39997
1.39997
1.39997
1.39997
1.39997
1.39997
1.39997
1.39997
1.39997
1.39997
1.39997
1.39997
1.39997
1.39997
1.39997
1.39997
1.45439
3.94247
5.26708
5.2675
5.25208
5.22358
5.18208
5.11174
5.02868
4.9366
4.80291
4.57042
4.15735
3.57505
1.39997
1.39997
1.39997
1.39997
1.39997
1.39997
1.39997
1.39997
1.39997
1.39997
1.39997
1.39997
1.39997
1.39997
1.39997
1.39997
1.39998
2.78005
5.07569
5.20591
5.16524
5.14232
5.10373
5.04911
4.95874
4.82533
4.63974
4.38831
4.02618
3.58751
1.39997
1.39997
1.39997
1.39997
1.39997
1.39997
1.39997
1.39997
1.39997
1.39997
1.39997
1.39997
1.39997
1.39997
1.39997
1.39997
1.39997
1.65509
4.54444
5.24254
5.17321
5.12425
5.0595
4.97573
4.85197
4.70469
4.53031
4.30166
3.97357
3.61777
1.39997
1.39997
1.39997
1.39997
1.39997
1.39997
1.39997
1.39997
1.39997
1.39997
1.39997
1.39997
1.39997
1.39997
1.39997
1.39997
1.39997
1.40574
3.33748
5.07095
5.08292
5.0447
4.98022
4.89098
4.77224
4.62314
4.45616
4.22248
3.93897
3.63708
1.39997
1.39997
1.39997
1.39997
1.39997
1.39997
1.39997
1.39997
1.39997
1.39997
1.39997
1.39997
1.39997
1.39997
1.39997
1.39997
1.39997
1.39995
1.90689
4.65285
5.08277
4.98767
4.91919
4.83568
4.72427
4.58072
4.40419
4.1838
3.93359
3.66126
1.39997
1.39997
1.39997
1.39997
1.39997
1.39997
1.39997
1.39997
1.39997
1.39997
1.39997
1.39997
1.39997
1.39997
1.39997
1.39997
1.39997
1.39996
1.42658
3.38965
4.92997
4.91875
4.84652
4.77324
4.66832
4.53859
4.37233
4.17304
3.94503
3.7001
1.39997
1.39997
1.39997
1.39997
1.39997
1.39997
1.39997
1.39997
1.39997
1.39997
1.39997
1.39997
1.39997
1.39997
1.39997
1.39997
1.39997
1.39997
1.39999
1.81424
4.41023
4.94424
4.83505
4.74098
4.62561
4.49828
4.34782
4.17087
3.96389
3.74379
1.39997
1.39997
1.39997
1.39997
1.39997
1.39997
1.39997
1.39997
1.39997
1.39997
1.39997
1.39997
1.39997
1.39997
1.39997
1.39997
1.39997
1.39997
1.39997
1.41634
2.97517
4.78693
4.78291
4.69266
4.5811
4.45908
4.32105
4.16341
3.98222
3.78838
1.39997
1.39997
1.39997
1.39997
1.39997
1.39997
1.39997
1.39997
1.39997
1.39997
1.39997
1.39997
1.39997
1.39997
1.39997
1.39997
1.39997
1.39997
1.39997
1.4
1.65084
3.87697
4.81294
4.70489
4.59046
4.46412
4.32329
4.16976
4.00753
3.83308
1.39997
1.39997
1.39997
1.39997
1.39997
1.39997
1.39997
1.39997
1.39997
1.39997
1.39997
1.39997
1.39997
1.39997
1.39997
1.39997
1.39997
1.39997
1.39997
1.39997
1.40553
2.1363
4.36197
4.71893
4.61124
4.48349
4.33885
4.18645
4.03748
3.87295
1.39997
1.39997
1.39997
1.39997
1.39997
1.39997
1.39997
1.39997
1.39997
1.39997
1.39997
1.39997
1.39997
1.39997
1.39997
1.39997
1.39997
1.39997
1.39997
1.39997
1.39999
1.45097
2.8096
4.60715
4.66558
4.53024
4.38722
4.23259
4.08805
3.92253
1.39997
1.39997
1.39997
1.39997
1.39997
1.39997
1.39997
1.39997
1.39997
1.39997
1.39997
1.39997
1.39997
1.39997
1.39997
1.39997
1.39997
1.39997
1.39997
1.39997
1.39997
1.40038
1.59979
3.47183
4.63241
4.57649
4.43178
4.28016
4.13687
3.97293
1.39997
1.39997
1.39997
1.39997
1.39997
1.39997
1.39997
1.39997
1.39997
1.39997
1.39997
1.39997
1.39997
1.39997
1.39997
1.39997
1.39997
1.39997
1.39997
1.39997
1.39997
1.39997
1.40388
1.87026
3.83961
4.5758
4.48402
4.34239
4.20092
4.04343
1.39997
1.39997
1.39997
1.39997
1.39997
1.39997
1.39997
1.39997
1.39997
1.39997
1.39997
1.39997
1.39997
1.39997
1.39997
1.39997
1.39997
1.39997
1.39997
1.39997
1.39997
1.39997
1.39998
1.4199
2.15592
4.05232
4.51502
4.41077
4.27008
4.12622
1.39997
1.39997
1.39997
1.39997
1.39997
1.39997
1.39997
1.39997
1.39997
1.39997
1.39997
1.39997
1.39997
1.39997
1.39997
1.39997
1.39997
1.39997
1.39997
1.39997
1.39997
1.39997
1.39997
1.4001
1.45243
2.4238
4.15827
4.45493
4.34567
4.20655
1.39997
1.39997
1.39997
1.39997
1.39997
1.39997
1.39997
1.39997
1.39997
1.39997
1.39997
1.39997
1.39997
1.39997
1.39997
1.39997
1.39997
1.39997
1.39997
1.39997
1.39997
1.39997
1.39997
1.39997
1.40051
1.4991
2.63895
4.18825
4.39306
4.28797
1.39997
1.39997
1.39997
1.39997
1.39997
1.39997
1.39997
1.39997
1.39997
1.39997
1.39997
1.39997
1.39997
1.39997
1.39997
1.39997
1.39997
1.39997
1.39997
1.39997
1.39997
1.39997
1.39997
1.39997
1.39997
1.40141
1.55076
2.78336
4.16984
4.315
1.39997
1.39997
1.39997
1.39997
1.39997
1.39997
1.39997
1.39997
1.39997
1.39997
1.39997
1.39997
1.39997
1.39997
1.39997
1.39997
1.39997
1.39997
1.39997
1.39997
1.39997
1.39997
1.39997
1.39997
1.39997
1.39997
1.40284
1.59567
2.86859
4.13674
1.39997
1.39997
1.39997
1.39997
1.39997
1.39997
1.39997
1.39997
1.39997
1.39997
1.39997
1.39997
1.39997
1.39997
1.39997
1.39997
1.39997
1.39997
1.39997
1.39997
1.39997
1.39997
1.39997
1.39997
1.39997
1.39997
1.39998
1.40475
1.62598
3.00987
1.39997
1.39997
1.39997
1.39997
1.39997
1.39997
1.39997
1.39997
1.39997
1.39997
1.39997
1.39997
1.39997
1.39997
1.39997
1.39997
1.39997
1.39997
1.39997
1.39997
1.39997
1.39997
1.39997
1.39997
1.39997
1.39997
1.39997
1.39999
1.40528
1.72011
1.39997
1.39997
1.39997
1.39997
1.39997
1.39997
1.39997
1.39997
1.39997
1.39997
1.39997
1.39997
1.39997
1.39997
1.39997
1.39997
1.39997
1.39997
1.39997
1.39997
1.39997
1.39997
1.39997
1.39997
1.39997
1.39997
1.39997
1.39997
1.39999
1.41036
1.39997
1.39997
1.39997
1.39997
1.39997
1.39997
1.39997
1.39997
1.39997
1.39997
1.39997
1.39997
1.39997
1.39997
1.39997
1.39997
1.39997
1.39997
1.39997
1.39997
1.39997
1.39997
1.39997
1.39997
1.39997
1.39997
1.39997
1.39997
1.39997
1.39999
1.39997
1.39997
1.39997
1.39997
1.39997
1.39997
1.39997
1.39997
1.39997
1.39997
1.39997
1.39997
1.39997
1.39997
1.39997
1.39997
1.39997
1.39997
1.39997
1.39997
1.39997
1.39997
1.39997
1.39997
1.39997
1.39997
1.39997
1.39997
1.39997
1.39997
1.39997
1.39997
1.39997
1.39997
1.39997
1.39997
1.39997
1.39997
1.39997
1.39997
1.39997
1.39997
1.39997
1.39997
1.39997
1.39997
1.39997
1.39997
1.39997
1.39997
1.39997
1.39997
1.39997
1.39997
1.39997
1.39997
1.39997
1.39997
1.39997
1.39997
1.39997
1.39997
1.39997
1.39997
1.39997
1.39997
1.39997
1.39997
1.39997
1.39997
1.39997
1.39997
1.39997
1.39997
1.39997
1.39997
1.39997
1.39997
1.39997
1.39997
1.39997
1.39997
1.39997
1.39997
1.39997
1.39997
1.39997
1.39997
1.39997
1.39997
1.39997
1.39997
1.39997
1.39997
1.39997
1.39997
1.39997
1.39997
1.39997
1.39997
1.39997
1.39997
1.39997
1.39997
1.39997
1.39997
1.39997
1.39997
1.39997
1.39997
1.39997
1.39997
1.39997
1.39997
1.39997
1.39997
1.39997
1.39997
1.39997
1.39997
1.39997
1.39997
1.39997
1.39997
1.39997
1.39997
1.39997
1.39997
1.39997
1.39997
1.39997
1.39997
1.39997
1.39997
1.39997
1.39997
1.39997
1.39997
1.39997
1.39997
1.39997
1.39997
1.39997
1.39997
1.39997
1.39997
1.39997
1.39997
1.39997
1.39997
1.39997
1.39997
1.39997
1.39997
1.39997
1.39997
1.39997
1.39997
1.39997
1.39997
1.39997
1.39997
1.39997
1.39997
1.39997
1.39997
1.39997
1.39997
1.39997
1.39997
1.39997
1.39997
1.39997
1.39997
1.39997
1.39997
1.39997
1.39997
1.39997
1.39997
0.99715
0.444904
0.606956
0.816992
0.90121
0.956795
1.00647
1.24755
2.17428
2.54254
2.58764
2.58537
2.59629
2.5721
2.53266
2.48713
2.44075
2.39332
2.34116
2.28462
2.20966
2.14546
2.07829
2.00946
1.93963
1.87211
1.81074
1.753
1.70608
1.62071
1.78357
0.725933
0.740135
0.80894
0.894085
0.980533
1.00698
1.23175
2.18692
2.58598
2.62358
2.61285
2.62503
2.60235
2.56074
2.51109
2.46291
2.41387
2.36025
2.29844
2.23052
2.16113
2.08662
2.01116
1.93918
1.87298
1.81137
1.75103
1.70312
1.62077
2.18933
1.08699
0.844986
0.8455
0.9308
1.04005
1.06589
1.26165
2.25751
2.70948
2.72261
2.71215
2.72235
2.70661
2.66028
2.60424
2.55
2.49779
2.43885
2.37075
2.29561
2.21461
2.13209
2.04989
1.97418
1.90512
1.8393
1.77194
1.71519
1.62674
2.50251
1.49949
1.08084
0.905754
0.939939
1.03581
1.08813
1.24085
2.34076
2.94835
2.90103
2.86643
2.86415
2.84667
2.79592
2.72905
2.66218
2.59722
2.53215
2.45941
2.38068
2.29407
2.2023
2.11195
2.02573
1.94828
1.87888
1.81171
1.75534
1.66211
2.71035
1.82046
1.31424
0.977435
0.993456
1.02525
1.07334
1.2091
2.40704
3.2262
3.08918
3.02228
3.00141
2.96303
2.90651
2.83909
2.77217
2.70152
2.62774
2.54571
2.46293
2.37211
2.27341
2.17546
2.08125
1.99595
1.91969
1.84738
1.79231
1.70151
2.8547
2.07713
1.53642
1.14788
1.08787
1.03135
1.04669
1.13531
2.41626
3.50649
3.24715
3.10887
3.07634
3.04544
2.98788
2.92335
2.84766
2.76718
2.68434
2.59923
2.51605
2.4267
2.32824
2.23013
2.13516
2.04886
1.97041
1.89586
1.83848
1.74265
2.9706
2.28162
1.72867
1.3344
1.17261
1.0304
1.03903
1.19162
2.26954
3.53414
3.37473
3.16024
3.08587
3.0633
3.01575
2.95614
2.87832
2.79285
2.70591
2.62152
2.53892
2.45408
2.36167
2.26736
2.17332
2.0873
2.00857
1.9355
1.87845
1.77831
3.08009
2.45426
1.8886
1.51407
1.28932
1.06101
1.07327
1.30017
2.03582
3.41002
3.42212
3.2005
3.09105
3.06013
3.01125
2.94876
2.8731
2.79274
2.71101
2.62968
2.54695
2.46367
2.3755
2.28678
2.19736
2.11471
2.03621
1.9637
1.90435
1.79939
3.18457
2.59407
2.02364
1.67837
1.40012
1.124
1.13991
1.50406
1.89374
3.02531
3.42654
3.22253
3.10565
3.05742
3.00342
2.9388
2.86649
2.79267
2.71658
2.63693
2.55212
2.46641
2.37929
2.29536
2.21085
2.13143
2.05257
1.98024
1.91684
1.80774
3.28802
2.69914
2.14814
1.82216
1.50756
1.23219
1.26896
1.78628
1.93242
2.52874
3.32867
3.24618
3.12502
3.05673
2.99985
2.93748
2.87184
2.80251
2.72819
2.64722
2.55861
2.46824
2.38012
2.29886
2.21773
2.14058
2.0611
1.98931
1.92077
1.81031
3.38116
2.78574
2.269
1.95329
1.60878
1.34799
1.47632
2.085
2.06539
2.15548
3.01561
3.26348
3.15587
3.07078
3.00817
2.94811
2.88719
2.81857
2.74239
2.65858
2.56744
2.47466
2.38549
2.30371
2.22277
2.1457
2.06575
1.99432
1.9208
1.81194
3.46302
2.85622
2.39503
2.06929
1.70365
1.47535
1.79243
2.32516
2.2278
2.14783
2.57774
3.17461
3.19842
3.09368
3.01968
2.96435
2.9077
2.8364
2.75486
2.66814
2.57705
2.48503
2.39577
2.31186
2.22867
2.14946
2.06917
1.99736
1.91873
1.81714
3.53631
2.92093
2.52636
2.16334
1.80029
1.67575
2.16425
2.47214
2.37885
2.20474
2.26221
2.88123
3.17973
3.1306
3.04061
2.97823
2.91944
2.84518
2.76108
2.6745
2.58641
2.49796
2.41008
2.32414
2.23793
2.15553
2.07476
2.00033
1.91642
1.83092
3.60094
2.99627
2.65135
2.23237
1.9062
2.00676
2.56185
2.57348
2.48265
2.30389
2.24012
2.50462
3.02816
3.14259
3.05664
2.98785
2.92128
2.84686
2.76406
2.67913
2.59359
2.50836
2.42251
2.3358
2.24828
2.16403
2.08351
2.00315
1.91985
1.85592
3.66739
3.09254
2.76073
2.30077
2.0492
2.43921
2.87178
2.71072
2.56892
2.41266
2.26875
2.2746
2.69309
3.0666
3.07219
2.99034
2.91451
2.8425
2.76416
2.68368
2.60113
2.51816
2.43323
2.34663
2.25975
2.17473
2.0952
2.00497
1.93298
1.89869
3.73454
3.21019
2.84246
2.39031
2.27644
2.91036
3.09416
2.88599
2.67537
2.5116
2.34239
2.25627
2.36319
2.8123
3.0257
2.97531
2.89984
2.83291
2.7624
2.686
2.60499
2.52256
2.43835
2.35449
2.26937
2.18411
2.10501
2.00689
1.94794
1.96924
3.8046
3.34785
2.8974
2.49694
2.67418
3.33441
3.24136
3.02613
2.79587
2.61252
2.43768
2.27427
2.2162
2.45035
2.85631
2.93995
2.88186
2.82219
2.76196
2.70057
2.62357
2.54208
2.45635
2.36395
2.27619
2.18931
2.10221
2.01316
1.96872
2.08193
3.89545
3.48147
2.95111
2.64988
3.20578
3.6814
3.40806
3.15534
2.91963
2.71354
2.53023
2.33977
2.20295
2.21459
2.53374
2.82847
2.86613
2.8086
2.74789
2.67959
2.60464
2.52646
2.44203
2.35552
2.28886
2.20598
2.1068
2.03143
2.01049
2.236
3.99917
3.58453
3.04481
2.95624
3.73614
3.89007
3.59604
3.2839
3.03092
2.80974
2.61263
2.41871
2.22649
2.13643
2.22482
2.57634
2.79433
2.77658
2.72832
2.66128
2.58936
2.51598
2.43432
2.35833
2.27282
2.17175
2.09489
2.05023
2.09868
2.42436
4.10827
3.68187
3.17271
3.51045
4.23482
4.04858
3.73603
3.4149
3.14004
2.89986
2.68488
2.48931
2.2858
2.1295
2.08639
2.26555
2.6158
2.73285
2.69823
2.63646
2.57378
2.50086
2.42303
2.3468
2.2523
2.15329
2.09918
2.09935
2.30628
2.62292
4.11446
3.80523
3.37061
4.19515
4.56399
4.20569
3.86503
3.53676
3.24111
2.98215
2.74878
2.54474
2.351
2.1543
2.05033
2.05374
2.31611
2.62759
2.65704
2.60254
2.54386
2.4772
2.41165
2.33049
2.22911
2.15298
2.12437
2.23577
2.58287
2.73069
3.90296
3.72332
3.83955
4.85324
4.78464
4.348
3.97244
3.63716
3.33196
3.05821
2.81132
2.59324
2.40428
2.21025
2.04199
1.95987
2.03815
2.36843
2.57173
2.55168
2.5055
2.44502
2.38366
2.29675
2.20543
2.15379
2.1887
2.48071
2.81566
2.80356
3.33475
3.5564
4.55131
5.29218
4.8925
4.4674
4.07923
3.73182
3.41532
3.12739
2.86783
2.63595
2.44002
2.25567
2.06442
1.93444
1.88946
2.07278
2.39005
2.49654
2.46058
2.40457
2.33864
2.24651
2.19195
2.1789
2.37506
2.7362
2.89542
2.8401
2.52109
3.59303
5.26764
5.46524
4.98703
4.57888
4.17863
3.81326
3.48134
3.1798
2.90991
2.67252
2.46621
2.28526
2.1007
1.92258
1.82112
1.84965
2.11756
2.39134
2.40032
2.35486
2.28688
2.21133
2.18521
2.27869
2.65971
2.92489
2.93404
2.8503
2.16164
4.11079
5.94309
5.61246
5.07408
4.67278
4.26191
3.88086
3.53357
3.21915
2.93989
2.6939
2.48132
2.29227
2.11459
1.94424
1.7952
1.74493
1.85545
2.15208
2.32397
2.30231
2.24284
2.19562
2.22096
2.50558
2.86676
2.97156
2.94337
2.85185
1.82107
4.60473
6.47673
5.72247
5.16997
4.74373
4.33799
3.94936
3.59079
3.26492
2.9806
2.73808
2.52154
2.32275
2.13555
1.95609
1.78918
1.6977
1.69695
1.89001
2.19184
2.24836
2.19678
2.19896
2.35997
2.79537
3.00476
2.97947
2.93756
2.84926
1.55999
4.92417
6.66081
5.78166
5.24595
4.76534
4.31244
3.90666
3.54306
3.22373
2.94547
2.69926
2.47834
2.2834
2.11577
1.96426
1.82497
1.67998
1.62968
1.67982
1.95056
2.15256
2.1624
2.25587
2.60942
2.95696
3.01046
2.97492
2.92836
2.8501
1.46651
4.75439
6.39118
5.66367
5.18379
4.73415
4.28138
3.87525
3.51843
3.2062
2.93169
2.68579
2.46351
2.26836
2.10758
1.9658
1.8236
1.68373
1.59564
1.54607
1.71824
2.01339
2.16112
2.46519
2.85785
3.02383
3.00364
2.96219
2.92065
2.85095
1.51289
4.48537
6.06751
5.52217
5.07511
4.64028
4.22684
3.84031
3.4959
3.18939
2.91622
2.6719
2.45506
2.26523
2.10152
1.96146
1.82611
1.69812
1.57222
1.49172
1.55985
1.86739
2.27486
2.6797
2.9762
3.03229
2.98882
2.95395
2.92038
2.86387
1.56145
4.379
5.9051
5.46979
5.08016
4.64215
4.21769
3.83465
3.49025
3.18468
2.91165
2.66672
2.45281
2.26637
2.09844
1.95769
1.82944
1.71172
1.56046
1.45546
1.47126
1.74232
2.39565
2.92453
3.09493
3.04388
2.98307
2.94974
2.9236
2.86158
)
;

boundaryField
{
    inlet
    {
        type            calculated;
        value           uniform 1.39997;
    }
    outlet
    {
        type            calculated;
        value           nonuniform List<scalar> 
30
(
1.62099
1.6208
1.62705
1.66268
1.70172
1.74283
1.77851
1.79966
1.80806
1.81055
1.812
1.81702
1.83067
1.85574
1.89874
1.96958
2.0826
2.23705
2.4253
2.62341
2.73067
2.80327
2.84011
2.85045
2.85212
2.84976
2.85058
2.85141
2.86416
2.86225
)
;
    }
    top
    {
        type            symmetryPlane;
    }
    bottom
    {
        type            symmetryPlane;
    }
    step
    {
        type            calculated;
        value           nonuniform List<scalar> 
60
(
6.40461
5.87752
5.3631
5.44845
6.07634
6.64523
6.23005
5.67581
5.23319
5.27291
6.09387
6.74383
6.6639
5.67759
5.14999
5.27292
5.45374
6.23842
6.4184
6.4024
5.53899
5.08244
4.9154
4.87953
5.93185
6.39213
6.17547
5.76619
4.41187
3.95427
0.99715
0.444904
0.606956
0.816992
0.90121
0.956795
1.00647
1.24755
2.17428
2.54254
2.58764
2.58537
2.59629
2.5721
2.53266
2.48713
2.44075
2.39332
2.34116
2.28462
2.20966
2.14546
2.07829
2.00946
1.93963
1.87211
1.81074
1.753
1.70608
1.62071
)
;
    }
    defaultFaces
    {
        type            empty;
    }
}


// ************************************************************************* //
