/*--------------------------------*- C++ -*----------------------------------*\
  =========                 |
  \\      /  F ield         | OpenFOAM: The Open Source CFD Toolbox
   \\    /   O peration     | Website:  https://openfoam.org
    \\  /    A nd           | Version:  6.0
     \\/     M anipulation  |
\*---------------------------------------------------------------------------*/
FoamFile
{
    version     2.0;
    format      ascii;
    class       volScalarField;
    location    "3.9992881";
    object      T;
}
// * * * * * * * * * * * * * * * * * * * * * * * * * * * * * * * * * * * * * //

dimensions      [0 0 0 1 0 0 0];

internalField   nonuniform List<scalar> 
2700
(
1
1
1
1
1
1
1
1
1
1
1
1
1
1
1
2.00589
2.69559
2.7295
2.72726
2.71715
2.70853
2.72786
2.78847
2.83678
2.8314
2.79127
2.75012
2.77495
2.85135
2.89886
1
1
1
1
1
1
1
1
1
1
1
1
1
1
1
1.99259
2.68293
2.71679
2.73405
2.74522
2.75872
2.76796
2.76757
2.76391
2.78396
2.79753
2.80718
2.80539
2.79539
2.80049
1
1
1
1
1
1
1
1
1
1
1
1
1
1
1
1.9883
2.67981
2.69386
2.71649
2.76295
2.79767
2.80226
2.75722
2.71873
2.7206
2.76479
2.84057
2.83245
2.74967
2.69567
1
1
1
1
1
1
1
1
1
1
1
1
1
1
1
1.98271
2.67793
2.70175
2.72289
2.75617
2.78764
2.78747
2.7643
2.72233
2.73243
2.79683
2.82321
2.81128
2.76525
2.71129
1
1
1
1
1
1
1
1
1
1
1
1
1
1
1
1.97919
2.68037
2.72668
2.73343
2.73709
2.73519
2.75264
2.77164
2.78875
2.80108
2.79341
2.77947
2.78924
2.8082
2.83172
1
1
1
1
1
1
1
1
1
1
1
1
1
1
1
1.97182
2.68759
2.73327
2.73944
2.72904
2.70769
2.7024
2.74864
2.84149
2.85355
2.79068
2.74771
2.76218
2.83971
2.93086
1
1
1
1
1
1
1
1
1
1
1
1
1
1
1
1.95757
2.68422
2.72293
2.72458
2.72207
2.71337
2.72965
2.78701
2.81292
2.80525
2.7927
2.75388
2.7531
2.82645
2.85675
1
1
1
1
1
1
1
1
1
1
1
1
1
1
1
1.93328
2.67459
2.70058
2.71008
2.72898
2.7654
2.78701
2.77702
2.75007
2.73991
2.76974
2.79826
2.80133
2.77829
2.75015
1
1
1
1
1
1
1
1
1
1
1
1
1
1
1
1.90391
2.66196
2.68477
2.69565
2.74143
2.79106
2.81207
2.77999
2.7134
2.69527
2.70928
2.80604
2.84393
2.73176
2.65925
1
1
1
1
1
1
1
1
1
1
1
1
1
1
1
1.87447
2.64937
2.694
2.72708
2.75267
2.76502
2.76959
2.74558
2.73249
2.7268
2.77295
2.81909
2.8145
2.73861
2.66513
1
1
1
1
1
1
1
1
1
1
1
1
1
1
1
1.84573
2.63949
2.72723
2.73963
2.73996
2.72855
2.70859
2.72978
2.76781
2.82166
2.81988
2.78702
2.75325
2.79334
2.82334
1
1
1
1
1
1
1
1
1
1
1
1
1
1
1
1.83877
2.6494
2.72847
2.74224
2.73503
2.70463
2.68785
2.70521
2.79286
2.84951
2.84738
2.7332
2.71604
2.82812
2.94023
1
1
1
1
1
1
1
1
1
1
1
1
1
1
1
1.81096
2.64971
2.70897
2.70743
2.71148
2.71851
2.73233
2.77765
2.79624
2.79169
2.73599
2.74637
2.73766
2.81984
2.92035
1
1
1
1
1
1
1
1
1
1
1
1
1
1
1
1.76278
2.63128
2.68622
2.67688
2.68773
2.72998
2.79202
2.8048
2.77853
2.69193
2.67758
2.74475
2.7978
2.78595
2.73895
1
1
1
1
1
1
1
1
1
1
1
1
1
1
1
1.69815
2.59701
2.66853
2.67388
2.70543
2.75922
2.78862
2.80289
2.7327
2.67268
2.66491
2.75007
2.83293
2.76206
2.63264
1
1
1
1
1
1
1
1
1
1
1
1
1
1
1
1.63707
2.56742
2.67104
2.72099
2.75037
2.75184
2.74878
2.70089
2.71141
2.73033
2.75891
2.80115
2.80695
2.70423
2.6545
1
1
1
1
1
1
1
1
1
1
1
1
1
1
1
1.59724
2.55228
2.70177
2.73666
2.75702
2.75348
2.68625
2.64578
2.67674
2.78564
2.84696
2.81563
2.73428
2.67889
2.68117
1
1
1
1
1
1
1
1
1
1
1
1
1
1
1
1.58202
2.57337
2.71588
2.72186
2.72115
2.69011
2.68264
2.67367
2.72917
2.8135
2.82947
2.76587
2.67727
2.73915
2.83784
1
1
1
1
1
1
1
1
1
1
1
1
1
1
1
1.51792
2.55803
2.71609
2.69589
2.66483
2.65783
2.68649
2.77422
2.79749
2.76971
2.74563
2.68763
2.68543
2.79851
2.8666
1
1
1
1
1
1
1
1
1
1
1
1
1
1
1
1.44636
2.51248
2.68719
2.65337
2.64791
2.65625
2.74007
2.79995
2.816
2.75943
2.63479
2.66116
2.72517
2.79268
2.85594
1
1
1
1
1
1
1
1
1
1
1
1
1
1
1
1.33732
2.44444
2.64474
2.64489
2.67144
2.74638
2.76128
2.75923
2.73782
2.6442
2.64851
2.68675
2.78235
2.76729
2.70123
1
1
1
1
1
1
1
1
1
1
1
1
1
1
1
1.23178
2.38795
2.62108
2.65376
2.72758
2.7618
2.76752
2.7271
2.63434
2.59751
2.62702
2.76043
2.78644
2.7293
2.60174
1
1
1
1
1
1
1
1
1
1
1
1
1
1
1
1.14369
2.36145
2.65468
2.70716
2.73083
2.73533
2.71014
2.62754
2.62772
2.62952
2.72421
2.77463
2.78274
2.62226
2.56176
1
1
1
1
1
1
1
1
1
1
1
1
1
1
1
1.07594
2.36772
2.68989
2.69661
2.70945
2.68142
2.62389
2.61979
2.66369
2.79751
2.80539
2.74813
2.64503
2.61033
2.53573
1
1
1
1
1
1
1
1
1
1
1
1
1
1
1
1.02178
2.35004
2.67509
2.68003
2.66103
2.60217
2.59563
2.60452
2.75087
2.81889
2.81524
2.71863
2.5644
2.61075
2.76216
1
1
1
1
1
1
1
1
1
1
1
1
1
1
1
1.00025
2.30894
2.66418
2.62812
2.60004
2.59916
2.63872
2.75605
2.76453
2.75747
2.72945
2.62871
2.57605
2.73862
2.84166
1
1
1
1
1
1
1
1
1
1
1
1
1
1
1
1.00003
2.23286
2.62236
2.59191
2.57341
2.61533
2.73832
2.7722
2.76523
2.67957
2.56265
2.59858
2.67518
2.75076
2.78749
1
1
1
1
1
1
1
1
1
1
1
1
1
1
1
1.00004
2.18884
2.62507
2.60043
2.63782
2.71206
2.7267
2.73446
2.69307
2.54356
2.56144
2.60525
2.7398
2.68828
2.67585
1
1
1
1
1
1
1
1
1
1
1
1
1
1
1
1
2.13837
2.62168
2.66587
2.71842
2.72378
2.71203
2.68644
2.55927
2.51192
2.53883
2.68328
2.72861
2.63203
2.43194
1
1
1
1
1
1
1
1
1
1
1
1
1
1
1
0.999997
2.11041
2.67538
2.70723
2.71224
2.70995
2.68159
2.56302
2.55552
2.59526
2.66112
2.71833
2.6907
2.55597
2.38089
1
1
1
1
1
1
1
1
1
1
1
1
1
1
1
0.999999
1.8784
2.61228
2.65873
2.65147
2.64278
2.63201
2.65107
2.68619
2.72108
2.72066
2.64923
2.57539
2.52238
2.44426
1
1
1
1
1
1
1
1
1
1
1
1
1
1
1
1
1.39181
2.41554
2.60585
2.63234
2.64912
2.66057
2.66227
2.65826
2.64566
2.6188
2.59429
2.56537
2.52914
2.45015
1
1
1
1
1
1
1
1
1
1
1
1
1
1
1
1
1.02858
2.19601
2.57741
2.6123
2.62658
2.63131
2.62829
2.61759
2.60466
2.58975
2.5658
2.52378
2.44775
2.34512
1
1
1
1
1
1
1
1
1
1
1
1
1
1
1
1
1.00006
1.78535
2.48681
2.56558
2.57996
2.59196
2.59447
2.59231
2.58264
2.56084
2.52632
2.47722
2.40202
2.31078
1
1
1
1
1
1
1
1
1
1
1
1
1
1
1
1
0.999999
1.15651
2.30029
2.54461
2.54695
2.55515
2.55823
2.55575
2.54359
2.52306
2.49393
2.4503
2.38067
2.30194
1
1
1
1
1
1
1
1
1
1
1
1
1
1
1
1
1
1.00319
1.98938
2.48594
2.51536
2.51295
2.51249
2.50948
2.50085
2.4846
2.46123
2.41972
2.36141
2.29511
1
1
1
1
1
1
1
1
1
1
1
1
1
1
1
1
1
0.999997
1.3134
2.30973
2.48682
2.4763
2.4759
2.47212
2.46343
2.44845
2.42537
2.38974
2.34214
2.28622
1
1
1
1
1
1
1
1
1
1
1
1
1
1
1
1
1
0.999999
1.0143
1.99006
2.42889
2.45223
2.44381
2.43783
2.42707
2.41265
2.39112
2.36108
2.32163
2.27522
1
1
1
1
1
1
1
1
1
1
1
1
1
1
1
1
1
1
1.00002
1.25019
2.22235
2.42585
2.41413
2.40761
2.39574
2.38086
2.36113
2.33484
2.30026
2.26103
1
1
1
1
1
1
1
1
1
1
1
1
1
1
1
1
1
1
1
1.00848
1.79343
2.33146
2.38877
2.37733
2.36494
2.35096
2.33313
2.30982
2.28004
2.24651
1
1
1
1
1
1
1
1
1
1
1
1
1
1
1
1
1
1
1
1.00002
1.14376
2.05858
2.35862
2.34855
2.33854
2.32559
2.30848
2.28752
2.26278
2.2337
1
1
1
1
1
1
1
1
1
1
1
1
1
1
1
1
1
1
1
1
1.00267
1.39837
2.15217
2.31552
2.30565
2.29603
2.28193
2.26399
2.24416
2.2191
1
1
1
1
1
1
1
1
1
1
1
1
1
1
1
1
1
1
1
1
1.00001
1.02581
1.67663
2.20241
2.28912
2.27141
2.25756
2.24124
2.22489
2.2026
1
1
1
1
1
1
1
1
1
1
1
1
1
1
1
1
1
1
1
1
1
1.00016
1.10834
1.88094
2.24009
2.24289
2.2304
2.21575
2.20127
2.18171
1
1
1
1
1
1
1
1
1
1
1
1
1
1
1
1
1
1
1
1
1
1
1.00173
1.2537
1.97823
2.21124
2.20393
2.1908
2.17789
2.16148
1
1
1
1
1
1
1
1
1
1
1
1
1
1
1
1
1
1
1
1
1
1
1
1.00941
1.38552
2.01441
2.17692
2.1669
2.15362
2.14078
1
1
1
1
1
1
1
1
1
1
1
1
1
1
1
1
1
1
1
1
1
1
1
1.00004
1.02541
1.49133
2.02552
2.14466
2.13271
2.11919
1
1
1
1
1
1
1
1
1
1
1
1
1
1
1
1
1
1
1
1
1
1
1
1
1.00019
1.04939
1.5642
2.02039
2.11411
2.10194
1
1
1
1
1
1
1
1
1
1
1
1
1
1
1
1
1
1
1
1
1
1
1
1
1
1.00054
1.07629
1.60528
2.0018
2.08292
1
1
1
1
1
1
1
1
1
1
1
1
1
1
1
1
1
1
1
1
1
1
1
1
1
1
1.00114
1.09939
1.61648
1.99504
1
1
1
1
1
1
1
1
1
1
1
1
1
1
1
1
1
1
1
1
1
1
1
1
1
1
1
1.00191
1.11192
1.70196
1
1
1
1
1
1
1
1
1
1
1
1
1
1
1
1
1
1
1
1
1
1
1
1
1
1
1
1.00001
1.00221
1.17331
1
1
1
1
1
1
1
1
1
1
1
1
1
1
1
1
1
1
1
1
1
1
1
1
1
1
1
1
1.00001
1.00476
1
1
1
1
1
1
1
1
1
1
1
1
1
1
1
1
1
1
1
1
1
1
1
1
1
1
1
1
1
1.00001
1
1
1
1
1
1
1
1
1
1
1
1
1
1
1
1
1
1
1
1
1
1
1
1
1
1
1
1
1
1
1
1
1
1
1
1
1
1
1
1
1
1
1
1
1
1
1
1
1
1
1
1
1
1
1
1
1
1
1
1
1
1
1
1
1
1
1
1
1
1
1
1
1
1
1
1
1
1
1
1
1
1
1
1
1
1
1
1
1
1
1
1
1
1
1
1
1
1
1
1
1
1
1
1
1
1
1
1
1
1
1
1
1
1
1
1
1
1
1
1
1
1
1
1
1
1
1
1
1
1
1
1
1
1
1
1
1
1
1
1
1
1
1
1
1
1
1
1
1
1
1
1
1
1
1
1
1
1
1
1
1
1
1
1
1
1
1
1
1
1
1
1
1
1
1
1
1
1
1
1
1.7017
1.4372
1.61566
1.78937
1.81655
1.81751
1.82499
2.07993
2.72413
2.88775
2.87431
2.849
2.82231
2.77531
2.72126
2.66503
2.61003
2.55754
2.5073
2.46028
2.41033
2.37049
2.33258
2.2945
2.25421
2.21144
2.16803
2.12404
2.08642
2.02723
2.00548
1.57124
1.5808
1.63586
1.69909
1.74299
1.74854
2.00664
2.6909
2.87254
2.85324
2.81666
2.78445
2.73688
2.68473
2.63089
2.57838
2.52757
2.47872
2.43161
2.38762
2.34902
2.312
2.27528
2.23782
2.19862
2.15707
2.11288
2.07531
2.01826
1.99145
1.62382
1.51514
1.49163
1.54955
1.62163
1.64033
1.8541
2.58655
2.80204
2.76972
2.71929
2.67708
2.63289
2.58757
2.54284
2.49752
2.45264
2.40772
2.36429
2.32512
2.29027
2.25966
2.23058
2.20157
2.1697
2.13271
2.08991
2.05095
1.99346
2.01822
1.69766
1.53614
1.43818
1.45251
1.50309
1.53071
1.63965
2.40213
2.68162
2.63024
2.56919
2.52375
2.48717
2.45266
2.41785
2.38073
2.34161
2.30326
2.26625
2.23432
2.20589
2.18101
2.15922
2.13715
2.11261
2.08353
2.04882
2.01495
1.9602
2.04895
1.76926
1.58163
1.42401
1.4305
1.43629
1.45607
1.52343
2.24105
2.55957
2.48928
2.43103
2.39383
2.36374
2.33728
2.31059
2.28236
2.25031
2.21688
2.1831
2.15425
2.12781
2.10379
2.08344
2.06399
2.04324
2.01865
1.9888
1.96045
1.91348
2.0798
1.84048
1.64751
1.47708
1.44155
1.40655
1.41356
1.45885
2.10827
2.50217
2.40612
2.34141
2.31478
2.29732
2.27459
2.25098
2.22291
2.19213
2.16037
2.12892
2.10083
2.07408
2.04824
2.02585
2.00528
1.98512
1.9625
1.93597
1.91101
1.86855
2.10624
1.90131
1.7114
1.54648
1.46577
1.39533
1.40073
1.48395
1.96341
2.4309
2.37616
2.30246
2.27086
2.2582
2.23911
2.21692
2.18878
2.15792
2.12657
2.09665
2.06858
2.04157
2.01456
1.98938
1.9653
1.94271
1.91944
1.89485
1.87253
1.83289
2.12596
1.95043
1.7643
1.6155
1.51444
1.40868
1.41602
1.54478
1.86223
2.36794
2.3601
2.28871
2.24977
2.23269
2.21241
2.1891
2.16159
2.13274
2.10382
2.07558
2.04749
2.02006
1.99241
1.96604
1.94021
1.91604
1.89139
1.86685
1.84463
1.80555
2.13666
1.98319
1.80514
1.67703
1.56148
1.43825
1.44705
1.65747
1.8158
2.23958
2.34126
2.27774
2.23625
2.21227
2.18919
2.16454
2.13829
2.1119
2.08552
2.05866
2.0305
2.00231
1.97442
1.9484
1.92253
1.89784
1.87207
1.84724
1.82397
1.78447
2.14256
2.00022
1.8382
1.72702
1.60425
1.48746
1.50729
1.78356
1.82738
2.03788
2.28982
2.26153
2.21789
2.18829
2.16407
2.13994
2.11603
2.09171
2.06697
2.04107
2.01299
1.98428
1.9567
1.93171
1.90676
1.88245
1.85629
1.83174
1.80713
1.76781
2.1439
2.00783
1.86504
1.76653
1.63895
1.53603
1.60428
1.88054
1.85881
1.87357
2.1708
2.22916
2.191
2.15974
2.13547
2.1127
2.09044
2.06748
2.04421
2.01948
1.99238
1.96457
1.93818
1.91423
1.89029
1.8667
1.84104
1.81729
1.79165
1.7539
2.14212
2.00708
1.88855
1.79486
1.66578
1.58498
1.74379
1.94137
1.89584
1.85049
1.98806
2.1591
2.15958
2.12709
2.1017
2.08107
2.06112
2.03915
2.01647
1.99292
1.96765
1.9418
1.9173
1.89463
1.87177
1.84899
1.82464
1.8019
1.77543
1.74192
2.1363
2.00545
1.91147
1.81174
1.68953
1.65716
1.88167
1.96644
1.92212
1.84864
1.84336
2.03145
2.11022
2.09571
2.06765
2.04627
2.02748
2.00641
1.98457
1.96267
1.93988
1.91667
1.89435
1.87303
1.85132
1.82951
1.80687
1.78475
1.75774
1.73188
2.1251
2.00592
1.93154
1.81881
1.7196
1.76871
1.98949
1.97849
1.93143
1.85553
1.81027
1.8784
2.02557
2.05533
2.03162
2.01094
1.99159
1.97208
1.95188
1.93163
1.91073
1.88951
1.86908
1.84908
1.82879
1.80835
1.78758
1.76553
1.73981
1.72506
2.11038
2.00854
1.94346
1.82377
1.75868
1.91601
2.05247
1.99659
1.9346
1.86312
1.80227
1.76806
1.89748
1.99554
1.99732
1.97567
1.95581
1.93852
1.92071
1.90244
1.88308
1.86291
1.84344
1.82452
1.80562
1.78633
1.76728
1.74412
1.72281
1.7243
2.09229
2.01257
1.9425
1.83059
1.81944
2.05479
2.08609
2.01712
1.93739
1.86612
1.79542
1.74431
1.7696
1.89602
1.95117
1.94001
1.92243
1.90749
1.8925
1.87584
1.85734
1.83764
1.8185
1.80053
1.78252
1.76382
1.74662
1.72085
1.70968
1.72738
2.07218
2.01542
1.93444
1.84863
1.91993
2.13551
2.09832
2.02218
1.93987
1.86763
1.79734
1.73549
1.70134
1.76801
1.88026
1.90632
1.89405
1.88092
1.86801
1.85532
1.83842
1.81998
1.80057
1.77973
1.76103
1.74256
1.72446
1.69941
1.69749
1.74621
2.05655
2.01287
1.92031
1.87575
2.06218
2.17961
2.10402
2.02283
1.94273
1.86927
1.80215
1.73348
1.68626
1.6764
1.77295
1.85713
1.87141
1.8576
1.844
1.82864
1.8118
1.79436
1.77529
1.7564
1.74459
1.72864
1.70641
1.68665
1.69144
1.78309
2.04552
2.00251
1.91418
1.92875
2.17706
2.18345
2.10895
2.02141
1.9428
1.87132
1.80618
1.7407
1.67859
1.64147
1.66732
1.77386
1.83564
1.83322
1.82382
1.80855
1.79127
1.77371
1.75465
1.73882
1.72158
1.70047
1.68232
1.67912
1.70097
1.82491
2.03697
1.98524
1.92024
2.0294
2.23202
2.18434
2.10624
2.02222
1.94533
1.87498
1.80971
1.74815
1.68267
1.63379
1.61252
1.67048
1.77483
1.81179
1.80519
1.79095
1.77534
1.75677
1.73784
1.7206
1.69991
1.67691
1.66843
1.67684
1.74991
1.85818
2.02074
1.97796
1.93694
2.15706
2.25169
2.18215
2.10706
2.02702
1.95044
1.87972
1.81303
1.75216
1.69184
1.63113
1.59434
1.59671
1.68133
1.77487
1.78926
1.7751
1.76003
1.743
1.72668
1.70629
1.68104
1.66037
1.66393
1.70443
1.81736
1.86621
1.98482
1.95563
2.00679
2.27005
2.264
2.18685
2.10932
2.03191
1.95637
1.88499
1.81762
1.75577
1.69993
1.6405
1.58895
1.56471
1.5929
1.69929
1.764
1.75951
1.74807
1.73212
1.71534
1.69113
1.66471
1.65438
1.67134
1.76682
1.86925
1.8707
1.92224
1.9362
2.15143
2.33706
2.27158
2.1952
2.11614
2.03828
1.96247
1.89044
1.82301
1.76045
1.70606
1.65253
1.59673
1.55818
1.5506
1.61281
1.71561
1.75008
1.74
1.72339
1.70326
1.67596
1.65693
1.65913
1.72158
1.82989
1.88008
1.86904
1.71896
1.96376
2.32327
2.37042
2.28335
2.20477
2.1233
2.04387
1.96742
1.89536
1.82925
1.76932
1.71558
1.66717
1.61563
1.5627
1.53789
1.54909
1.64182
1.73429
1.73191
1.71634
1.69381
1.6706
1.65878
1.68852
1.80401
1.87809
1.88546
1.86468
1.42982
2.0613
2.44672
2.38575
2.28814
2.21107
2.12914
2.05042
1.97517
1.90439
1.84012
1.78231
1.73039
1.68197
1.63338
1.58512
1.53824
1.52572
1.56596
1.67414
1.72263
1.713
1.69145
1.6727
1.67808
1.76285
1.86466
1.89441
1.887
1.86048
1.16094
2.03484
2.49429
2.38235
2.29349
2.2228
2.14981
2.07491
2.0018
1.93193
1.86834
1.81192
1.75879
1.70686
1.65514
1.60396
1.55167
1.52082
1.51942
1.59252
1.69972
1.7075
1.69093
1.68252
1.73254
1.86194
1.91272
1.90474
1.88955
1.8578
1.04599
2.10429
2.53927
2.40634
2.32612
2.25286
2.17531
2.09806
2.02355
1.95376
1.88865
1.82695
1.76833
1.71404
1.6647
1.61752
1.57286
1.52063
1.49984
1.51979
1.62633
1.69117
1.69123
1.71679
1.82407
1.92147
1.92669
1.91302
1.89296
1.85774
1.02472
2.25854
2.60889
2.47556
2.39153
2.31023
2.22261
2.13847
2.05946
1.9857
1.91632
1.85007
1.78677
1.72816
1.67627
1.62672
1.57512
1.52402
1.49023
1.47212
1.54135
1.65406
1.69909
1.79349
1.91272
1.94644
1.93625
1.91718
1.89566
1.85785
1.10953
2.40068
2.7038
2.57561
2.466
2.36229
2.2658
2.1739
2.08862
2.00916
1.93477
1.86481
1.79938
1.73888
1.68325
1.63219
1.58098
1.53288
1.4845
1.45223
1.47877
1.60069
1.73887
1.86044
1.9527
1.95428
1.93842
1.91928
1.89828
1.86137
1.2046
2.46704
2.74563
2.62852
2.51328
2.3959
2.28818
2.19063
2.10082
2.01832
1.9416
1.86966
1.80358
1.74295
1.68525
1.63389
1.58539
1.54005
1.48163
1.43859
1.44438
1.55194
1.77445
1.93023
1.98155
1.9634
1.93971
1.91925
1.89983
1.861
)
;

boundaryField
{
    inlet
    {
        type            fixedValue;
        value           uniform 1;
    }
    outlet
    {
        type            inletOutlet;
        inletValue      uniform 1;
        value           nonuniform List<scalar> 
30
(
2.02688
2.01822
1.99308
1.95953
1.91324
1.86836
1.83268
1.80528
1.78416
1.76758
1.75384
1.74204
1.73211
1.72522
1.72425
1.72708
1.74565
1.78226
1.8242
1.85784
1.86623
1.87089
1.86903
1.86458
1.8603
1.85748
1.85742
1.85755
1.86118
1.86057
)
;
    }
    top
    {
        type            symmetryPlane;
    }
    bottom
    {
        type            symmetryPlane;
    }
    step
    {
        type            zeroGradient;
    }
    defaultFaces
    {
        type            empty;
    }
}


// ************************************************************************* //
