/*--------------------------------*- C++ -*----------------------------------*\
  =========                 |
  \\      /  F ield         | OpenFOAM: The Open Source CFD Toolbox
   \\    /   O peration     | Website:  https://openfoam.org
    \\  /    A nd           | Version:  6.0
     \\/     M anipulation  |
\*---------------------------------------------------------------------------*/
FoamFile
{
    version     2.0;
    format      ascii;
    class       volVectorField;
    location    "3.9992881";
    object      U;
}
// * * * * * * * * * * * * * * * * * * * * * * * * * * * * * * * * * * * * * //

dimensions      [0 1 -1 0 0 0 0];

internalField   nonuniform List<vector> 
2700
(
(3 -4.43534e-17 0)
(3 2.19093e-16 0)
(3 2.35176e-16 0)
(3 1.60648e-17 0)
(3 -8.73008e-17 0)
(3 1.60931e-18 0)
(3 1.03076e-16 0)
(3 -2.23646e-16 0)
(3 -6.7905e-16 0)
(3 -7.30178e-16 0)
(3 -5.31772e-16 0)
(3 -2.09361e-16 0)
(3 1.41311e-18 0)
(3 -6.02302e-16 0)
(3 7.18192e-16 0)
(1.56192 0.00650041 0)
(0.768796 0.0100865 0)
(0.697181 -0.00786651 0)
(0.646142 -0.00604178 0)
(0.585953 0.00983228 0)
(0.516884 0.0326575 0)
(0.462454 0.0493998 0)
(0.436511 0.0433099 0)
(0.406488 -0.0111493 0)
(0.366986 -0.049359 0)
(0.274553 -0.0531467 0)
(0.185309 0.0197738 0)
(0.154767 0.0441008 0)
(0.131294 -0.0204946 0)
(0.0580802 -0.0912197 0)
(3 1.25182e-17 0)
(3 -2.16984e-16 0)
(3 1.40751e-17 0)
(3 6.61772e-16 0)
(3 5.99644e-16 0)
(3 1.58945e-16 0)
(3 9.87812e-17 0)
(3 -7.07977e-16 0)
(3 -3.59259e-16 0)
(3 -5.37254e-16 0)
(3 -1.06169e-15 0)
(3 -7.56888e-16 0)
(3 -5.84017e-16 0)
(3 -3.73324e-16 0)
(3 1.19194e-15 0)
(1.57676 0.0285541 0)
(0.76187 0.035218 0)
(0.689701 0.00715019 0)
(0.639765 -0.0175654 0)
(0.588261 -0.022143 0)
(0.54265 0.00802315 0)
(0.49011 0.0869135 0)
(0.433662 0.119818 0)
(0.378847 0.0850526 0)
(0.323718 -0.0349466 0)
(0.275888 -0.101203 0)
(0.228861 -0.0323847 0)
(0.161557 0.0864717 0)
(0.0955963 0.0446651 0)
(0.0443332 -0.0526699 0)
(3 4.53414e-17 0)
(3 -6.79428e-16 0)
(3 -2.30339e-16 0)
(3 2.93898e-16 0)
(3 1.60337e-15 0)
(3 1.12864e-15 0)
(3 3.22677e-16 0)
(3 -1.3624e-16 0)
(3 1.2282e-16 0)
(3 1.04512e-16 0)
(3 -1.15372e-15 0)
(3 -6.0768e-16 0)
(3 1.91658e-16 0)
(3 1.25544e-16 0)
(3 3.22041e-16 0)
(1.58294 0.0312452 0)
(0.758986 0.0294978 0)
(0.677536 0.0304837 0)
(0.632396 0.0256603 0)
(0.593849 0.0287232 0)
(0.551626 0.0448909 0)
(0.50481 0.0599049 0)
(0.431827 0.0685689 0)
(0.351937 0.0482002 0)
(0.289702 0.0133236 0)
(0.277929 0.00649755 0)
(0.257456 0.0424702 0)
(0.172706 0.0738621 0)
(0.0540408 0.0591097 0)
(0.035345 -0.00134955 0)
(3 1.53003e-16 0)
(3 8.35086e-17 0)
(3 3.12711e-17 0)
(3 -3.82492e-16 0)
(3 -3.13027e-16 0)
(3 9.94306e-16 0)
(3 7.05079e-16 0)
(3 4.09747e-16 0)
(3 1.9078e-16 0)
(3 6.69453e-16 0)
(3 1.11849e-15 0)
(3 -6.0565e-17 0)
(3 -2.77797e-16 0)
(3 -1.49873e-15 0)
(3 -4.4289e-16 0)
(1.59151 0.0379872 0)
(0.757827 0.0281599 0)
(0.681939 0.0540492 0)
(0.634271 0.0839276 0)
(0.589068 0.0862322 0)
(0.54815 0.0584517 0)
(0.498196 0.0110363 0)
(0.436967 -0.00111093 0)
(0.357264 0.0417252 0)
(0.30426 0.103497 0)
(0.289043 0.143172 0)
(0.255668 0.107248 0)
(0.169836 0.0437737 0)
(0.0581989 0.0801522 0)
(0.033262 0.131984 0)
(3 -9.1651e-17 0)
(3 6.75459e-16 0)
(3 9.20423e-17 0)
(3 2.54653e-16 0)
(3 -6.33613e-17 0)
(3 2.04173e-16 0)
(3 -5.19335e-16 0)
(3 1.34939e-16 0)
(3 2.98228e-16 0)
(3 6.40739e-16 0)
(3 2.64433e-16 0)
(3 5.13774e-17 0)
(3 -3.23602e-16 0)
(3 -8.8185e-16 0)
(3 -3.75024e-16 0)
(1.60187 0.0526808 0)
(0.764568 0.0360075 0)
(0.694686 0.0725462 0)
(0.643014 0.0998664 0)
(0.585648 0.113499 0)
(0.529074 0.0912249 0)
(0.475904 0.0293092 0)
(0.43008 -0.0280211 0)
(0.393516 0.00177067 0)
(0.341724 0.154931 0)
(0.272197 0.225229 0)
(0.211626 0.127092 0)
(0.155149 0.0364037 0)
(0.100974 0.0718688 0)
(0.052399 0.210661 0)
(3 -5.16198e-17 0)
(3 3.69258e-17 0)
(3 1.84392e-17 0)
(3 6.80892e-16 0)
(3 6.78219e-16 0)
(3 -1.24268e-16 0)
(3 -5.9497e-16 0)
(3 -3.385e-16 0)
(3 -3.67282e-16 0)
(3 -3.39906e-16 0)
(3 -1.11909e-17 0)
(3 -3.25133e-16 0)
(3 -5.99243e-16 0)
(3 -8.19931e-16 0)
(3 -9.58214e-16 0)
(1.61932 0.0812934 0)
(0.774674 0.0773056 0)
(0.696701 0.0824268 0)
(0.647311 0.0821116 0)
(0.587049 0.0777328 0)
(0.517196 0.0737747 0)
(0.454062 0.065926 0)
(0.423021 0.0736663 0)
(0.404739 0.0998761 0)
(0.369557 0.120893 0)
(0.266536 0.136966 0)
(0.172952 0.107637 0)
(0.1434 0.0780948 0)
(0.12821 0.123872 0)
(0.0617337 0.174074 0)
(3 8.82225e-17 0)
(3 -6.92638e-16 0)
(3 -2.26523e-17 0)
(3 4.48286e-16 0)
(3 3.11749e-16 0)
(3 -9.82235e-16 0)
(3 -4.0023e-16 0)
(3 2.94061e-17 0)
(3 -9.72945e-16 0)
(3 -7.27707e-16 0)
(3 -6.08231e-17 0)
(3 3.03317e-16 0)
(3 -4.80534e-16 0)
(3 -7.36655e-16 0)
(3 -1.2912e-15 0)
(1.65258 0.109425 0)
(0.776966 0.111907 0)
(0.694399 0.0952009 0)
(0.641538 0.0646578 0)
(0.582929 0.05024 0)
(0.522425 0.0599326 0)
(0.472399 0.124974 0)
(0.440104 0.17906 0)
(0.403126 0.177987 0)
(0.356895 0.0771317 0)
(0.277529 0.0197841 0)
(0.185556 0.102339 0)
(0.145681 0.157394 0)
(0.131799 0.155047 0)
(0.0607711 0.101009 0)
(3 -1.1836e-16 0)
(3 1.93072e-16 0)
(3 4.42966e-16 0)
(3 -3.90299e-17 0)
(3 3.25895e-16 0)
(3 -8.07823e-17 0)
(3 -4.56721e-16 0)
(3 1.41455e-16 0)
(3 -8.00748e-16 0)
(3 -9.70627e-16 0)
(3 -6.48177e-16 0)
(3 -8.56985e-17 0)
(3 2.69431e-16 0)
(3 1.64569e-17 0)
(3 -1.03178e-15 0)
(1.69777 0.11726 0)
(0.77662 0.119287 0)
(0.683244 0.0991274 0)
(0.630804 0.0693937 0)
(0.582197 0.0506527 0)
(0.545757 0.0953553 0)
(0.497999 0.166954 0)
(0.44007 0.222446 0)
(0.376718 0.183677 0)
(0.313409 0.0848708 0)
(0.272939 0.0266065 0)
(0.225226 0.0573104 0)
(0.166405 0.189385 0)
(0.101318 0.192656 0)
(0.0448766 0.0916039 0)
(3 -3.60584e-16 0)
(3 5.70764e-16 0)
(3 6.42657e-16 0)
(3 5.29578e-16 0)
(3 -1.70473e-16 0)
(3 -3.10518e-16 0)
(3 -2.90198e-16 0)
(3 -5.70946e-16 0)
(3 -5.33536e-16 0)
(3 -1.3701e-15 0)
(3 -1.63537e-15 0)
(3 -9.00958e-16 0)
(3 -1.93493e-16 0)
(3 -5.729e-17 0)
(3 -6.07058e-16 0)
(1.7433 0.11727 0)
(0.779564 0.106095 0)
(0.676149 0.105179 0)
(0.626338 0.111009 0)
(0.587609 0.138698 0)
(0.551344 0.14848 0)
(0.505399 0.148242 0)
(0.446397 0.135928 0)
(0.353091 0.129383 0)
(0.286525 0.126603 0)
(0.253959 0.126202 0)
(0.245195 0.174185 0)
(0.17889 0.202052 0)
(0.0683869 0.159409 0)
(0.0376819 0.110126 0)
(3 7.7506e-17 0)
(3 -7.3155e-18 0)
(3 3.25222e-16 0)
(3 3.80505e-16 0)
(3 -5.8971e-16 0)
(3 -6.11648e-16 0)
(3 -3.20505e-16 0)
(3 -1.07919e-15 0)
(3 -7.64507e-16 0)
(3 -5.51763e-16 0)
(3 -4.7976e-16 0)
(3 -3.26489e-16 0)
(3 -9.16395e-16 0)
(3 -5.86501e-16 0)
(3 2.63451e-16 0)
(1.78588 0.114467 0)
(0.774334 0.100192 0)
(0.688128 0.115971 0)
(0.644073 0.170632 0)
(0.593407 0.203011 0)
(0.544563 0.198405 0)
(0.497208 0.138131 0)
(0.430079 0.0679968 0)
(0.367813 0.0807809 0)
(0.307406 0.1643 0)
(0.285411 0.257328 0)
(0.242986 0.282451 0)
(0.159244 0.19855 0)
(0.0519585 0.14438 0)
(0.0400868 0.177229 0)
(3 1.42211e-16 0)
(3 -1.77137e-17 0)
(3 -7.26065e-16 0)
(3 -4.33963e-16 0)
(3 -4.79299e-16 0)
(3 -3.44954e-16 0)
(3 -4.42544e-16 0)
(3 -1.00877e-15 0)
(3 -8.42414e-16 0)
(3 -3.99987e-16 0)
(3 2.01363e-16 0)
(3 -3.09504e-16 0)
(3 -8.61359e-16 0)
(3 -1.62302e-16 0)
(3 9.05299e-16 0)
(1.82832 0.133323 0)
(0.780917 0.120484 0)
(0.702154 0.168306 0)
(0.652401 0.189823 0)
(0.597379 0.203612 0)
(0.536281 0.182995 0)
(0.468021 0.130558 0)
(0.424612 0.08939 0)
(0.394601 0.0881433 0)
(0.367208 0.214699 0)
(0.299117 0.314156 0)
(0.224634 0.267654 0)
(0.138403 0.167012 0)
(0.0656451 0.194457 0)
(0.051237 0.234306 0)
(3 1.71886e-16 0)
(3 -2.2605e-16 0)
(3 -8.01133e-16 0)
(3 -8.7287e-16 0)
(3 -4.42829e-16 0)
(3 -1.02023e-16 0)
(3 -1.02458e-16 0)
(3 -2.28284e-16 0)
(3 -3.29142e-16 0)
(3 -3.82555e-16 0)
(3 6.27535e-16 0)
(3 4.48732e-16 0)
(3 -2.00093e-16 0)
(3 -5.19816e-17 0)
(3 -9.14435e-16 0)
(1.87131 0.172188 0)
(0.800579 0.175016 0)
(0.703306 0.186189 0)
(0.655272 0.171839 0)
(0.598107 0.152339 0)
(0.528047 0.143222 0)
(0.460627 0.155928 0)
(0.414584 0.182064 0)
(0.406915 0.225383 0)
(0.381934 0.237215 0)
(0.305832 0.240151 0)
(0.184194 0.190044 0)
(0.135508 0.200795 0)
(0.0876857 0.283925 0)
(0.0650933 0.360215 0)
(3 1.44358e-16 0)
(3 6.5826e-17 0)
(3 8.28283e-17 0)
(3 5.46058e-17 0)
(3 1.46709e-16 0)
(3 -1.80718e-16 0)
(3 -3.45828e-16 0)
(3 1.83497e-16 0)
(3 7.58254e-16 0)
(3 7.66233e-16 0)
(3 8.30153e-17 0)
(3 5.84554e-16 0)
(3 5.72239e-16 0)
(3 -3.26995e-16 0)
(3 -3.24727e-15 0)
(1.93833 0.194836 0)
(0.813747 0.210291 0)
(0.696199 0.216951 0)
(0.645073 0.174881 0)
(0.586901 0.123868 0)
(0.535542 0.1113 0)
(0.492173 0.16441 0)
(0.454779 0.275305 0)
(0.402918 0.329415 0)
(0.366234 0.277755 0)
(0.276364 0.12802 0)
(0.20019 0.153407 0)
(0.160074 0.250467 0)
(0.121102 0.344109 0)
(0.0718952 0.40852 0)
(3 -1.83226e-16 0)
(3 1.52844e-16 0)
(3 6.79431e-16 0)
(3 4.30969e-16 0)
(3 -7.67394e-17 0)
(3 -3.91813e-16 0)
(3 -6.159e-16 0)
(3 2.38699e-16 0)
(3 4.12009e-16 0)
(3 3.5103e-16 0)
(3 1.5597e-16 0)
(3 -6.1511e-16 0)
(3 -4.25019e-17 0)
(3 4.85713e-16 0)
(3 -1.5701e-15 0)
(2.02614 0.191576 0)
(0.82901 0.212122 0)
(0.691265 0.191202 0)
(0.63575 0.161368 0)
(0.577417 0.157501 0)
(0.546446 0.179024 0)
(0.524859 0.251098 0)
(0.47475 0.288169 0)
(0.417189 0.309306 0)
(0.317523 0.197141 0)
(0.259348 0.156167 0)
(0.228301 0.185462 0)
(0.191785 0.279723 0)
(0.138295 0.359205 0)
(0.0704 0.319849 0)
(3 1.74727e-16 0)
(3 7.88867e-16 0)
(3 7.55282e-16 0)
(3 2.77316e-16 0)
(3 1.06429e-16 0)
(3 -8.37192e-17 0)
(3 4.84217e-17 0)
(3 8.56349e-16 0)
(3 4.0518e-16 0)
(3 4.65499e-16 0)
(3 3.6069e-16 0)
(3 -1.13995e-15 0)
(3 -1.33783e-15 0)
(3 9.51666e-16 0)
(3 -2.92236e-16 0)
(2.12033 0.187261 0)
(0.832235 0.203372 0)
(0.68183 0.169185 0)
(0.639156 0.172695 0)
(0.600635 0.224099 0)
(0.566794 0.275339 0)
(0.528908 0.270547 0)
(0.489229 0.254288 0)
(0.392572 0.17509 0)
(0.309548 0.199189 0)
(0.265667 0.245881 0)
(0.246389 0.302776 0)
(0.204497 0.326014 0)
(0.141878 0.289936 0)
(0.0503712 0.188698 0)
(3 -1.33731e-16 0)
(3 -2.80674e-16 0)
(3 2.06325e-16 0)
(3 4.77636e-16 0)
(3 -2.53566e-17 0)
(3 -1.54677e-19 0)
(3 6.2879e-16 0)
(3 1.14304e-15 0)
(3 1.29147e-15 0)
(3 1.0364e-15 0)
(3 -2.55078e-17 0)
(3 -1.02563e-15 0)
(3 -6.61111e-16 0)
(3 6.7545e-16 0)
(3 1.26267e-15 0)
(2.20744 0.178813 0)
(0.82254 0.191712 0)
(0.689258 0.175796 0)
(0.663322 0.236491 0)
(0.620073 0.283194 0)
(0.568624 0.317678 0)
(0.51931 0.313504 0)
(0.451066 0.197043 0)
(0.389185 0.139085 0)
(0.349106 0.158825 0)
(0.308191 0.281657 0)
(0.26293 0.398187 0)
(0.186243 0.390503 0)
(0.0776419 0.22313 0)
(0.0547799 0.134634 0)
(3 1.21611e-16 0)
(3 -4.25371e-16 0)
(3 -2.18506e-16 0)
(3 -5.53218e-16 0)
(3 -9.53295e-16 0)
(3 -1.58444e-16 0)
(3 -1.84752e-17 0)
(3 2.19028e-16 0)
(3 2.56457e-16 0)
(3 -6.29099e-18 0)
(3 2.03236e-16 0)
(3 2.76789e-17 0)
(3 -2.80663e-16 0)
(3 2.03406e-16 0)
(3 5.75049e-16 0)
(2.27702 0.19786 0)
(0.834206 0.221857 0)
(0.705861 0.27055 0)
(0.670123 0.273365 0)
(0.629035 0.27297 0)
(0.585616 0.265173 0)
(0.503461 0.213169 0)
(0.433186 0.198424 0)
(0.379323 0.214099 0)
(0.377131 0.313171 0)
(0.33076 0.394989 0)
(0.27577 0.403378 0)
(0.162866 0.353818 0)
(0.0231021 0.25639 0)
(0.0500524 0.194629 0)
(3 1.24703e-16 0)
(3 1.43769e-16 0)
(3 -8.72621e-16 0)
(3 -1.09597e-15 0)
(3 -6.18783e-16 0)
(3 -7.93128e-16 0)
(3 -5.84166e-16 0)
(3 -4.30204e-16 0)
(3 -4.05175e-16 0)
(3 7.09416e-17 0)
(3 1.15407e-16 0)
(3 1.7957e-16 0)
(3 -2.70252e-16 0)
(3 1.78957e-17 0)
(3 -4.29227e-16 0)
(2.35193 0.236336 0)
(0.872591 0.292162 0)
(0.710681 0.313911 0)
(0.670915 0.298077 0)
(0.626255 0.278406 0)
(0.563534 0.191047 0)
(0.505141 0.174611 0)
(0.449483 0.211864 0)
(0.432365 0.331399 0)
(0.404122 0.425885 0)
(0.333525 0.438152 0)
(0.260557 0.353079 0)
(0.149555 0.29971 0)
(0.0253705 0.408049 0)
(0.0668272 0.499325 0)
(3 -1.55967e-16 0)
(3 2.31302e-16 0)
(3 -1.28096e-15 0)
(3 -1.07894e-15 0)
(3 -7.24224e-16 0)
(3 -6.21114e-16 0)
(3 -1.10724e-17 0)
(3 -3.03363e-16 0)
(3 -4.22529e-17 0)
(3 2.42955e-16 0)
(3 -5.99757e-16 0)
(3 -3.29818e-16 0)
(3 7.69237e-16 0)
(3 8.19881e-16 0)
(3 -1.33634e-15 0)
(2.47273 0.246101 0)
(0.906702 0.337497 0)
(0.71778 0.309306 0)
(0.680208 0.278326 0)
(0.60608 0.214532 0)
(0.551774 0.201285 0)
(0.513615 0.192676 0)
(0.504835 0.318485 0)
(0.465879 0.41542 0)
(0.41343 0.459528 0)
(0.323095 0.426228 0)
(0.210003 0.294028 0)
(0.187378 0.272541 0)
(0.124286 0.503204 0)
(0.0786375 0.666225 0)
(3 -1.17508e-17 0)
(3 -5.06459e-17 0)
(3 2.42524e-16 0)
(3 2.40771e-16 0)
(3 -2.75392e-16 0)
(3 -1.20522e-16 0)
(3 3.18337e-16 0)
(3 -4.3107e-16 0)
(3 -5.80654e-17 0)
(3 3.58279e-16 0)
(3 -1.40229e-16 0)
(3 -9.95555e-17 0)
(3 1.26499e-15 0)
(3 9.92838e-16 0)
(3 -6.52471e-16 0)
(2.59944 0.242099 0)
(0.941885 0.340408 0)
(0.724099 0.292233 0)
(0.669354 0.225125 0)
(0.616967 0.220135 0)
(0.567832 0.241035 0)
(0.553863 0.354254 0)
(0.520578 0.380847 0)
(0.484721 0.377861 0)
(0.419106 0.33874 0)
(0.297044 0.260701 0)
(0.202829 0.331059 0)
(0.212413 0.397583 0)
(0.181476 0.509397 0)
(0.0956646 0.630947 0)
(3 -3.64505e-16 0)
(3 -1.68541e-16 0)
(3 1.31373e-15 0)
(3 1.37709e-15 0)
(3 6.86134e-16 0)
(3 2.1647e-16 0)
(3 2.78629e-16 0)
(3 -3.54616e-16 0)
(3 -3.76485e-16 0)
(3 -2.83299e-16 0)
(3 1.59487e-16 0)
(3 6.75094e-16 0)
(3 -2.47742e-16 0)
(3 5.55769e-16 0)
(3 5.40604e-16 0)
(2.74781 0.209196 0)
(0.984987 0.323008 0)
(0.724738 0.251686 0)
(0.68578 0.220091 0)
(0.64565 0.237727 0)
(0.625967 0.359941 0)
(0.573898 0.426165 0)
(0.51628 0.449629 0)
(0.46281 0.381174 0)
(0.373153 0.191464 0)
(0.314814 0.221137 0)
(0.267126 0.350892 0)
(0.238049 0.523467 0)
(0.190625 0.515756 0)
(0.094307 0.416885 0)
(3 -1.54326e-16 0)
(3 -9.36299e-17 0)
(3 6.61394e-16 0)
(3 5.12173e-16 0)
(3 3.13957e-16 0)
(3 1.45133e-16 0)
(3 5.72165e-16 0)
(3 1.70515e-16 0)
(3 -7.12396e-16 0)
(3 -1.47606e-15 0)
(3 -4.93009e-16 0)
(3 1.04304e-15 0)
(3 -4.6185e-16 0)
(3 -5.01006e-16 0)
(3 1.66376e-15 0)
(2.91022 0.159917 0)
(1.0471 0.290161 0)
(0.746988 0.260578 0)
(0.723008 0.284208 0)
(0.699756 0.367422 0)
(0.649004 0.381963 0)
(0.602775 0.391377 0)
(0.530747 0.372206 0)
(0.400537 0.268061 0)
(0.354772 0.245223 0)
(0.321974 0.261666 0)
(0.349586 0.478379 0)
(0.250458 0.571722 0)
(0.157492 0.525879 0)
(0.0575208 0.326263 0)
(3 3.57701e-17 0)
(3 1.17218e-16 0)
(3 2.30416e-16 0)
(3 3.2729e-16 0)
(3 8.48769e-16 0)
(3 5.07024e-16 0)
(3 -5.72249e-16 0)
(3 -7.6368e-16 0)
(3 -9.30824e-16 0)
(3 -5.15643e-16 0)
(3 -4.22464e-16 0)
(3 1.51005e-16 0)
(3 3.25297e-16 0)
(3 -1.43427e-16 0)
(3 3.68184e-16 0)
(3.01635 0.0781933 0)
(1.08346 0.316601 0)
(0.809445 0.323896 0)
(0.786159 0.396519 0)
(0.720512 0.426261 0)
(0.655655 0.41501 0)
(0.599852 0.349941 0)
(0.502039 0.233906 0)
(0.420514 0.260768 0)
(0.383653 0.321861 0)
(0.384837 0.481097 0)
(0.379156 0.535832 0)
(0.255453 0.558262 0)
(0.0734322 0.408824 0)
(0.0568207 0.348243 0)
(3 -7.34763e-17 0)
(3 9.34361e-17 0)
(3 -1.9501e-17 0)
(3 3.88014e-16 0)
(3 2.042e-16 0)
(3 5.31602e-16 0)
(3 -9.6175e-16 0)
(3 -1.09523e-15 0)
(3 -7.18841e-16 0)
(3 1.54211e-16 0)
(3 6.81858e-16 0)
(3 -8.24087e-16 0)
(3 1.31425e-17 0)
(3 1.24704e-16 0)
(3 -7.72627e-16 0)
(3.0154 0.0465794 0)
(1.13179 0.369058 0)
(0.8452 0.393625 0)
(0.818995 0.412184 0)
(0.75181 0.425231 0)
(0.674905 0.382465 0)
(0.570293 0.271505 0)
(0.521358 0.233383 0)
(0.471111 0.28322 0)
(0.469729 0.533237 0)
(0.396861 0.614381 0)
(0.362253 0.577781 0)
(0.231349 0.455441 0)
(0.0501249 0.410457 0)
(0.0534814 0.369936 0)
(3 -1.62098e-17 0)
(3 -2.89462e-16 0)
(3 -3.74671e-16 0)
(3 3.38255e-17 0)
(3 -9.96502e-16 0)
(3 -6.17705e-17 0)
(3 8.7038e-17 0)
(3 -1.49494e-15 0)
(3 -1.10766e-15 0)
(3 -8.07055e-16 0)
(3 5.10657e-16 0)
(3 -2.09149e-16 0)
(3 -5.60529e-16 0)
(3 -7.70943e-17 0)
(3 -5.9649e-16 0)
(3.00335 0.0112442 0)
(1.15999 0.37943 0)
(0.839201 0.415762 0)
(0.832894 0.402645 0)
(0.766451 0.358832 0)
(0.661419 0.285141 0)
(0.591537 0.28874 0)
(0.534284 0.309217 0)
(0.546634 0.496478 0)
(0.493661 0.567079 0)
(0.417848 0.603945 0)
(0.340929 0.545393 0)
(0.214522 0.425188 0)
(0.0664305 0.525712 0)
(0.0937168 0.748306 0)
(3 2.29623e-16 0)
(3 -2.83145e-16 0)
(3 -1.31533e-16 0)
(3 -3.61097e-16 0)
(3 -8.07925e-16 0)
(3 -2.73811e-16 0)
(3 2.70226e-17 0)
(3 -2.48763e-16 0)
(3 -4.17505e-16 0)
(3 -6.75637e-17 0)
(3 1.58988e-16 0)
(3 5.54313e-16 0)
(3 5.55179e-16 0)
(3 2.35661e-16 0)
(3 -2.80097e-16 0)
(3.00416 -0.00101742 0)
(1.2071 0.359191 0)
(0.834888 0.380119 0)
(0.81396 0.359043 0)
(0.745732 0.285138 0)
(0.684489 0.272984 0)
(0.631508 0.330012 0)
(0.623015 0.525983 0)
(0.572456 0.58258 0)
(0.504776 0.648828 0)
(0.412442 0.59617 0)
(0.27472 0.440858 0)
(0.253514 0.434877 0)
(0.191336 0.751588 0)
(0.121151 0.928653 0)
(3 8.38262e-17 0)
(3 4.28366e-16 0)
(3 -4.83811e-16 0)
(3 -1.09325e-15 0)
(3 -6.47895e-16 0)
(3 -1.50888e-17 0)
(3 -4.75363e-17 0)
(3 2.18788e-16 0)
(3 1.513e-16 0)
(3 2.90515e-16 0)
(3 3.95715e-16 0)
(3 5.98151e-16 0)
(3 1.71754e-15 0)
(3 5.12785e-16 0)
(3 -1.54484e-15 0)
(3.00111 -0.000178606 0)
(1.25401 0.298062 0)
(0.802987 0.310181 0)
(0.785933 0.31502 0)
(0.736284 0.327221 0)
(0.707577 0.37428 0)
(0.704345 0.520233 0)
(0.639512 0.545939 0)
(0.603902 0.533695 0)
(0.511494 0.470276 0)
(0.375605 0.363989 0)
(0.292192 0.476794 0)
(0.30688 0.642172 0)
(0.258862 0.849861 0)
(0.141784 0.988241 0)
(3 2.46082e-17 0)
(3 1.0245e-15 0)
(3 -1.3448e-16 0)
(3 -1.78986e-15 0)
(3 -1.71805e-15 0)
(3 -6.52627e-16 0)
(3 1.38697e-17 0)
(3 4.35365e-16 0)
(3 9.68851e-16 0)
(3 3.85248e-16 0)
(3 3.78871e-16 0)
(3 1.58625e-15 0)
(3 1.65654e-15 0)
(3 -1.14703e-15 0)
(3 -1.53465e-15 0)
(3.00017 5.29946e-05 0)
(1.30816 0.301659 0)
(0.780898 0.310742 0)
(0.77377 0.302629 0)
(0.757556 0.392074 0)
(0.750906 0.535591 0)
(0.713019 0.565284 0)
(0.654093 0.580846 0)
(0.596923 0.521582 0)
(0.471926 0.282471 0)
(0.400737 0.351212 0)
(0.383373 0.512883 0)
(0.368542 0.790476 0)
(0.324434 0.866179 0)
(0.162227 0.989255 0)
(3 3.08132e-16 0)
(3 -1.21717e-16 0)
(3 -2.39313e-16 0)
(3 -4.98015e-16 0)
(3 -9.07161e-16 0)
(3 -8.60649e-16 0)
(3 1.48734e-17 0)
(3 6.90447e-16 0)
(3 8.38062e-16 0)
(3 9.73122e-16 0)
(3 6.39331e-16 0)
(3 8.86914e-16 0)
(3 -1.81774e-17 0)
(3 -1.347e-15 0)
(3 -1.39292e-15 0)
(3 7.5436e-06 0)
(1.37913 0.326672 0)
(0.764082 0.338784 0)
(0.782234 0.404449 0)
(0.783547 0.501181 0)
(0.763728 0.535157 0)
(0.735696 0.548903 0)
(0.687463 0.525373 0)
(0.535705 0.35753 0)
(0.479898 0.336604 0)
(0.448225 0.429413 0)
(0.498044 0.664269 0)
(0.435399 0.824671 0)
(0.334432 0.894352 0)
(0.146118 0.742631 0)
(3 -1.98336e-16 0)
(3 -6.17323e-16 0)
(3 -3.63454e-16 0)
(3 3.01222e-17 0)
(3 3.02621e-16 0)
(3 -5.18199e-16 0)
(3 -5.3268e-16 0)
(3 -5.11104e-16 0)
(3 3.72586e-16 0)
(3 1.8495e-15 0)
(3 8.77715e-16 0)
(3 -4.35391e-16 0)
(3 -9.50742e-16 0)
(3 -3.81379e-16 0)
(3 -7.64553e-16 0)
(3 -6.63111e-06 0)
(1.46212 0.378521 0)
(0.801814 0.414987 0)
(0.781161 0.49223 0)
(0.773423 0.52334 0)
(0.769559 0.520188 0)
(0.742889 0.483788 0)
(0.645882 0.342541 0)
(0.565537 0.365946 0)
(0.533235 0.451858 0)
(0.560251 0.574645 0)
(0.602903 0.751469 0)
(0.512086 0.807228 0)
(0.390426 0.780302 0)
(0.209254 0.774232 0)
(3 -9.21481e-17 0)
(3 -1.1148e-16 0)
(3 3.53282e-16 0)
(3 6.32154e-16 0)
(3 8.37557e-16 0)
(3 2.5397e-16 0)
(3 -1.51284e-16 0)
(3 -1.31264e-16 0)
(3 1.2881e-16 0)
(3 2.95432e-16 0)
(3 4.19074e-16 0)
(3 3.26642e-16 0)
(3 5.11129e-17 0)
(3 -5.1273e-16 0)
(3 -7.01401e-16 0)
(3 -2.02129e-06 0)
(1.84366 0.42912 0)
(0.870122 0.452336 0)
(0.778537 0.432166 0)
(0.747062 0.434402 0)
(0.721456 0.440106 0)
(0.698471 0.447962 0)
(0.690885 0.498619 0)
(0.687543 0.576124 0)
(0.672854 0.659078 0)
(0.636879 0.707358 0)
(0.61441 0.690887 0)
(0.565661 0.729315 0)
(0.561068 0.84158 0)
(0.748911 1.08894 0)
(3 1.87781e-16 0)
(3 4.21326e-16 0)
(3 4.12683e-16 0)
(3 4.04152e-16 0)
(3 4.56824e-16 0)
(3 7.23932e-16 0)
(3 8.66799e-16 0)
(3 5.84253e-16 0)
(3 4.46088e-17 0)
(3 -2.82287e-16 0)
(3 -4.77718e-16 0)
(3 3.98925e-17 0)
(3 8.9478e-16 0)
(3 6.73113e-16 0)
(3 1.09105e-15 0)
(3 -7.67547e-08 0)
(2.67904 0.277126 0)
(1.02337 0.503387 0)
(0.821335 0.471932 0)
(0.784492 0.473376 0)
(0.75971 0.494963 0)
(0.745837 0.534682 0)
(0.737667 0.571672 0)
(0.729412 0.602868 0)
(0.717406 0.630218 0)
(0.704171 0.660571 0)
(0.701349 0.727427 0)
(0.739824 0.841479 0)
(0.842504 1.00576 0)
(1.04818 1.14438 0)
(3 1.86241e-17 0)
(3 1.09866e-18 0)
(3 -1.49272e-17 0)
(3 -1.74989e-16 0)
(3 -1.56488e-16 0)
(3 7.92144e-17 0)
(3 3.20621e-16 0)
(3 3.40669e-16 0)
(3 4.95058e-16 0)
(3 3.20536e-16 0)
(3 4.67734e-17 0)
(3 -6.08453e-17 0)
(3 6.7951e-16 0)
(3 1.17025e-15 0)
(3 1.92144e-15 0)
(3 -6.12303e-09 0)
(3.05401 0.0160477 0)
(1.38781 0.540219 0)
(0.917904 0.540878 0)
(0.866593 0.537646 0)
(0.822141 0.547176 0)
(0.788741 0.560789 0)
(0.770317 0.583211 0)
(0.762918 0.613888 0)
(0.764113 0.657758 0)
(0.783769 0.715655 0)
(0.819506 0.786791 0)
(0.867134 0.874572 0)
(0.985086 0.970812 0)
(1.2025 1.05123 0)
(3 -2.35328e-16 0)
(3 -1.79937e-16 0)
(3 -2.78186e-16 0)
(3 -3.53187e-16 0)
(3 -2.07444e-16 0)
(3 -3.67978e-16 0)
(3 -1.37736e-16 0)
(3 3.03515e-16 0)
(3 4.29754e-16 0)
(3 2.58306e-16 0)
(3 1.56221e-16 0)
(3 -1.06275e-16 0)
(3 -2.51403e-16 0)
(3 3.33843e-16 0)
(3 7.79093e-16 0)
(3 -2.72745e-10 0)
(3.00205 -2.03893e-05 0)
(2.04692 0.503993 0)
(0.992427 0.615524 0)
(0.912604 0.602121 0)
(0.882308 0.600339 0)
(0.850312 0.607235 0)
(0.829758 0.622826 0)
(0.827396 0.653862 0)
(0.837063 0.696296 0)
(0.862676 0.742115 0)
(0.900004 0.796322 0)
(0.970998 0.866376 0)
(1.10505 0.938899 0)
(1.29938 0.992294 0)
(3 -8.01148e-17 0)
(3 -2.57908e-16 0)
(3 -3.43011e-16 0)
(3 -3.67089e-16 0)
(3 -1.70001e-16 0)
(3 -1.17446e-16 0)
(3 -1.08202e-17 0)
(3 2.55264e-16 0)
(3 3.16777e-16 0)
(3 4.95357e-17 0)
(3 -3.56192e-16 0)
(3 -4.8344e-16 0)
(3 -4.16015e-16 0)
(3 -2.63657e-16 0)
(3 3.1188e-16 0)
(3 -1.13056e-12 0)
(3 -1.79655e-07 0)
(2.99788 0.119369 0)
(1.24613 0.610214 0)
(0.990347 0.623443 0)
(0.973438 0.629234 0)
(0.949651 0.641656 0)
(0.928145 0.654616 0)
(0.917127 0.678022 0)
(0.918239 0.706778 0)
(0.94036 0.74544 0)
(0.979851 0.794138 0)
(1.05991 0.851935 0)
(1.17684 0.900967 0)
(1.33702 0.937952 0)
(3 1.57848e-16 0)
(3 -4.05216e-16 0)
(3 -2.90641e-16 0)
(3 2.6897e-16 0)
(3 1.88324e-16 0)
(3 5.30488e-17 0)
(3 1.26779e-16 0)
(3 -2.07349e-18 0)
(3 2.84263e-17 0)
(3 -2.52136e-17 0)
(3 -2.39529e-17 0)
(3 -1.37248e-16 0)
(3 -2.69276e-16 0)
(3 -7.29228e-17 0)
(3 5.82172e-16 0)
(3 7.42293e-17 0)
(3 -3.78437e-07 0)
(3.01382 0.00128043 0)
(1.71711 0.583599 0)
(1.02089 0.68042 0)
(0.990088 0.678643 0)
(0.991214 0.69738 0)
(0.988824 0.712282 0)
(0.988171 0.73011 0)
(0.995305 0.748581 0)
(1.01749 0.775109 0)
(1.05918 0.806831 0)
(1.13502 0.844543 0)
(1.23286 0.872036 0)
(1.36689 0.893704 0)
(3 -1.03836e-16 0)
(3 -4.54468e-17 0)
(3 -1.20167e-17 0)
(3 9.29997e-18 0)
(3 5.20556e-17 0)
(3 3.89309e-16 0)
(3 5.05535e-16 0)
(3 2.96599e-17 0)
(3 1.29327e-16 0)
(3 4.10739e-16 0)
(3 3.34766e-16 0)
(3 1.48311e-16 0)
(3 3.95506e-17 0)
(3 2.11032e-17 0)
(3 8.86127e-17 0)
(3 4.3342e-16 0)
(3 -4.86772e-08 0)
(3.00008 6.58807e-06 0)
(2.81634 0.253195 0)
(1.22985 0.702327 0)
(1.04084 0.690302 0)
(1.04652 0.701823 0)
(1.05041 0.723233 0)
(1.05649 0.745152 0)
(1.06953 0.764333 0)
(1.092 0.783757 0)
(1.13081 0.804799 0)
(1.19857 0.829237 0)
(1.27873 0.846959 0)
(1.38997 0.859709 0)
(3 -6.09848e-17 0)
(3 3.19833e-16 0)
(3 2.33494e-16 0)
(3 -1.71252e-16 0)
(3 -2.79815e-16 0)
(3 -1.85534e-16 0)
(3 -3.26891e-17 0)
(3 3.13067e-16 0)
(3 1.84239e-16 0)
(3 2.35222e-16 0)
(3 3.35346e-16 0)
(3 8.67181e-16 0)
(3 6.96213e-16 0)
(3 1.43397e-16 0)
(3 -7.83067e-16 0)
(3 -5.45875e-16 0)
(3 -3.591e-10 0)
(3 -1.84059e-06 0)
(3.02912 0.00773919 0)
(1.76017 0.65574 0)
(1.1004 0.751959 0)
(1.08101 0.747158 0)
(1.0936 0.75202 0)
(1.10657 0.767772 0)
(1.12646 0.787095 0)
(1.15335 0.805943 0)
(1.19198 0.823779 0)
(1.25128 0.838794 0)
(1.31948 0.848025 0)
(1.41198 0.851382 0)
(3 2.23839e-16 0)
(3 3.68731e-16 0)
(3 2.96065e-16 0)
(3 -8.64202e-17 0)
(3 -2.50413e-16 0)
(3 -5.95358e-16 0)
(3 -8.08623e-16 0)
(3 -2.3233e-16 0)
(3 -1.76081e-16 0)
(3 -1.32158e-16 0)
(3 2.82584e-17 0)
(3 3.04773e-16 0)
(3 7.42439e-16 0)
(3 5.89893e-16 0)
(3 8.79391e-17 0)
(3 9.50636e-17 0)
(3 7.73654e-12 0)
(3 -2.91553e-07 0)
(3.00033 0.000104777 0)
(2.89927 0.224844 0)
(1.37872 0.776744 0)
(1.13606 0.753305 0)
(1.15277 0.756499 0)
(1.1623 0.77347 0)
(1.18205 0.789597 0)
(1.20826 0.806896 0)
(1.24405 0.822943 0)
(1.29575 0.834798 0)
(1.35503 0.840728 0)
(1.43473 0.840255 0)
(3 7.70735e-17 0)
(3 2.37683e-16 0)
(3 6.27163e-16 0)
(3 6.4489e-16 0)
(3 2.35407e-16 0)
(3 6.36233e-17 0)
(3 2.34977e-16 0)
(3 5.62443e-18 0)
(3 1.40817e-16 0)
(3 3.22393e-16 0)
(3 3.52336e-16 0)
(3 1.96746e-17 0)
(3 -5.95408e-17 0)
(3 -5.86526e-17 0)
(3 4.43989e-16 0)
(3 2.72727e-16 0)
(3 1.85568e-12 0)
(3 -1.42265e-08 0)
(3 3.2075e-08 0)
(3.01633 0.00563772 0)
(2.07053 0.62798 0)
(1.22945 0.806435 0)
(1.18122 0.807216 0)
(1.19958 0.805639 0)
(1.21764 0.813948 0)
(1.24658 0.823171 0)
(1.28191 0.83346 0)
(1.32889 0.84196 0)
(1.38102 0.845719 0)
(1.45113 0.843902 0)
(3 -1.61925e-16 0)
(3 -1.9533e-16 0)
(3 -4.76142e-17 0)
(3 1.48334e-16 0)
(3 1.65828e-16 0)
(3 -1.06019e-16 0)
(3 -1.23876e-17 0)
(3 -7.73758e-17 0)
(3 4.61096e-16 0)
(3 2.8437e-16 0)
(3 -6.20026e-17 0)
(3 -3.94608e-17 0)
(3 -2.71816e-16 0)
(3 -4.12083e-16 0)
(3 -2.49009e-17 0)
(3 -5.94033e-16 0)
(3 1.06709e-13 0)
(3 -5.99483e-11 0)
(3 -1.17078e-09 0)
(3.00011 7.09269e-05 0)
(2.9755 0.117071 0)
(1.65098 0.787049 0)
(1.23324 0.830395 0)
(1.25141 0.823977 0)
(1.26075 0.826448 0)
(1.28548 0.827985 0)
(1.31624 0.832427 0)
(1.35876 0.835848 0)
(1.40494 0.836995 0)
(1.46778 0.835706 0)
(3 -8.43672e-17 0)
(3 -5.57192e-16 0)
(3 -8.81547e-16 0)
(3 -5.32688e-16 0)
(3 -1.66251e-16 0)
(3 -2.71575e-16 0)
(3 -1.24309e-16 0)
(3 1.68589e-16 0)
(3 7.24247e-17 0)
(3 -3.10049e-16 0)
(3 -1.78855e-16 0)
(3 3.17416e-16 0)
(3 4.04696e-16 0)
(3 3.70907e-16 0)
(3 -8.25838e-18 0)
(3 -1.90887e-16 0)
(3 7.56868e-15 0)
(3 -5.04405e-14 0)
(3 -1.68945e-10 0)
(3 2.3413e-08 0)
(3.00358 0.00419192 0)
(2.6985 0.390166 0)
(1.48319 0.871829 0)
(1.28637 0.865303 0)
(1.30429 0.857039 0)
(1.32232 0.853482 0)
(1.34852 0.849948 0)
(1.38468 0.846773 0)
(1.426 0.843095 0)
(1.48061 0.840005 0)
(3 9.4577e-17 0)
(3 1.05361e-16 0)
(3 -8.37164e-17 0)
(3 -2.79891e-16 0)
(3 -7.26028e-17 0)
(3 4.84591e-16 0)
(3 4.80622e-16 0)
(3 5.43373e-16 0)
(3 1.12632e-16 0)
(3 3.54954e-16 0)
(3 8.74449e-16 0)
(3 7.68869e-16 0)
(3 5.34607e-16 0)
(3 2.87616e-16 0)
(3 2.16389e-16 0)
(3 2.73821e-16 0)
(3 3.76e-16 0)
(3 -9.34323e-17 0)
(3 -8.0636e-12 0)
(3 -7.1344e-12 0)
(3.00001 2.18771e-05 0)
(3.01256 0.0228789 0)
(2.28104 0.646656 0)
(1.39831 0.892778 0)
(1.34238 0.884781 0)
(1.37155 0.870541 0)
(1.39276 0.861535 0)
(1.42159 0.853853 0)
(1.45648 0.846031 0)
(1.50044 0.841437 0)
(3 8.8102e-17 0)
(3 3.44948e-16 0)
(3 2.96691e-16 0)
(3 -5.19563e-17 0)
(3 -4.39097e-17 0)
(3 3.21156e-16 0)
(3 3.54374e-16 0)
(3 1.43286e-16 0)
(3 5.94114e-16 0)
(3 1.03017e-15 0)
(3 7.49535e-16 0)
(3 4.94443e-16 0)
(3 2.6808e-16 0)
(3 7.65762e-17 0)
(3 2.85273e-17 0)
(3 5.64061e-16 0)
(3 3.75317e-16 0)
(3 2.76673e-16 0)
(3 -5.04724e-14 0)
(3 -1.57792e-12 0)
(3 5.54014e-09 0)
(3.00016 0.000477089 0)
(2.9884 0.0937085 0)
(1.9286 0.773741 0)
(1.40973 0.901535 0)
(1.40805 0.901927 0)
(1.43622 0.890816 0)
(1.45956 0.881333 0)
(1.48899 0.868864 0)
(1.52238 0.859883 0)
(3 3.76255e-17 0)
(3 1.22302e-16 0)
(3 4.46433e-16 0)
(3 4.61968e-16 0)
(3 5.85104e-17 0)
(3 -1.72815e-16 0)
(3 4.01462e-17 0)
(3 -3.74725e-17 0)
(3 -1.29649e-16 0)
(3 -1.09455e-16 0)
(3 -2.80623e-16 0)
(3 -1.76515e-16 0)
(3 1.41834e-16 0)
(3 1.54884e-16 0)
(3 1.73899e-16 0)
(3 2.56913e-16 0)
(3 4.63193e-16 0)
(3 4.1114e-16 0)
(3 -3.63451e-16 0)
(3 -1.16512e-13 0)
(3 5.41362e-13 0)
(3 4.20587e-07 0)
(3.00109 0.00352224 0)
(2.84947 0.241914 0)
(1.77392 0.849008 0)
(1.45497 0.92124 0)
(1.47103 0.916834 0)
(1.49667 0.906077 0)
(1.52298 0.892908 0)
(1.55055 0.879661 0)
(3 -2.04081e-16 0)
(3 -1.86943e-16 0)
(3 2.00314e-16 0)
(3 3.29848e-16 0)
(3 1.77466e-16 0)
(3 -3.69021e-16 0)
(3 -6.14409e-16 0)
(3 -3.30932e-16 0)
(3 -2.73546e-16 0)
(3 -2.16041e-16 0)
(3 -6.27246e-16 0)
(3 -1.49121e-15 0)
(3 -9.75304e-16 0)
(3 -8.27527e-16 0)
(3 -2.2273e-16 0)
(3 -3.50888e-17 0)
(3 -3.7848e-16 0)
(3 -7.39131e-16 0)
(3 1.64363e-16 0)
(3 -2.70318e-15 0)
(3 -1.81635e-15 0)
(3 9.4167e-11 0)
(3 1.05352e-05 0)
(3.00096 0.0133642 0)
(2.67647 0.390085 0)
(1.71331 0.890244 0)
(1.50168 0.934633 0)
(1.52359 0.927712 0)
(1.55251 0.915085 0)
(1.57816 0.900947 0)
(3 9.10374e-18 0)
(3 -3.48594e-17 0)
(3 -8.55938e-17 0)
(3 -9.33473e-18 0)
(3 1.05628e-15 0)
(3 8.17686e-16 0)
(3 7.14946e-17 0)
(3 -3.4411e-16 0)
(3 -2.43757e-16 0)
(3 -1.12852e-16 0)
(3 -1.29522e-16 0)
(3 -5.60967e-16 0)
(3 -8.97895e-16 0)
(3 -4.82346e-16 0)
(3 -1.00974e-16 0)
(3 -5.12085e-16 0)
(3 -1.26677e-15 0)
(3 -1.13336e-15 0)
(3 -3.20716e-16 0)
(3 8.61888e-16 0)
(3 3.45649e-16 0)
(3 8.90883e-15 0)
(3 3.72067e-09 0)
(2.99999 0.000115477 0)
(2.99602 0.0292152 0)
(2.51542 0.507393 0)
(1.69769 0.912818 0)
(1.54702 0.942769 0)
(1.57147 0.935141 0)
(1.60301 0.919435 0)
(3 1.17079e-16 0)
(3 1.84836e-16 0)
(3 -2.09122e-16 0)
(3 4.8756e-17 0)
(3 7.92494e-16 0)
(3 1.16452e-15 0)
(3 1.04421e-15 0)
(3 7.74228e-16 0)
(3 -2.66205e-16 0)
(3 -3.11364e-16 0)
(3 -2.13e-16 0)
(3 1.73189e-16 0)
(3 2.17746e-16 0)
(3 3.82544e-16 0)
(3 1.09946e-16 0)
(3 -8.72038e-16 0)
(3 -1.0527e-15 0)
(3 -5.28275e-16 0)
(3 7.67051e-16 0)
(3 1.0012e-15 0)
(3 1.00046e-15 0)
(3 1.09927e-15 0)
(3 4.1399e-13 0)
(3 7.36283e-08 0)
(2.99996 0.000486347 0)
(2.9825 0.05159 0)
(2.39627 0.587426 0)
(1.70832 0.926783 0)
(1.59064 0.948318 0)
(1.61749 0.940149 0)
(3 9.33598e-17 0)
(3 2.11046e-16 0)
(3 9.73181e-17 0)
(3 9.0121e-17 0)
(3 -2.77614e-16 0)
(3 -8.96655e-17 0)
(3 3.71831e-16 0)
(3 4.78253e-16 0)
(3 2.36071e-17 0)
(3 -2.90311e-16 0)
(3 -5.91755e-16 0)
(3 3.42769e-16 0)
(3 4.29154e-16 0)
(3 1.39954e-16 0)
(3 -2.50223e-16 0)
(3 -1.82012e-16 0)
(3 -4.83001e-17 0)
(3 1.55489e-16 0)
(3 6.59199e-16 0)
(3 1.23626e-15 0)
(3 1.80624e-15 0)
(3 1.62272e-15 0)
(3 1.10401e-16 0)
(3 1.74358e-11 0)
(3 4.91621e-07 0)
(2.99987 0.00127733 0)
(2.96129 0.0782469 0)
(2.33006 0.634683 0)
(1.73247 0.940242 0)
(1.63769 0.950394 0)
(3 -7.2604e-17 0)