/*--------------------------------*- C++ -*----------------------------------*\
  =========                 |
  \\      /  F ield         | OpenFOAM: The Open Source CFD Toolbox
   \\    /   O peration     | Website:  https://openfoam.org
    \\  /    A nd           | Version:  6.0
     \\/     M anipulation  |
\*---------------------------------------------------------------------------*/
FoamFile
{
    version     2.0;
    format      ascii;
    class       volVectorField;
    location    "3.99916778";
    object      U;
}
// * * * * * * * * * * * * * * * * * * * * * * * * * * * * * * * * * * * * * //

dimensions      [0 1 -1 0 0 0 0];

internalField   nonuniform List<vector> 
3000
(
(3 1.99613e-16 0)
(3 2.42155e-16 0)
(3 3.91215e-16 0)
(3 1.11288e-15 0)
(2.89529 0.00205433 0)
(0.954493 0.016065 0)
(0.615881 0.0218162 0)
(0.480634 0.0257611 0)
(0.312906 0.0282083 0)
(0.131942 0.0362307 0)
(3 -3.69647e-16 0)
(3 -1.99763e-16 0)
(3 8.22955e-16 0)
(3 8.36356e-16 0)
(2.88345 0.00886374 0)
(0.939672 0.0557424 0)
(0.590444 0.0586194 0)
(0.456478 0.0705267 0)
(0.297974 0.0838963 0)
(0.128123 0.110805 0)
(3 -6.77755e-16 0)
(3 -4.47866e-16 0)
(3 1.02354e-15 0)
(3 -1.29779e-16 0)
(2.86952 0.0242774 0)
(0.928479 0.102636 0)
(0.565917 0.0975654 0)
(0.429595 0.114672 0)
(0.27384 0.133931 0)
(0.120137 0.180081 0)
(3 3.71787e-16 0)
(3 6.65688e-16 0)
(3 4.26533e-16 0)
(3 3.58515e-16 0)
(2.8876 0.0525369 0)
(0.945568 0.162106 0)
(0.565922 0.144196 0)
(0.422158 0.165255 0)
(0.25946 0.186238 0)
(0.108605 0.244235 0)
(3 7.95878e-17 0)
(3 1.92245e-16 0)
(3 1.71417e-16 0)
(3 1.01134e-15 0)
(2.95078 0.0709564 0)
(1.00343 0.218986 0)
(0.604226 0.189006 0)
(0.448164 0.219747 0)
(0.269407 0.242851 0)
(0.109549 0.307843 0)
(3 -4.42439e-16 0)
(3 -4.70811e-16 0)
(3 -1.17666e-16 0)
(3 -4.09707e-16 0)
(3.02915 0.0393933 0)
(1.08526 0.254077 0)
(0.668951 0.229711 0)
(0.503377 0.276006 0)
(0.30023 0.306624 0)
(0.110569 0.377021 0)
(3 2.65284e-16 0)
(3 -9.58285e-16 0)
(3 -6.85707e-16 0)
(3 -8.22247e-16 0)
(3.03051 0.00818367 0)
(1.15029 0.275742 0)
(0.718218 0.270132 0)
(0.567333 0.335666 0)
(0.354664 0.37465 0)
(0.139803 0.455282 0)
(3 6.08309e-16 0)
(3 -2.02975e-16 0)
(3 -1.23865e-16 0)
(3 5.11175e-16 0)
(3.00582 0.000676061 0)
(1.19681 0.303447 0)
(0.720387 0.311991 0)
(0.59851 0.398833 0)
(0.391865 0.460341 0)
(0.142793 0.558534 0)
(3 -1.13967e-16 0)
(3 7.76247e-16 0)
(3 2.10558e-16 0)
(3 1.87045e-18 0)
(3.00027 -1.13327e-06 0)
(1.27201 0.339822 0)
(0.722173 0.343274 0)
(0.628943 0.449046 0)
(0.454689 0.537842 0)
(0.196722 0.664735 0)
(3 -9.28141e-16 0)
(3 -4.72428e-16 0)
(3 -5.12702e-16 0)
(3 -3.11837e-16 0)
(3 -3.32396e-07 0)
(1.40116 0.383021 0)
(0.749214 0.374668 0)
(0.666671 0.483984 0)
(0.521352 0.616432 0)
(0.279753 0.846709 0)
(3 -4.96545e-17 0)
(3 4.55319e-17 0)
(3 1.90844e-16 0)
(3 3.28327e-16 0)
(2.89529 0.00205433 0)
(0.954493 0.016065 0)
(0.615881 0.0218162 0)
(0.480634 0.0257611 0)
(0.312906 0.0282083 0)
(0.131942 0.0362307 0)
(3 -1.65761e-16 0)
(3 2.92884e-16 0)
(3 5.58838e-16 0)
(3 1.01772e-17 0)
(2.88345 0.00886374 0)
(0.939672 0.0557424 0)
(0.590444 0.0586194 0)
(0.456478 0.0705267 0)
(0.297974 0.0838963 0)
(0.128123 0.110805 0)
(3 -4.86452e-17 0)
(3 1.63322e-16 0)
(3 5.16094e-17 0)
(3 -3.33085e-16 0)
(2.86952 0.0242774 0)
(0.928479 0.102636 0)
(0.565917 0.0975654 0)
(0.429595 0.114672 0)
(0.27384 0.133931 0)
(0.120137 0.180081 0)
(3 -2.07342e-16 0)
(3 -3.5245e-16 0)
(3 -5.23644e-16 0)
(3 -2.21861e-17 0)
(2.8876 0.0525369 0)
(0.945568 0.162106 0)
(0.565922 0.144196 0)
(0.422158 0.165255 0)
(0.25946 0.186238 0)
(0.108605 0.244235 0)
(3 7.9777e-17 0)
(3 8.62415e-17 0)
(3 -1.53445e-16 0)
(3 -9.86254e-17 0)
(2.95078 0.0709564 0)
(1.00343 0.218986 0)
(0.604226 0.189006 0)
(0.448164 0.219747 0)
(0.269407 0.242851 0)
(0.109549 0.307843 0)
(3 1.21734e-16 0)
(3 -3.67086e-19 0)
(3 -1.66617e-16 0)
(3 -8.28116e-17 0)
(3.02915 0.0393933 0)
(1.08526 0.254077 0)
(0.668951 0.229711 0)
(0.503377 0.276006 0)
(0.30023 0.306624 0)
(0.110569 0.377021 0)
(3 -1.15293e-16 0)
(3 -3.04512e-16 0)
(3 -2.35173e-16 0)
(3 -1.09244e-16 0)
(3.03051 0.00818367 0)
(1.15029 0.275742 0)
(0.718218 0.270132 0)
(0.567333 0.335666 0)
(0.354664 0.37465 0)
(0.139803 0.455282 0)
(3 2.08886e-16 0)
(3 1.45715e-16 0)
(3 -1.09495e-16 0)
(3 -2.81577e-16 0)
(3.00582 0.000676061 0)
(1.19681 0.303447 0)
(0.720387 0.311991 0)
(0.59851 0.398833 0)
(0.391865 0.460341 0)
(0.142793 0.558534 0)
(3 6.89581e-17 0)
(3 -1.8905e-16 0)
(3 -9.99491e-17 0)
(3 4.76617e-16 0)
(3.00027 -1.13327e-06 0)
(1.27201 0.339822 0)
(0.722173 0.343274 0)
(0.628943 0.449046 0)
(0.454689 0.537842 0)
(0.196722 0.664735 0)
(3 -2.10921e-17 0)
(3 -3.23818e-16 0)
(3 2.83205e-17 0)
(3 4.83417e-16 0)
(3 -3.32396e-07 0)
(1.40116 0.383021 0)
(0.749214 0.374668 0)
(0.666671 0.483984 0)
(0.521352 0.616432 0)
(0.279753 0.846709 0)
(3 -1.72428e-16 0)
(3 -7.1293e-17 0)
(3 2.1287e-16 0)
(3 3.75353e-16 0)
(2.89529 0.00205433 0)
(0.954493 0.016065 0)
(0.615881 0.0218162 0)
(0.480634 0.0257611 0)
(0.312906 0.0282083 0)
(0.131942 0.0362307 0)
(3 -1.40841e-17 0)
(3 1.42954e-16 0)
(3 4.53069e-16 0)
(3 3.11021e-17 0)
(2.88345 0.00886374 0)
(0.939672 0.0557424 0)
(0.590444 0.0586194 0)
(0.456478 0.0705267 0)
(0.297974 0.0838963 0)
(0.128123 0.110805 0)
(3 1.0725e-16 0)
(3 1.2461e-16 0)
(3 2.33774e-16 0)
(3 -2.82596e-16 0)
(2.86952 0.0242774 0)
(0.928479 0.102636 0)
(0.565917 0.0975654 0)
(0.429595 0.114672 0)
(0.27384 0.133931 0)
(0.120137 0.180081 0)
(3 -2.75002e-16 0)
(3 -1.35114e-16 0)
(3 -1.98981e-16 0)
(3 6.15737e-17 0)
(2.8876 0.0525369 0)
(0.945568 0.162106 0)
(0.565922 0.144196 0)
(0.422158 0.165255 0)
(0.25946 0.186238 0)
(0.108605 0.244235 0)
(3 6.66684e-17 0)
(3 1.99602e-16 0)
(3 -1.39731e-16 0)
(3 -2.77201e-16 0)
(2.95078 0.0709564 0)
(1.00343 0.218986 0)
(0.604226 0.189006 0)
(0.448164 0.219747 0)
(0.269407 0.242851 0)
(0.109549 0.307843 0)
(3 3.54054e-16 0)
(3 3.11959e-16 0)
(3 -2.98181e-16 0)
(3 -2.69327e-16 0)
(3.02915 0.0393933 0)
(1.08526 0.254077 0)
(0.668951 0.229711 0)
(0.503377 0.276006 0)
(0.30023 0.306624 0)
(0.110569 0.377021 0)
(3 3.14234e-18 0)
(3 -3.68324e-16 0)
(3 -1.81497e-16 0)
(3 -2.43921e-16 0)
(3.03051 0.00818367 0)
(1.15029 0.275742 0)
(0.718218 0.270132 0)
(0.567333 0.335666 0)
(0.354664 0.37465 0)
(0.139803 0.455282 0)
(3 -1.49255e-16 0)
(3 -2.52209e-16 0)
(3 3.84638e-17 0)
(3 -2.78812e-16 0)
(3.00582 0.000676061 0)
(1.19681 0.303447 0)
(0.720387 0.311991 0)
(0.59851 0.398833 0)
(0.391865 0.460341 0)
(0.142793 0.558534 0)
(3 2.87038e-17 0)
(3 -7.31042e-17 0)
(3 -3.27483e-16 0)
(3 1.75139e-16 0)
(3.00027 -1.13327e-06 0)
(1.27201 0.339822 0)
(0.722173 0.343274 0)
(0.628943 0.449046 0)
(0.454689 0.537842 0)
(0.196722 0.664735 0)
(3 -5.69678e-17 0)
(3 2.92363e-18 0)
(3 2.55278e-16 0)
(3 8.74464e-16 0)
(3 -3.32396e-07 0)
(1.40116 0.383021 0)
(0.749214 0.374668 0)
(0.666671 0.483984 0)
(0.521352 0.616432 0)
(0.279753 0.846709 0)
(3 3.65032e-17 0)
(3 -2.84632e-17 0)
(3 4.12606e-16 0)
(3 4.18409e-16 0)
(2.89529 0.00205433 0)
(0.954493 0.016065 0)
(0.615881 0.0218162 0)
(0.480634 0.0257611 0)
(0.312906 0.0282083 0)
(0.131942 0.0362307 0)
(3 6.46763e-18 0)
(3 1.43045e-17 0)
(3 1.87665e-16 0)
(3 -5.32598e-17 0)
(2.88345 0.00886374 0)
(0.939672 0.0557424 0)
(0.590444 0.0586194 0)
(0.456478 0.0705267 0)
(0.297974 0.0838963 0)
(0.128123 0.110805 0)
(3 4.49731e-17 0)
(3 -3.98383e-17 0)
(3 5.82835e-17 0)
(3 -2.03426e-16 0)
(2.86952 0.0242774 0)
(0.928479 0.102636 0)
(0.565917 0.0975654 0)
(0.429595 0.114672 0)
(0.27384 0.133931 0)
(0.120137 0.180081 0)
(3 -1.40941e-17 0)
(3 -6.341e-17 0)
(3 -3.42094e-16 0)
(3 -2.93077e-16 0)
(2.8876 0.0525369 0)
(0.945568 0.162106 0)
(0.565922 0.144196 0)
(0.422158 0.165255 0)
(0.25946 0.186238 0)
(0.108605 0.244235 0)
(3 -3.48305e-17 0)
(3 2.9732e-16 0)
(3 -2.05569e-16 0)
(3 -7.16365e-16 0)
(2.95078 0.0709564 0)
(1.00343 0.218986 0)
(0.604226 0.189006 0)
(0.448164 0.219747 0)
(0.269407 0.242851 0)
(0.109549 0.307843 0)
(3 2.92539e-16 0)
(3 2.6264e-16 0)
(3 1.86687e-17 0)
(3 -1.92254e-16 0)
(3.02915 0.0393933 0)
(1.08526 0.254077 0)
(0.668951 0.229711 0)
(0.503377 0.276006 0)
(0.30023 0.306624 0)
(0.110569 0.377021 0)
(3 2.22676e-16 0)
(3 -4.20193e-16 0)
(3 -2.04553e-16 0)
(3 5.1783e-17 0)
(3.03051 0.00818367 0)
(1.15029 0.275742 0)
(0.718218 0.270132 0)
(0.567333 0.335666 0)
(0.354664 0.37465 0)
(0.139803 0.455282 0)
(3 -2.03127e-16 0)
(3 -7.80061e-16 0)
(3 1.07237e-16 0)
(3 -9.68741e-18 0)
(3.00582 0.000676061 0)
(1.19681 0.303447 0)
(0.720387 0.311991 0)
(0.59851 0.398833 0)
(0.391865 0.460341 0)
(0.142793 0.558534 0)
(3 -3.33705e-16 0)
(3 -1.02456e-16 0)
(3 -2.11797e-16 0)
(3 2.89045e-16 0)
(3.00027 -1.13327e-06 0)
(1.27201 0.339822 0)
(0.722173 0.343274 0)
(0.628943 0.449046 0)
(0.454689 0.537842 0)
(0.196722 0.664735 0)
(3 -2.17903e-17 0)
(3 5.47849e-16 0)
(3 4.22673e-16 0)
(3 7.12343e-16 0)
(3 -3.32396e-07 0)
(1.40116 0.383021 0)
(0.749214 0.374668 0)
(0.666671 0.483984 0)
(0.521352 0.616432 0)
(0.279753 0.846709 0)
(3 1.82741e-16 0)
(3 3.98412e-16 0)
(3 2.63591e-16 0)
(3 6.09531e-17 0)
(2.89529 0.00205433 0)
(0.954493 0.016065 0)
(0.615881 0.0218162 0)
(0.480634 0.0257611 0)
(0.312906 0.0282083 0)
(0.131942 0.0362307 0)
(3 3.18736e-16 0)
(3 2.12906e-16 0)
(3 3.0508e-16 0)
(3 -3.53146e-16 0)
(2.88345 0.00886374 0)
(0.939672 0.0557424 0)
(0.590444 0.0586194 0)
(0.456478 0.0705267 0)
(0.297974 0.0838963 0)
(0.128123 0.110805 0)
(3 -1.22502e-18 0)
(3 -1.84441e-16 0)
(3 -1.00475e-16 0)
(3 -9.96397e-17 0)
(2.86952 0.0242774 0)
(0.928479 0.102636 0)
(0.565917 0.0975654 0)
(0.429595 0.114672 0)
(0.27384 0.133931 0)
(0.120137 0.180081 0)
(3 1.69683e-16 0)
(3 6.47796e-17 0)
(3 -5.76497e-16 0)
(3 -2.53188e-16 0)
(2.8876 0.0525369 0)
(0.945568 0.162106 0)
(0.565922 0.144196 0)
(0.422158 0.165255 0)
(0.25946 0.186238 0)
(0.108605 0.244235 0)
(3 -1.3832e-16 0)
(3 2.84342e-17 0)
(3 -1.98624e-16 0)
(3 -9.71435e-16 0)
(2.95078 0.0709564 0)
(1.00343 0.218986 0)
(0.604226 0.189006 0)
(0.448164 0.219747 0)
(0.269407 0.242851 0)
(0.109549 0.307843 0)
(3 -2.52878e-16 0)
(3 -2.26903e-17 0)
(3 3.40551e-16 0)
(3 2.28621e-17 0)
(3.02915 0.0393933 0)
(1.08526 0.254077 0)
(0.668951 0.229711 0)
(0.503377 0.276006 0)
(0.30023 0.306624 0)
(0.110569 0.377021 0)
(3 2.99947e-16 0)
(3 -1.33738e-16 0)
(3 -3.65092e-17 0)
(3 2.92992e-16 0)
(3.03051 0.00818367 0)
(1.15029 0.275742 0)
(0.718218 0.270132 0)
(0.567333 0.335666 0)
(0.354664 0.37465 0)
(0.139803 0.455282 0)
(3 1.44318e-17 0)
(3 -5.29369e-16 0)
(3 -2.07772e-16 0)
(3 -1.41489e-17 0)
(3.00582 0.000676061 0)
(1.19681 0.303447 0)
(0.720387 0.311991 0)
(0.59851 0.398833 0)
(0.391865 0.460341 0)
(0.142793 0.558534 0)
(3 -2.25445e-16 0)
(3 -1.42324e-16 0)
(3 -3.00224e-16 0)
(3 1.29752e-16 0)
(3.00027 -1.13327e-06 0)
(1.27201 0.339822 0)
(0.722173 0.343274 0)
(0.628943 0.449046 0)
(0.454689 0.537842 0)
(0.196722 0.664735 0)
(3 9.32138e-18 0)
(3 4.99238e-16 0)
(3 5.1522e-16 0)
(3 3.81383e-16 0)
(3 -3.32396e-07 0)
(1.40116 0.383021 0)
(0.749214 0.374668 0)
(0.666671 0.483984 0)
(0.521352 0.616432 0)
(0.279753 0.846709 0)
(3 -2.4362e-18 0)
(3 2.10443e-16 0)
(3 9.60243e-17 0)
(3 -4.84899e-17 0)
(2.89529 0.00205433 0)
(0.954493 0.016065 0)
(0.615881 0.0218162 0)
(0.480634 0.0257611 0)
(0.312906 0.0282083 0)
(0.131942 0.0362307 0)
(3 1.78512e-17 0)
(3 1.3025e-16 0)
(3 4.70647e-16 0)
(3 -3.14564e-16 0)
(2.88345 0.00886374 0)
(0.939672 0.0557424 0)
(0.590444 0.0586194 0)
(0.456478 0.0705267 0)
(0.297974 0.0838963 0)
(0.128123 0.110805 0)
(3 -2.70528e-18 0)
(3 -1.0731e-16 0)
(3 -7.19542e-17 0)
(3 -3.28976e-16 0)
(2.86952 0.0242774 0)
(0.928479 0.102636 0)
(0.565917 0.0975654 0)
(0.429595 0.114672 0)
(0.27384 0.133931 0)
(0.120137 0.180081 0)
(3 1.29049e-16 0)
(3 1.23898e-16 0)
(3 -6.26852e-16 0)
(3 -3.08358e-16 0)
(2.8876 0.0525369 0)
(0.945568 0.162106 0)
(0.565922 0.144196 0)
(0.422158 0.165255 0)
(0.25946 0.186238 0)
(0.108605 0.244235 0)
(3 2.96108e-17 0)
(3 2.23569e-17 0)
(3 -2.75616e-16 0)
(3 -5.20162e-16 0)
(2.95078 0.0709564 0)
(1.00343 0.218986 0)
(0.604226 0.189006 0)
(0.448164 0.219747 0)
(0.269407 0.242851 0)
(0.109549 0.307843 0)
(3 -7.0153e-17 0)
(3 -1.63706e-17 0)
(3 3.96083e-16 0)
(3 2.72083e-16 0)
(3.02915 0.0393933 0)
(1.08526 0.254077 0)
(0.668951 0.229711 0)
(0.503377 0.276006 0)
(0.30023 0.306624 0)
(0.110569 0.377021 0)
(3 2.73269e-16 0)
(3 -2.54732e-16 0)
(3 6.70121e-17 0)
(3 1.71162e-16 0)
(3.03051 0.00818367 0)
(1.15029 0.275742 0)
(0.718218 0.270132 0)
(0.567333 0.335666 0)
(0.354664 0.37465 0)
(0.139803 0.455282 0)
(3 -9.17232e-17 0)
(3 -2.92178e-16 0)
(3 -5.65988e-16 0)
(3 -2.20039e-16 0)
(3.00582 0.000676061 0)
(1.19681 0.303447 0)
(0.720387 0.311991 0)
(0.59851 0.398833 0)
(0.391865 0.460341 0)
(0.142793 0.558534 0)
(3 -3.24706e-16 0)
(3 4.60855e-17 0)
(3 -2.83487e-16 0)
(3 2.29367e-16 0)
(3.00027 -1.13327e-06 0)
(1.27201 0.339822 0)
(0.722173 0.343274 0)
(0.628943 0.449046 0)
(0.454689 0.537842 0)
(0.196722 0.664735 0)
(3 4.1858e-17 0)
(3 5.08698e-16 0)
(3 5.15403e-16 0)
(3 4.42718e-16 0)
(3 -3.32396e-07 0)
(1.40116 0.383021 0)
(0.749214 0.374668 0)
(0.666671 0.483984 0)
(0.521352 0.616432 0)
(0.279753 0.846709 0)
(3 -1.09624e-16 0)
(3 8.84236e-17 0)
(3 -5.73337e-17 0)
(3 1.17844e-16 0)
(2.89529 0.00205433 0)
(0.954493 0.016065 0)
(0.615881 0.0218162 0)
(0.480634 0.0257611 0)
(0.312906 0.0282083 0)
(0.131942 0.0362307 0)
(3 -2.38435e-16 0)
(3 -1.41795e-17 0)
(3 -6.43832e-17 0)
(3 -4.83008e-16 0)
(2.88345 0.00886374 0)
(0.939672 0.0557424 0)
(0.590444 0.0586194 0)
(0.456478 0.0705267 0)
(0.297974 0.0838963 0)
(0.128123 0.110805 0)
(3 -7.94083e-17 0)
(3 -2.16733e-17 0)
(3 -1.20378e-16 0)
(3 -5.45574e-16 0)
(2.86952 0.0242774 0)
(0.928479 0.102636 0)
(0.565917 0.0975654 0)
(0.429595 0.114672 0)
(0.27384 0.133931 0)
(0.120137 0.180081 0)
(3 4.97631e-17 0)
(3 -1.02825e-17 0)
(3 -4.69129e-16 0)
(3 -2.7171e-16 0)
(2.8876 0.0525369 0)
(0.945568 0.162106 0)
(0.565922 0.144196 0)
(0.422158 0.165255 0)
(0.25946 0.186238 0)
(0.108605 0.244235 0)
(3 1.30922e-16 0)
(3 2.12598e-16 0)
(3 5.87361e-17 0)
(3 -5.69694e-17 0)
(2.95078 0.0709564 0)
(1.00343 0.218986 0)
(0.604226 0.189006 0)
(0.448164 0.219747 0)
(0.269407 0.242851 0)
(0.109549 0.307843 0)
(3 3.04213e-16 0)
(3 4.23316e-16 0)
(3 7.94664e-16 0)
(3 5.03786e-16 0)
(3.02915 0.0393933 0)
(1.08526 0.254077 0)
(0.668951 0.229711 0)
(0.503377 0.276006 0)
(0.30023 0.306624 0)
(0.110569 0.377021 0)
(3 2.02931e-16 0)
(3 -2.54363e-17 0)
(3 -1.29426e-16 0)
(3 1.32472e-16 0)
(3.03051 0.00818367 0)
(1.15029 0.275742 0)
(0.718218 0.270132 0)
(0.567333 0.335666 0)
(0.354664 0.37465 0)
(0.139803 0.455282 0)
(3 -2.34632e-16 0)
(3 -3.28011e-16 0)
(3 -5.78593e-16 0)
(3 -1.39387e-16 0)
(3.00582 0.000676061 0)
(1.19681 0.303447 0)
(0.720387 0.311991 0)
(0.59851 0.398833 0)
(0.391865 0.460341 0)
(0.142793 0.558534 0)
(3 -3.43186e-16 0)
(3 -1.55487e-17 0)
(3 5.56091e-17 0)
(3 2.80338e-16 0)
(3.00027 -1.13327e-06 0)
(1.27201 0.339822 0)
(0.722173 0.343274 0)
(0.628943 0.449046 0)
(0.454689 0.537842 0)
(0.196722 0.664735 0)
(3 -1.52028e-17 0)
(3 3.32061e-16 0)
(3 2.2549e-16 0)
(3 4.98895e-16 0)
(3 -3.32396e-07 0)
(1.40116 0.383021 0)
(0.749214 0.374668 0)
(0.666671 0.483984 0)
(0.521352 0.616432 0)
(0.279753 0.846709 0)
(3 -2.49979e-16 0)
(3 -1.62754e-16 0)
(3 -9.99445e-17 0)
(3 -1.33049e-16 0)
(2.89529 0.00205433 0)
(0.954493 0.016065 0)
(0.615881 0.0218162 0)
(0.480634 0.0257611 0)
(0.312906 0.0282083 0)
(0.131942 0.0362307 0)
(3 -2.36691e-16 0)
(3 1.11452e-16 0)
(3 9.70791e-17 0)
(3 -3.80086e-16 0)
(2.88345 0.00886374 0)
(0.939672 0.0557424 0)
(0.590444 0.0586194 0)
(0.456478 0.0705267 0)
(0.297974 0.0838963 0)
(0.128123 0.110805 0)
(3 1.67935e-16 0)
(3 1.30352e-16 0)
(3 -1.07853e-16 0)
(3 -2.09506e-16 0)
(2.86952 0.0242774 0)
(0.928479 0.102636 0)
(0.565917 0.0975654 0)
(0.429595 0.114672 0)
(0.27384 0.133931 0)
(0.120137 0.180081 0)
(3 2.0244e-16 0)
(3 1.7199e-16 0)
(3 -4.58307e-16 0)
(3 -1.99784e-16 0)
(2.8876 0.0525369 0)
(0.945568 0.162106 0)
(0.565922 0.144196 0)
(0.422158 0.165255 0)
(0.25946 0.186238 0)
(0.108605 0.244235 0)
(3 -6.25555e-17 0)
(3 5.06719e-17 0)
(3 3.01564e-16 0)
(3 -1.31647e-16 0)
(2.95078 0.0709564 0)
(1.00343 0.218986 0)
(0.604226 0.189006 0)
(0.448164 0.219747 0)
(0.269407 0.242851 0)
(0.109549 0.307843 0)
(3 2.63907e-16 0)
(3 -1.1723e-16 0)
(3 4.85759e-16 0)
(3 1.78149e-16 0)
(3.02915 0.0393933 0)
(1.08526 0.254077 0)
(0.668951 0.229711 0)
(0.503377 0.276006 0)
(0.30023 0.306624 0)
(0.110569 0.377021 0)
(3 -1.70369e-16 0)
(3 -3.14413e-16 0)
(3 -3.5578e-16 0)
(3 -2.03711e-16 0)
(3.03051 0.00818367 0)
(1.15029 0.275742 0)
(0.718218 0.270132 0)
(0.567333 0.335666 0)
(0.354664 0.37465 0)
(0.139803 0.455282 0)
(3 -3.25509e-16 0)
(3 -3.70537e-16 0)
(3 -4.64332e-16 0)
(3 -4.62426e-16 0)
(3.00582 0.000676061 0)
(1.19681 0.303447 0)
(0.720387 0.311991 0)
(0.59851 0.398833 0)
(0.391865 0.460341 0)
(0.142793 0.558534 0)
(3 2.61085e-16 0)
(3 5.26334e-16 0)
(3 3.20363e-16 0)
(3 1.31011e-16 0)
(3.00027 -1.13327e-06 0)
(1.27201 0.339822 0)
(0.722173 0.343274 0)
(0.628943 0.449046 0)
(0.454689 0.537842 0)
(0.196722 0.664735 0)
(3 2.43001e-16 0)
(3 7.48425e-16 0)
(3 6.01623e-16 0)
(3 3.07008e-16 0)
(3 -3.32396e-07 0)
(1.40116 0.383021 0)
(0.749214 0.374668 0)
(0.666671 0.483984 0)
(0.521352 0.616432 0)
(0.279753 0.846709 0)
(3 2.13338e-16 0)
(3 2.41654e-16 0)
(3 -1.97883e-16 0)
(3 -3.00648e-16 0)
(2.89529 0.00205433 0)
(0.954493 0.016065 0)
(0.615881 0.0218162 0)
(0.480634 0.0257611 0)
(0.312906 0.0282083 0)
(0.131942 0.0362307 0)
(3 3.44229e-16 0)
(3 9.31619e-18 0)
(3 2.02229e-16 0)
(3 -2.51936e-16 0)
(2.88345 0.00886374 0)
(0.939672 0.0557424 0)
(0.590444 0.0586194 0)
(0.456478 0.0705267 0)
(0.297974 0.0838963 0)
(0.128123 0.110805 0)
(3 1.89416e-16 0)
(3 1.53008e-16 0)
(3 2.5315e-16 0)
(3 7.46262e-17 0)
(2.86952 0.0242774 0)
(0.928479 0.102636 0)
(0.565917 0.0975654 0)
(0.429595 0.114672 0)
(0.27384 0.133931 0)
(0.120137 0.180081 0)
(3 5.24577e-17 0)
(3 3.33619e-16 0)
(3 -2.63853e-16 0)
(3 -1.55942e-16 0)
(2.8876 0.0525369 0)
(0.945568 0.162106 0)
(0.565922 0.144196 0)
(0.422158 0.165255 0)
(0.25946 0.186238 0)
(0.108605 0.244235 0)
(3 -3.80846e-16 0)
(3 -5.6909e-16 0)
(3 -3.37983e-16 0)
(3 -5.27795e-16 0)
(2.95078 0.0709564 0)
(1.00343 0.218986 0)
(0.604226 0.189006 0)
(0.448164 0.219747 0)
(0.269407 0.242851 0)
(0.109549 0.307843 0)
(3 -3.95241e-17 0)
(3 -6.18017e-16 0)
(3 -1.16592e-16 0)
(3 2.71806e-16 0)
(3.02915 0.0393933 0)
(1.08526 0.254077 0)
(0.668951 0.229711 0)
(0.503377 0.276006 0)
(0.30023 0.306624 0)
(0.110569 0.377021 0)
(3 -1.9871e-16 0)
(3 -7.10351e-16 0)
(3 -3.80852e-16 0)
(3 -9.12758e-17 0)
(3.03051 0.00818367 0)
(1.15029 0.275742 0)
(0.718218 0.270132 0)
(0.567333 0.335666 0)
(0.354664 0.37465 0)
(0.139803 0.455282 0)
(3 8.75933e-17 0)
(3 -2.33157e-16 0)
(3 -4.04729e-16 0)
(3 -9.94127e-16 0)
(3.00582 0.000676061 0)
(1.19681 0.303447 0)
(0.720387 0.311991 0)
(0.59851 0.398833 0)
(0.391865 0.460341 0)
(0.142793 0.558534 0)
(3 1.92941e-16 0)
(3 6.01894e-16 0)
(3 3.80417e-16 0)
(3 3.63605e-17 0)
(3.00027 -1.13327e-06 0)
(1.27201 0.339822 0)
(0.722173 0.343274 0)
(0.628943 0.449046 0)
(0.454689 0.537842 0)
(0.196722 0.664735 0)
(3 1.00744e-16 0)
(3 8.77819e-16 0)
(3 8.6221e-16 0)
(3 9.10311e-16 0)
(3 -3.32396e-07 0)
(1.40116 0.383021 0)
(0.749214 0.374668 0)
(0.666671 0.483984 0)
(0.521352 0.616432 0)
(0.279753 0.846709 0)
(3 3.90409e-16 0)
(3 6.16437e-16 0)
(3 -3.02095e-18 0)
(3 -6.88022e-16 0)
(2.89529 0.00205433 0)
(0.954493 0.016065 0)
(0.615881 0.0218162 0)
(0.480634 0.0257611 0)
(0.312906 0.0282083 0)
(0.131942 0.0362307 0)
(3 1.91424e-16 0)
(3 1.47685e-16 0)
(3 1.10757e-15 0)
(3 8.16781e-16 0)
(2.88345 0.00886374 0)
(0.939672 0.0557424 0)
(0.590444 0.0586194 0)
(0.456478 0.0705267 0)
(0.297974 0.0838963 0)
(0.128123 0.110805 0)
(3 2.65023e-16 0)
(3 1.43773e-16 0)
(3 1.33283e-15 0)
(3 1.26219e-15 0)
(2.86952 0.0242774 0)
(0.928479 0.102636 0)
(0.565917 0.0975654 0)
(0.429595 0.114672 0)
(0.27384 0.133931 0)
(0.120137 0.180081 0)
(3 3.25137e-16 0)
(3 3.02747e-16 0)
(3 -6.33591e-17 0)
(3 -1.09371e-16 0)
(2.8876 0.0525369 0)
(0.945568 0.162106 0)
(0.565922 0.144196 0)
(0.422158 0.165255 0)
(0.25946 0.186238 0)
(0.108605 0.244235 0)
(3 -1.76018e-16 0)
(3 -1.03241e-15 0)
(3 -8.50022e-16 0)
(3 -7.37563e-16 0)
(2.95078 0.0709564 0)
(1.00343 0.218986 0)
(0.604226 0.189006 0)
(0.448164 0.219747 0)
(0.269407 0.242851 0)
(0.109549 0.307843 0)
(3 -5.30605e-16 0)
(3 -1.14114e-15 0)
(3 -1.39401e-15 0)
(3 -1.15358e-15 0)
(3.02915 0.0393933 0)
(1.08526 0.254077 0)
(0.668951 0.229711 0)
(0.503377 0.276006 0)
(0.30023 0.306624 0)
(0.110569 0.377021 0)
(3 -5.11657e-16 0)
(3 4.95015e-16 0)
(3 1.85007e-16 0)
(3 -8.74997e-16 0)
(3.03051 0.00818367 0)
(1.15029 0.275742 0)
(0.718218 0.270132 0)
(0.567333 0.335666 0)
(0.354664 0.37465 0)
(0.139803 0.455282 0)
(3 8.97769e-16 0)
(3 4.43228e-16 0)
(3 2.41453e-16 0)
(3 -2.59317e-16 0)
(3.00582 0.000676061 0)
(1.19681 0.303447 0)
(0.720387 0.311991 0)
(0.59851 0.398833 0)
(0.391865 0.460341 0)
(0.142793 0.558534 0)
(3 3.5367e-16 0)
(3 2.33883e-16 0)
(3 2.2314e-16 0)
(3 -4.67613e-16 0)
(3.00027 -1.13327e-06 0)
(1.27201 0.339822 0)
(0.722173 0.343274 0)
(0.628943 0.449046 0)
(0.454689 0.537842 0)
(0.196722 0.664735 0)
(3 -1.16239e-16 0)
(3 -3.40156e-17 0)
(3 4.10632e-17 0)
(3 1.69195e-16 0)
(3 -3.32396e-07 0)
(1.40116 0.383021 0)
(0.749214 0.374668 0)
(0.666671 0.483984 0)
(0.521352 0.616432 0)
(0.279753 0.846709 0)
(3 -3.71442e-17 0)
(3 -5.42108e-16 0)
(3 -4.7333e-16 0)
(3 6.95604e-16 0)
(3 -1.22114e-07 0)
(1.84702 0.449178 0)
(0.838265 0.500773 0)
(0.70654 0.570956 0)
(0.691798 0.729664 0)
(0.771739 0.973812 0)
(3 1.24847e-16 0)
(3 1.54639e-16 0)
(3 2.35041e-16 0)
(3 1.25888e-16 0)
(3 -1.64265e-08 0)
(2.86196 0.209383 0)
(1.16981 0.632446 0)
(0.88928 0.63981 0)
(0.949425 0.751234 0)
(1.12556 0.837764 0)
(3 3.30715e-17 0)
(3 5.01508e-16 0)
(3 8.97415e-16 0)
(3 7.7003e-16 0)
(3 -6.83838e-10 0)
(3.03498 0.00652774 0)
(1.80645 0.625985 0)
(1.08296 0.776052 0)
(1.12849 0.791125 0)
(1.29546 0.825017 0)
(3 2.38088e-17 0)
(3 4.00935e-16 0)
(3 7.60982e-17 0)
(3 -6.08041e-17 0)
(3 -5.44632e-12 0)
(3.00047 9.99315e-05 0)
(2.91002 0.194773 0)
(1.58324 0.811523 0)
(1.24879 0.844928 0)
(1.4045 0.836189 0)
(3 1.05139e-16 0)
(3 -7.62964e-18 0)
(3 -4.82766e-16 0)
(3 -8.3641e-16 0)
(3 -3.9582e-15 0)
(3.00001 -3.33912e-06 0)
(3.00858 0.00881506 0)
(2.61825 0.459833 0)
(1.52797 0.881585 0)
(1.46675 0.891246 0)
(3 -2.08385e-16 0)
(3 -2.15491e-16 0)
(3 3.32747e-17 0)
(3 6.42281e-16 0)
(3 8.81765e-16 0)
(3 -6.41382e-07 0)
(3.00004 7.72068e-05 0)
(3.00904 0.0395567 0)
(2.3398 0.608424 0)
(1.62894 0.881249 0)
(3 1.3271e-16 0)
(3 2.76347e-17 0)
(3 2.13531e-16 0)
(3 3.06695e-16 0)
(3 1.5978e-15 0)
(3 -3.11209e-08 0)
(3 -2.89145e-09 0)
(3.00019 0.00099765 0)
(2.98179 0.0855992 0)
(2.12721 0.700873 0)
(3 -1.49183e-16 0)
(3 -4.20466e-16 0)
(3 -1.50538e-16 0)
(3 -4.30521e-16 0)
(3 -1.66711e-16 0)
(3 -2.44151e-10 0)
(3 -3.92896e-10 0)
(3 1.24627e-06 0)
(3.0005 0.00321081 0)
(2.90809 0.200526 0)
(3 -3.80066e-17 0)
(3 2.02362e-16 0)
(3 2.49222e-16 0)
(3 1.28263e-16 0)
(3 3.40827e-16 0)
(3 -3.96148e-13 0)
(3 -1.00293e-10 0)
(3 1.7955e-10 0)
(3 1.39404e-05 0)
(3.00734 0.0052292 0)
(3 -4.3386e-17 0)
(3 5.93894e-16 0)
(3 5.144e-16 0)
(3 1.73249e-17 0)
(3 1.05566e-15 0)
(3 9.19362e-16 0)
(3 -5.83972e-12 0)
(3 -7.23792e-12 0)
(3 5.18264e-09 0)
(3.00004 4.05666e-05 0)
(3 -1.17542e-16 0)
(3 -1.7483e-16 0)
(3 -2.08394e-16 0)
(3 -1.72818e-16 0)
(3 -1.22114e-07 0)
(1.84702 0.449178 0)
(0.838265 0.500773 0)
(0.70654 0.570956 0)
(0.691798 0.729664 0)
(0.771739 0.973812 0)
(3 -1.66179e-17 0)
(3 1.20698e-16 0)
(3 2.68439e-16 0)
(3 1.56916e-16 0)
(3 -1.64265e-08 0)
(2.86196 0.209383 0)
(1.16981 0.632446 0)
(0.88928 0.63981 0)
(0.949425 0.751234 0)
(1.12556 0.837764 0)
(3 9.04849e-17 0)
(3 1.24211e-16 0)
(3 2.24351e-16 0)
(3 4.11007e-16 0)
(3 -6.83838e-10 0)
(3.03498 0.00652774 0)
(1.80645 0.625985 0)
(1.08296 0.776052 0)
(1.12849 0.791125 0)
(1.29546 0.825017 0)
(3 -3.0738e-17 0)
(3 -6.71683e-17 0)
(3 -1.28347e-16 0)
(3 -2.38297e-16 0)
(3 -5.44598e-12 0)
(3.00047 9.99315e-05 0)
(2.91002 0.194773 0)
(1.58324 0.811523 0)
(1.24879 0.844928 0)
(1.4045 0.836189 0)
(3 1.66037e-17 0)
(3 -1.38251e-16 0)
(3 -4.76687e-16 0)
(3 -3.16446e-16 0)
(3 -4.85025e-15 0)
(3.00001 -3.33912e-06 0)
(3.00858 0.00881506 0)
(2.61825 0.459833 0)
(1.52797 0.881585 0)
(1.46675 0.891246 0)
(3 -4.70984e-17 0)
(3 -1.91858e-16 0)
(3 -1.89187e-16 0)
(3 -3.11923e-16 0)
(3 2.78418e-16 0)
(3 -6.41382e-07 0)
(3.00004 7.72068e-05 0)
(3.00904 0.0395567 0)
(2.3398 0.608424 0)
(1.62894 0.881249 0)
(3 1.06168e-16 0)
(3 2.32974e-16 0)
(3 2.76751e-16 0)
(3 2.1847e-16 0)
(3 7.42517e-16 0)
(3 -3.11209e-08 0)
(3 -2.89145e-09 0)
(3.00019 0.00099765 0)
(2.98179 0.0855992 0)
(2.12721 0.700873 0)
(3 3.24406e-17 0)
(3 -1.18054e-16 0)
(3 4.42328e-17 0)
(3 -5.66649e-17 0)
(3 1.78109e-16 0)
(3 -2.44151e-10 0)
(3 -3.92895e-10 0)
(3 1.24627e-06 0)
(3.0005 0.00321081 0)
(2.90809 0.200526 0)
(3 -2.61164e-17 0)
(3 -3.14321e-17 0)
(3 2.68748e-17 0)
(3 1.02409e-16 0)
(3 1.11852e-16 0)
(3 -3.96065e-13 0)
(3 -1.00294e-10 0)
(3 1.79548e-10 0)
(3 1.39404e-05 0)
(3.00734 0.0052292 0)
(3 4.36311e-17 0)
(3 3.47376e-16 0)
(3 2.67329e-16 0)
(3 1.43076e-16 0)
(3 2.49673e-17 0)
(3 1.91269e-16 0)
(3 -5.84035e-12 0)
(3 -7.23826e-12 0)
(3 5.18264e-09 0)
(3.00004 4.05666e-05 0)
(3 -1.05289e-16 0)
(3 -9.76347e-17 0)
(3 -3.01855e-17 0)
(3 1.4634e-16 0)
(3 -1.22114e-07 0)
(1.84702 0.449178 0)
(0.838265 0.500773 0)
(0.70654 0.570956 0)
(0.691798 0.729664 0)
(0.771739 0.973812 0)
(3 -7.43725e-18 0)
(3 3.44045e-17 0)
(3 1.62005e-16 0)
(3 1.11517e-16 0)
(3 -1.64265e-08 0)
(2.86196 0.209383 0)
(1.16981 0.632446 0)
(0.88928 0.63981 0)
(0.949425 0.751234 0)
(1.12556 0.837764 0)
(3 3.56553e-17 0)
(3 1.52137e-17 0)
(3 1.74901e-16 0)
(3 2.58628e-16 0)
(3 -6.83838e-10 0)
(3.03498 0.00652774 0)
(1.80645 0.625985 0)
(1.08296 0.776052 0)
(1.12849 0.791125 0)
(1.29546 0.825017 0)
(3 -7.96158e-17 0)
(3 -9.9412e-17 0)
(3 -2.15238e-16 0)
(3 -2.83201e-16 0)
(3 -5.4457e-12 0)
(3.00047 9.99315e-05 0)
(2.91002 0.194773 0)
(1.58324 0.811523 0)
(1.24879 0.844928 0)
(1.4045 0.836189 0)
(3 4.0691e-17 0)
(3 -1.04386e-16 0)
(3 -3.42931e-16 0)
(3 -4.46194e-16 0)
(3 -5.44901e-15 0)
(3.00001 -3.33912e-06 0)
(3.00858 0.00881506 0)
(2.61825 0.459833 0)
(1.52797 0.881585 0)
(1.46675 0.891246 0)
(3 -1.8284e-17 0)
(3 -1.36713e-16 0)
(3 -3.70286e-16 0)
(3 -3.18923e-16 0)
(3 2.5477e-16 0)
(3 -6.41382e-07 0)
(3.00004 7.72068e-05 0)
(3.00904 0.0395567 0)
(2.3398 0.608424 0)
(1.62894 0.881249 0)
(3 3.92176e-17 0)
(3 5.81536e-17 0)
(3 2.34832e-16 0)
(3 3.409e-16 0)
(3 4.89417e-16 0)
(3 -3.11209e-08 0)
(3 -2.89145e-09 0)
(3.00019 0.00099765 0)
(2.98179 0.0855992 0)
(2.12721 0.700873 0)
(3 5.9454e-18 0)
(3 3.1198e-17 0)
(3 3.27063e-16 0)
(3 3.04221e-16 0)
(3 3.78199e-16 0)
(3 -2.44151e-10 0)
(3 -3.92896e-10 0)
(3 1.24627e-06 0)
(3.0005 0.00321081 0)
(2.90809 0.200526 0)
(3 1.08604e-17 0)
(3 -8.16758e-17 0)
(3 -1.95241e-16 0)
(3 -1.59224e-17 0)
(3 1.75987e-16 0)
(3 -3.95851e-13 0)
(3 -1.00294e-10 0)
(3 1.79547e-10 0)
(3 1.39404e-05 0)
(3.00734 0.0052292 0)
(3 5.71557e-17 0)
(3 1.19619e-16 0)
(3 9.39372e-17 0)
(3 1.44545e-16 0)
(3 4.54381e-17 0)
(3 1.61232e-16 0)
(3 -5.84035e-12 0)
(3 -7.23825e-12 0)
(3 5.18264e-09 0)
(3.00004 4.05666e-05 0)
(3 -6.5221e-17 0)
(3 -1.06096e-18 0)
(3 1.2082e-16 0)
(3 2.9479e-16 0)
(3 -1.22114e-07 0)
(1.84702 0.449178 0)
(0.838265 0.500773 0)
(0.70654 0.570956 0)
(0.691798 0.729664 0)
(0.771739 0.973812 0)
(3 -6.10268e-18 0)
(3 2.09496e-17 0)
(3 9.37672e-17 0)
(3 5.77602e-17 0)
(3 -1.64265e-08 0)
(2.86196 0.209383 0)
(1.16981 0.632446 0)
(0.88928 0.63981 0)
(0.949425 0.751234 0)
(1.12556 0.837764 0)
(3 1.68112e-17 0)
(3 -4.82462e-17 0)
(3 -1.43876e-17 0)
(3 1.24114e-16 0)
(3 -6.83838e-10 0)
(3.03498 0.00652774 0)
(1.80645 0.625985 0)
(1.08296 0.776052 0)
(1.12849 0.791125 0)
(1.29546 0.825017 0)
(3 -1.6763e-17 0)
(3 -2.18036e-17 0)
(3 -1.60481e-16 0)
(3 -1.97413e-16 0)
(3 -5.44563e-12 0)
(3.00047 9.99315e-05 0)
(2.91002 0.194773 0)
(1.58324 0.811523 0)
(1.24879 0.844928 0)
(1.4045 0.836189 0)
(3 -1.38137e-17 0)
(3 -6.14907e-17 0)
(3 -2.21839e-16 0)
(3 -4.24636e-16 0)
(3 -5.52402e-15 0)
(3.00001 -3.33912e-06 0)
(3.00858 0.00881506 0)
(2.61825 0.459833 0)
(1.52797 0.881585 0)
(1.46675 0.891246 0)
(3 -5.19735e-17 0)
(3 -2.22697e-16 0)
(3 -4.23111e-16 0)
(3 -3.91633e-16 0)
(3 1.74375e-16 0)
(3 -6.41382e-07 0)
(3.00004 7.72068e-05 0)
(3.00904 0.0395567 0)
(2.3398 0.608424 0)
(1.62894 0.881249 0)
(3 1.36702e-16 0)
(3 1.94474e-16 0)
(3 2.18137e-16 0)
(3 3.44115e-16 0)
(3 7.30256e-16 0)
(3 -3.11209e-08 0)
(3 -2.89145e-09 0)
(3.00019 0.00099765 0)
(2.98179 0.0855992 0)
(2.12721 0.700873 0)
(3 -4.43746e-17 0)
(3 3.31199e-17 0)
(3 3.07808e-16 0)
(3 3.27248e-16 0)
(3 4.58609e-16 0)
(3 -2.44151e-10 0)
(3 -3.92896e-10 0)
(3 1.24627e-06 0)
(3.0005 0.00321081 0)
(2.90809 0.200526 0)
(3 3.76769e-18 0)
(3 -1.37171e-16 0)
(3 -1.16907e-16 0)
(3 7.87368e-17 0)
(3 1.91663e-16 0)
(3 -3.95858e-13 0)
(3 -1.00294e-10 0)
(3 1.79547e-10 0)
(3 1.39404e-05 0)
(3.00734 0.0052292 0)
(3 7.96588e-17 0)
(3 1.18297e-16 0)
(3 9.18333e-17 0)
(3 1.94931e-16 0)
(3 1.27329e-16 0)
(3 1.61022e-16 0)
(3 -5.84033e-12 0)
(3 -7.23826e-12 0)
(3 5.18264e-09 0)
(3.00004 4.05666e-05 0)
(3 -3.44323e-17 0)
(3 3.03319e-17 0)
(3 2.03916e-16 0)
(3 4.70444e-16 0)
(3 -1.22114e-07 0)
(1.84702 0.449178 0)
(0.838265 0.500773 0)
(0.70654 0.570956 0)
(0.691798 0.729664 0)
(0.771739 0.973812 0)
(3 4.51088e-18 0)
(3 6.06058e-17 0)
(3 1.00522e-16 0)
(3 2.27819e-16 0)
(3 -1.64265e-08 0)
(2.86196 0.209383 0)
(1.16981 0.632446 0)
(0.88928 0.63981 0)
(0.949425 0.751234 0)
(1.12556 0.837764 0)
(3 -4.76263e-17 0)
(3 -1.34267e-16 0)
(3 -1.42895e-16 0)
(3 -9.10147e-17 0)
(3 -6.83839e-10 0)
(3.03498 0.00652774 0)
(1.80645 0.625985 0)
(1.08296 0.776052 0)
(1.12849 0.791125 0)
(1.29546 0.825017 0)
(3 -8.58803e-17 0)
(3 3.95614e-17 0)
(3 -2.0771e-16 0)
(3 -1.83109e-16 0)
(3 -5.44582e-12 0)
(3.00047 9.99315e-05 0)
(2.91002 0.194773 0)
(1.58324 0.811523 0)
(1.24879 0.844928 0)
(1.4045 0.836189 0)
(3 3.20946e-17 0)
(3 -2.89274e-17 0)
(3 -3.10655e-16 0)
(3 -2.66776e-16 0)