/*--------------------------------*- C++ -*----------------------------------*\
  =========                 |
  \\      /  F ield         | OpenFOAM: The Open Source CFD Toolbox
   \\    /   O peration     | Website:  https://openfoam.org
    \\  /    A nd           | Version:  6.0
     \\/     M anipulation  |
\*---------------------------------------------------------------------------*/
FoamFile
{
    version     2.0;
    format      ascii;
    class       volScalarField;
    location    "3.500121092";
    object      p;
}
// * * * * * * * * * * * * * * * * * * * * * * * * * * * * * * * * * * * * * //

dimensions      [1 -1 -2 0 0 0 0];

internalField   nonuniform List<scalar> 
4800
(
1
1
1
1
1
1
1
1
1
1
1
1
1
1
1
1
1
1
1
1
2.81386
9.31898
10.5077
10.7906
10.9277
10.8844
10.7453
10.7572
11.3027
11.9784
12.0327
11.2361
10.0572
9.73142
10.7888
12.7638
13.8457
13.6029
11.3675
9.79734
1
1
1
1
1
1
1
1
1
1
1
1
1
1
1
1
1
1
1
1
2.83983
9.4691
10.4896
10.5448
10.7551
10.9262
11.0311
11.1954
11.2428
11.2969
11.46
11.5663
11.6066
11.4661
11.4123
11.46
11.5634
11.6588
11.8557
12.0063
1
1
1
1
1
1
1
1
1
1
1
1
1
1
1
1
1
1
1
1
2.84197
9.55074
10.4441
10.3999
10.4753
10.7821
11.2631
11.5058
11.2384
10.8206
10.8496
11.6566
12.8852
13.3693
12.4326
10.7519
9.92505
10.3613
12.2741
14.4058
1
1
1
1
1
1
1
1
1
1
1
1
1
1
1
1
1
1
1
1
2.80202
9.50559
10.4257
10.3869
10.5157
10.8275
11.2561
11.4603
11.3488
10.8922
10.7924
11.6621
12.8988
13.4726
12.828
10.9845
9.88652
10.1967
12.4059
14.0926
1
1
1
1
1
1
1
1
1
1
1
1
1
1
1
1
1
1
1
1
2.73381
9.33687
10.4498
10.5534
10.7899
10.9732
11.0898
11.1933
11.218
11.2635
11.4164
11.6421
11.9194
11.9118
11.6554
11.7158
11.6027
11.9966
11.9806
11.9071
1
1
1
1
1
1
1
1
1
1
1
1
1
1
1
1
1
1
1
1
2.66522
9.20494
10.4451
10.7819
10.9343
10.9516
10.841
10.8359
11.102
11.6762
12.0087
11.4719
10.5763
10.1752
10.6573
12.097
13.4194
13.4609
11.5851
9.92177
1
1
1
1
1
1
1
1
1
1
1
1
1
1
1
1
1
1
1
1
2.62163
9.18808
10.5147
10.7696
10.9355
10.8427
10.6855
10.687
11.1991
11.8642
11.9858
11.2552
9.97973
9.46873
10.3282
12.0267
13.3282
13.3825
11.364
10.3276
1
1
1
1
1
1
1
1
1
1
1
1
1
1
1
1
1
1
1
1
2.60624
9.30507
10.5602
10.5786
10.6878
10.754
10.7873
11.0247
11.3573
11.4927
11.4766
11.27
10.8868
10.9175
11.5525
12.0453
11.8856
11.3537
11.6383
11.9335
1
1
1
1
1
1
1
1
1
1
1
1
1
1
1
1
1
1
1
1
2.54763
9.32486
10.5136
10.434
10.4355
10.7018
11.1701
11.3542
11.2179
10.9825
10.8993
11.4248
12.3462
12.9241
12.374
11.6924
10.614
10.2759
11.6708
13.3596
1
1
1
1
1
1
1
1
1
1
1
1
1
1
1
1
1
1
1
1
2.44073
9.19219
10.4002
10.341
10.5013
10.9219
11.2999
11.5086
11.2975
10.8343
10.7518
11.5546
13.011
13.8752
13.839
11.769
10.4459
10.3488
11.6848
12.8236
1
1
1
1
1
1
1
1
1
1
1
1
1
1
1
1
1
1
1
1
2.3216
8.97082
10.3072
10.5073
10.8545
11.0104
11.1154
11.1254
11.0544
11.1004
11.3613
11.8702
12.4066
12.6939
11.8944
11.544
11.6841
12.1861
11.8335
11.5203
1
1
1
1
1
1
1
1
1
1
1
1
1
1
1
1
1
1
1
1
2.21885
8.79647
10.3366
10.7441
10.9059
10.9238
10.8062
10.7112
10.9124
11.428
11.956
11.7113
11.147
10.4457
10.4005
11.3963
12.7506
13.3713
12.3899
11.3261
1
1
1
1
1
1
1
1
1
1
1
1
1
1
1
1
1
1
1
1
2.15193
8.75377
10.6077
10.7244
10.7962
10.6902
10.5516
10.5999
11.0533
11.6593
11.8027
11.1853
9.95288
9.11556
9.35194
10.5629
12.1212
12.6731
12.659
12.5155
1
1
1
1
1
1
1
1
1
1
1
1
1
1
1
1
1
1
1
1
2.09573
8.86644
10.6276
10.5906
10.552
10.5324
10.6538
11.0861
11.3727
11.3708
11.1202
10.8039
10.3314
10.1667
10.7249
11.4554
11.3105
10.8488
12.1688
13.7295
1
1
1
1
1
1
1
1
1
1
1
1
1
1
1
1
1
1
1
1
1.98945
8.72005
10.5512
10.3847
10.3797
10.5787
11.1245
11.416
11.3686
10.9722
10.6325
10.8925
11.8499
12.8413
12.7936
12.3688
11.2841
10.6952
10.9914
11.8058
1
1
1
1
1
1
1
1
1
1
1
1
1
1
1
1
1
1
1
1
1.85248
8.47061
10.3027
10.2573
10.4806
10.9729
11.2727
11.399
11.1848
10.745
10.6983
11.5402
13.1185
14.4467
14.9093
13.39
11.6354
10.9975
10.3662
10.1247
1
1
1
1
1
1
1
1
1
1
1
1
1
1
1
1
1
1
1
1
1.7251
8.18566
10.1336
10.3517
10.8482
11.0749
11.0339
10.8081
10.7003
10.9665
11.3892
11.9643
12.5821
12.6006
11.7802
11.8003
11.8055
11.4629
10.9518
10.4432
1
1
1
1
1
1
1
1
1
1
1
1
1
1
1
1
1
1
1
1
1.6171
7.96901
10.2968
10.7036
10.9001
10.9587
10.6736
10.3599
10.4157
11.0231
11.9514
11.8631
10.9226
9.66745
9.3948
10.5945
11.847
11.887
11.3928
11.2259
1
1
1
1
1
1
1
1
1
1
1
1
1
1
1
1
1
1
1
1
1.53444
7.94392
10.6955
10.7343
10.7862
10.5123
10.3992
10.4812
10.8658
11.5478
11.7135
11.0608
9.48904
8.54566
8.63049
9.56532
11.4645
12.0903
11.4359
11.2012
1
1
1
1
1
1
1
1
1
1
1
1
1
1
1
1
1
1
1
1
1.41741
7.87745
10.7296
10.6547
10.3879
10.1942
10.3312
11.0083
11.6042
11.5321
11.1192
10.2703
9.69865
9.26714
9.22913
9.78315
11.0744
11.8451
12.1537
12.193
1
1
1
1
1
1
1
1
1
1
1
1
1
1
1
1
1
1
1
1
1.27306
7.60459
10.5796
10.3026
10.1306
10.1905
10.7109
11.3513
11.5893
11.4321
10.4448
10.3646
10.9199
11.9515
12.0603
11.9133
10.8848
11.2895
12.6934
13.7554
1
1
1
1
1
1
1
1
1
1
1
1
1
1
1
1
1
1
1
1
1.16899
7.18518
10.2843
10.0339
10.1651
10.7723
11.2286
11.2045
11.0932
10.5264
10.5141
11.0803
12.9872
14.6754
14.7463
13.2913
11.2147
10.9679
12.6025
14.7466
1
1
1
1
1
1
1
1
1
1
1
1
1
1
1
1
1
1
1
1
1.10886
6.95399
10.129
10.088
10.6638
11.1351
11.3313
11.1873
10.348
10.1309
10.5911
11.9053
12.9839
13.8435
14.3465
13.0448
11.8765
11.5373
11.296
11.0428
1
1
1
1
1
1
1
1
1
1
1
1
1
1
1
1
1
1
1
1
1.05648
6.81269
10.1281
10.5788
10.8473
10.9921
11.0446
10.4162
10.1853
10.211
11.2244
11.7368
12.0775
11.0964
10.2106
11.1383
11.9293
11.7133
10.0717
9.00883
1
1
1
1
1
1
1
1
1
1
1
1
1
1
1
1
1
1
1
1
1.0088
6.71692
10.4197
10.6248
10.7387
10.6977
10.2112
10.1088
10.3027
11.0932
11.6405
11.7631
10.33
8.72732
8.6008
9.65369
11.1057
11.215
9.74308
8.92816
1
1
1
1
1
1
1
1
1
1
1
1
1
1
1
1
1
1
1
1
1.00016
6.4294
10.403
10.5539
10.6075
10.167
9.84272
9.86855
10.8952
11.731
11.7592
10.8107
9.40109
8.93799
8.95813
9.35639
10.4683
10.952
9.96495
9.43219
1
1
1
1
1
1
1
1
1
1
1
1
1
1
1
1
1
1
1
1
0.999952
6.04605
10.3017
10.1859
10.0907
10.0696
10.0718
10.8235
11.3793
11.4833
11.2703
9.95164
9.13319
9.08142
9.40838
9.9773
10.8239
10.8914
9.93533
9.72923
1
1
1
1
1
1
1
1
1
1
1
1
1
1
1
1
1
1
1
1
0.999988
5.61891
10.006
9.95328
9.89664
10.0673
10.9507
11.3699
11.3854
11.2609
10.1496
9.59148
9.45206
10.4183
10.9829
11.4942
11.0155
10.8125
11.7506
13.1906
1
1
1
1
1
1
1
1
1
1
1
1
1
1
1
1
1
1
1
1
1
5.27462
9.86126
9.90684
9.98757
10.6411
11.1476
11.3425
11.1972
10.0022
9.93028
10.2597
12.4365
13.6602
13.7118
12.6978
10.5932
11.1278
13.3986
15.1325
1
1
1
1
1
1
1
1
1
1
1
1
1
1
1
1
1
1
1
1
0.999998
4.93937
9.72924
10.1227
10.5761
10.798
10.8765
10.9249
10.1036
9.68123
9.88226
11.7436
13.5113
14.5256
14.5746
12.5746
11.0856
11.7211
13.3474
15.1165
1
1
1
1
1
1
1
1
1
1
1
1
1
1
1
1
1
1
1
1
0.999998
4.71114
9.80439
10.4744
10.7066
10.8558
10.7817
10.0272
9.71391
9.7151
10.921
11.9365
12.8844
13.0908
11.5951
11.2489
11.2424
11.3849
11.0377
9.33313
1
1
1
1
1
1
1
1
1
1
1
1
1
1
1
1
1
1
1
1
0.999999
4.39254
9.8957
10.3937
10.5448
10.3243
9.90354
9.91186
9.94296
11.0368
11.4903
11.6565
10.5944
8.26115
8.24031
9.30791
10.8323
10.7289
8.56933
7.67071
1
1
1
1
1
1
1
1
1
1
1
1
1
1
1
1
1
1
1
1
1
4.00226
9.67594
10.2581
9.99829
9.84343
9.73742
9.79897
10.857
11.4334
11.4996
10.941
8.6394
7.88732
7.89217
8.74753
10.0915
10.0778
8.24188
7.54763
1
1
1
1
1
1
1
1
1
1
1
1
1
1
1
1
1
1
1
1
1
3.58128
9.39057
9.92787
9.82582
9.71169
9.7617
10.6707
11.2157
11.2163
11.2068
9.55888
8.69936
8.47399
8.42879
8.94412
10.0365
9.93314
8.11177
7.64342
1
1
1
1
1
1
1
1
1
1
1
1
1
1
1
1
1
1
1
1
1
3.18438
9.10033
9.79891
9.8416
10.0026
10.6486
11.0207
11.2785
11.4333
10.2687
9.01473
8.25325
8.0428
8.64603
9.8368
10.7118
9.67885
7.99821
7.67226
1
1
1
1
1
1
1
1
1
1
1
1
1
1
1
1
1
1
1
1
1
2.84109
8.79119
9.71659
10.1308
10.7124
10.8831
10.7977
10.7635
9.90762
9.78924
9.46719
10.2476
12.3593
12.6152
12.3669
10.2114
9.69505
9.34543
10.171
1
1
1
1
1
1
1
1
1
1
1
1
1
1
1
1
1
1
1
1
1
2.56392
8.61386
10.2709
10.5713
10.7209
10.8696
10.6844
9.62918
9.29602
9.46375
10.856
13.2628
14.1274
14.1052
12.5304
9.72597
10.0709
13.7195
15.7131
1
1
1
1
1
1
1
1
1
1
1
1
1
1
1
1
1
1
1
1
1
2.25229
8.65005
10.514
10.5711
10.601
10.1978
9.71302
9.52654
9.49876
10.1353
11.6863
12.83
13.6429
13.8441
11.3558
9.69826
11.1592
13.2052
15.5028
1
1
1
1
1
1
1
1
1
1
1
1
1
1
1
1
1
1
1
1
1
1.83748
8.39829
10.4259
10.2826
9.85194
9.58427
9.47044
9.42632
10.1541
11.1491
11.6592
12.2854
10.2009
8.39839
9.07971
10.6614
11.0087
11.6089
8.8268
1
1
1
1
1
1
1
1
1
1
1
1
1
1
1
1
1
1
1
1
1
1.43906
7.84463
10.2067
9.79044
9.49297
9.51333
9.81624
10.6532
11.1678
11.0054
10.7185
8.74806
7.6393
7.58556
8.6995
10.506
10.194
6.81225
5.27727
1
1
1
1
1
1
1
1
1
1
1
1
1
1
1
1
1
1
1
1
1
1.04556
6.72372
10.0304
9.99642
10.1538
10.304
10.3989
10.4644
10.3871
10.2011
9.75654
9.48046
9.6465
9.75414
9.80537
9.65795
8.58669
6.85988
4.96755
1
1
1
1
1
1
1
1
1
1
1
1
1
1
1
1
1
1
1
1
1
1.0002
4.71325
9.65333
9.99039
10.0669
10.0447
9.97645
9.91001
9.89382
9.93581
10.0314
10.1496
10.0555
9.79474
9.3712
8.81346
8.36289
7.99599
6.3686
1
1
1
1
1
1
1
1
1
1
1
1
1
1
1
1
1
1
1
1
1
1
2.55266
8.68245
9.85345
9.83144
9.80789
9.7904
9.81298
9.85677
9.8841
9.85091
9.72969
9.49133
9.18685
8.86513
8.53278
8.08336
7.59729
6.22107
1
1
1
1
1
1
1
1
1
1
1
1
1
1
1
1
1
1
1
1
1
1
1.14686
7.07408
9.92377
9.8053
9.74823
9.70381
9.67728
9.65872
9.62412
9.53787
9.38924
9.16431
8.89127
8.56629
8.14454
7.57041
6.91905
5.85467
1
1
1
1
1
1
1
1
1
1
1
1
1
1
1
1
1
1
1
1
1
1
1.00099
4.69582
9.30211
9.54209
9.53474
9.48564
9.44366
9.4122
9.3734
9.29717
9.16299
8.94642
8.66048
8.30238
7.86045
7.30205
6.67524
5.80922
1
1
1
1
1
1
1
1
1
1
1
1
1
1
1
1
1
1
1
1
1
1
0.999992
2.11156
8.14037
9.44022
9.39435
9.35097
9.29081
9.24673
9.20944
9.13233
8.97273
8.73053
8.42447
8.07473
7.64479
7.11423
6.49542
5.78393
1
1
1
1
1
1
1
1
1
1
1
1
1
1
1
1
1
1
1
1
1
1
0.999998
1.07259
5.8116
9.19668
9.25626
9.22204
9.12855
9.05092
8.98682
8.92157
8.78877
8.56264
8.25385
7.89501
7.46478
6.98326
6.41088
5.78802
1
1
1
1
1
1
1
1
1
1
1
1
1
1
1
1
1
1
1
1
1
1
1
1.00015
2.65968
8.27216
9.14946
9.09099
8.9941
8.86819
8.774
8.68991
8.5787
8.40709
8.13674
7.79375
7.37821
6.93768
6.44467
5.89695
1
1
1
1
1
1
1
1
1
1
1
1
1
1
1
1
1
1
1
1
1
1
1
1
1.13885
6.06351
9.02642
8.99164
8.91883
8.76582
8.61073
8.47526
8.348
8.20792
7.99457
7.71024
7.34009
6.93792
6.50856
6.01306
1
1
1
1
1
1
1
1
1
1
1
1
1
1
1
1
1
1
1
1
1
1
1
1
1.0009
2.67998
8.07867
8.85735
8.77078
8.63463
8.46541
8.29762
8.12593
7.97576
7.79978
7.58908
7.27552
6.9184
6.5312
6.09643
1
1
1
1
1
1
1
1
1
1
1
1
1
1
1
1
1
1
1
1
1
1
1
1
1
1.13553
5.6665
8.71523
8.69613
8.57561
8.39834
8.20693
8.00078
7.79408
7.59009
7.40414
7.15572
6.85154
6.50724
6.12521
1
1
1
1
1
1
1
1
1
1
1
1
1
1
1
1
1
1
1
1
1
1
1
1
1
1.00095
2.11092
7.55238
8.58066
8.43692
8.29391
8.10663
7.8902
7.6611
7.4299
7.22347
6.99986
6.7418
6.44487
6.11211
1
1
1
1
1
1
1
1
1
1
1
1
1
1
1
1
1
1
1
1
1
1
1
1
1
1
1.06108
4.68899
8.26619
8.34481
8.21806
8.04352
7.83131
7.60119
7.3577
7.12613
6.88709
6.63304
6.36121
6.07046
1
1
1
1
1
1
1
1
1
1
1
1
1
1
1
1
1
1
1
1
1
1
1
1
1
1
1.00024
1.59282
6.46825
8.29876
8.15207
8.00431
7.79383
7.56098
7.30775
7.05734
6.80748
6.5543
6.29244
6.02672
1
1
1
1
1
1
1
1
1
1
1
1
1
1
1
1
1
1
1
1
1
1
1
1
1
1
1
1.01795
2.86205
7.55076
8.10726
7.9518
7.77111
7.55384
7.30229
7.03936
6.77879
6.52329
6.26946
6.01535
1
1
1
1
1
1
1
1
1
1
1
1
1
1
1
1
1
1
1
1
1
1
1
1
1
1
1
1.00007
1.16063
4.83546
7.87405
7.87154
7.72661
7.54249
7.31832
7.06718
6.80507
6.54676
6.29372
6.03666
1
1
1
1
1
1
1
1
1
1
1
1
1
1
1
1
1
1
1
1
1
1
1
1
1
1
1
1
1.00169
1.68112
5.99855
7.76413
7.65546
7.50232
7.31618
7.10033
6.86226
6.61304
6.36153
6.09707
1
1
1
1
1
1
1
1
1
1
1
1
1
1
1
1
1
1
1
1
1
1
1
1
1
1
1
1
1
1.02339
2.42575
6.69815
7.62267
7.45695
7.30961
7.12909
6.92285
6.69414
6.4542
6.19262
1
1
1
1
1
1
1
1
1
1
1
1
1
1
1
1
1
1
1
1
1
1
1
1
1
1
1
1
1
1.00012
1.09662
3.4202
7.08964
7.45417
7.27447
7.115
6.93426
6.73033
6.51356
6.27773
1
1
1
1
1
1
1
1
1
1
1
1
1
1
1
1
1
1
1
1
1
1
1
1
1
1
1
1
1
1
1.00094
1.27872
4.46303
7.19012
7.2515
7.07828
6.90327
6.717
6.52316
6.32006
1
1
1
1
1
1
1
1
1
1
1
1
1
1
1
1
1
1
1
1
1
1
1
1
1
1
1
1
1
1
1
1.00512
1.60873
5.14776
7.1115
7.04969
6.87096
6.69461
6.51434
6.33311
1
1
1
1
1
1
1
1
1
1
1
1
1
1
1
1
1
1
1
1
1
1
1
1
1
1
1
1
1
1
1
1.00002
1.02019
1.98816
5.58259
6.96415
6.87282
6.69237
6.51676
6.34168
1
1
1
1
1
1
1
1
1
1
1
1
1
1
1
1
1
1
1
1
1
1
1
1
1
1
1
1
1
1
1
1
1.00012
1.05006
2.37449
5.82662
6.83188
6.72078
6.53545
6.35723
1
1
1
1
1
1
1
1
1
1
1
1
1
1
1
1
1
1
1
1
1
1
1
1
1
1
1
1
1
1
1
1
1
1.00042
1.09528
2.71386
5.94691
6.70186
6.58237
6.39051
1
1
1
1
1
1
1
1
1
1
1
1
1
1
1
1
1
1
1
1
1
1
1
1
1
1
1
1
1
1
1
1
1
1
1.0011
1.1491
2.97945
5.9673
6.57244
6.45844
1
1
1
1
1
1
1
1
1
1
1
1
1
1
1
1
1
1
1
1
1
1
1
1
1
1
1
1
1
1
1
1
1
1
1
1.00218
1.20274
3.14602
5.91828
6.44199
1
1
1
1
1
1
1
1
1
1
1
1
1
1
1
1
1
1
1
1
1
1
1
1
1
1
1
1
1
1
1
1
1
1
1
1.00001
1.00352
1.24514
3.22613
5.86179
1
1
1
1
1
1
1
1
1
1
1
1
1
1
1
1
1
1
1
1
1
1
1
1
1
1
1
1
1
1
1
1
1
1
1
1
1.00001
1.00511
1.26591
3.55428
1
1
1
1
1
1
1
1
1
1
1
1
1
1
1
1
1
1
1
1
1
1
1
1
1
1
1
1
1
1
1
1
1
1
1
1
1
1.00002
1.0051
1.39761
1
1
1
1
1
1
1
1
1
1
1
1
1
1
1
1
1
1
1
1
1
1
1
1
1
1
1
1
1
1
1
1
1
1
1
1
1
1
1.00002
1.0102
1
1
1
1
1
1
1
1
1
1
1
1
1
1
1
1
1
1
1
1
1
1
1
1
1
1
1
1
1
1
1
1
1
1
1
1
1
1
1
1.00002
1
1
1
1
1
1
1
1
1
1
1
1
1
1
1
1
1
1
1
1
1
1
1
1
1
1
1
1
1
1
1
1
1
1
1
1
1
1
1
1
1
1
1
1
1
1
1
1
1
1
1
1
1
1
1
1
1
1
1
1
1
1
1
1
1
1
1
1
1
1
1
1
1
1
1
1
1
1
1
1
1
1
1
1
1
1
1
1
1
1
1
1
1
1
1
1
1
1
1
1
1
1
1
1
1
1
1
1
1
1
1
1
1
1
1
1
1
1
1
1
1
1
1
1
1
1
1
1
1
1
1
1
1
1
1
1
1
1
1
1
1
1
1
1
1
1
1
1
1
1
1
1
1
1
1
1
1
1
1
1
1
1
1
1
1
1
1
1
1
1
1
1
1
1
1
1
1
1
1
1
1
1
1
1
1
1
1
1
1
1
1
1
1
1
1
1
1
1
1
1
1
1
1
1
1
1
1
1
1
1
1
1
1
1
1
1
1
1
1
1
1
1
1
1
1
1
1
1
1
1
1
1
1
1
1
1
1
1
1
1
1
1
1
1
1
1
1
1
1
1
1
1
1
1
1
1
1
1
1
1
1
1
1
1
1
1
1
1
1
1
1
1
1
1
1
1
1
1
1
1
1
1
1
1
1
1
1
1
1
1
1
1
1
1
1
1
1
1
1
1
1
1
1
1
1
1
1
1
1
1
1
1
1
1
1
1
1
1
1
1
1
1
1
1
1
1
1
1
1
1
1
1
1
1
1
1
1
1
1
1
1
1
1
1
1
1
1
1
1
1
1
1
1
1
1
1
1
1
1
1
0.884033
0.493549
0.665123
0.84445
1.00123
1.13567
1.21384
1.26431
1.27439
1.2924
1.31422
2.23433
4.31366
5.06655
5.22371
5.28402
5.31619
5.27643
5.19866
5.09116
4.96653
4.84824
4.70673
4.53536
4.36244
4.19039
4.025
3.87386
3.74332
3.59646
3.44083
3.27751
3.11397
2.97137
2.8526
2.75467
2.67193
2.59631
2.52667
2.36789
2.35374
0.841453
0.73459
0.809139
0.954201
1.08576
1.18132
1.23277
1.26195
1.28762
1.3144
2.13283
4.27992
5.15153
5.27054
5.2929
5.32433
5.2934
5.22034
5.08702
4.92416
4.76994
4.64005
4.51309
4.36497
4.19012
4.00768
3.84318
3.69601
3.5659
3.42587
3.2859
3.1412
2.99335
2.86198
2.7588
2.67345
2.59203
2.51465
2.35933
2.9223
1.20666
0.788457
0.819505
0.944146
1.09321
1.18823
1.21712
1.24699
1.28635
1.31368
1.95749
4.26048
5.23436
5.283
5.29225
5.33298
5.30927
5.24518
5.13983
4.98942
4.81788
4.64522
4.50158
4.36321
4.20398
4.0328
3.85371
3.67908
3.52688
3.39069
3.2649
3.14097
3.00896
2.87621
2.76477
2.67469
2.5881
2.50181
2.34196
3.4285
1.63889
1.06826
0.868184
0.902206
1.01046
1.13754
1.22855
1.24738
1.27544
1.28281
1.70628
4.15532
5.49134
5.39055
5.32566
5.33375
5.29628
5.22957
5.12032
4.97164
4.80665
4.64396
4.48943
4.32416
4.15683
3.99172
3.82226
3.66215
3.52278
3.39545
3.27582
3.15647
3.03035
2.89525
2.76549
2.65718
2.56535
2.4859
2.33806
3.8382
2.095
1.35599
0.985985
0.91741
0.960954
1.05356
1.15965
1.23663
1.30118
1.2796
1.50735
4.05759
5.84157
5.46672
5.32765
5.34298
5.2805
5.20424
5.08807
4.9328
4.772
4.62795
4.47728
4.30525
4.1342
3.96085
3.78767
3.6319
3.50212
3.38483
3.27548
3.16681
3.05095
2.92043
2.78049
2.6495
2.53349
2.45045
2.32312
4.12358
2.52334
1.68876
1.21124
1.02532
0.963141
0.992008
1.08852
1.19059
1.26567
1.27516
1.43725
3.85812
6.30492
5.62142
5.32312
5.29116
5.26731
5.18033
5.04898
4.89243
4.75444
4.62558
4.46079
4.279
4.10372
3.9322
3.77144
3.62984
3.50159
3.38194
3.27098
3.16325
3.05099
2.92528
2.7857
2.64651
2.51972
2.4346
2.31536
4.3925
2.89396
2.02267
1.44997
1.18243
0.989395
0.990027
1.02829
1.12377
1.21623
1.25473
1.54327
3.46396
6.11491
5.87308
5.36265
5.21651
5.19762
5.14244
5.03625
4.91088
4.7974
4.65523
4.47766
4.28392
4.0918
3.91477
3.76166
3.62746
3.50078
3.37782
3.26099
3.14841
3.03767
2.91877
2.78412
2.64081
2.5093
2.42891
2.31389
4.61483
3.23459
2.32575
1.70855
1.37705
1.10355
1.00935
1.01298
1.05568
1.1417
1.24165
1.80073
3.06019
5.71885
5.85142
5.40563
5.18695
5.13939
5.10141
5.01734
4.91176
4.79403
4.65161
4.48123
4.291
4.09173
3.9095
3.75661
3.62188
3.4934
3.36613
3.244
3.12844
3.01359
2.8991
2.77904
2.64792
2.51628
2.42664
2.30572
4.84147
3.53071
2.6117
1.96197
1.559
1.24993
1.07875
1.0187
1.02777
1.08157
1.25626
2.17482
2.84976
4.81301
5.76142
5.4101
5.18619
5.09053
5.05886
4.99125
4.88372
4.75135
4.60824
4.45254
4.28636
4.10075
3.91684
3.7564
3.61738
3.48818
3.35762
3.22409
3.09097
2.97618
2.87496
2.76803
2.65207
2.5285
2.42803
2.3016
5.01915
3.81657
2.85601
2.18814
1.73713
1.38996
1.19525
1.06625
1.03234
1.05413
1.34926
2.53394
2.83976
3.78804
5.34878
5.39095
5.17619
5.03912
5.00353
4.95201
4.84407
4.69951
4.55197
4.41176
4.27231
4.11214
3.9353
3.76347
3.61189
3.47668
3.34271
3.20355
3.06915
2.95231
2.84659
2.74726
2.64918
2.54327
2.44355
2.29397
5.15515
4.03038
3.05692
2.38355
1.91317
1.53444
1.29969
1.12873
1.05741
1.0856
1.55003
2.73391
2.87323
3.10061
4.69914
5.3331
5.16367
5.00532
4.94857
4.90246
4.79874
4.6498
4.50094
4.37299
4.2535
4.11442
3.9523
3.77659
3.60809
3.45691
3.31498
3.17945
3.05045
2.93091
2.82508
2.73198
2.64506
2.55409
2.45681
2.28682
5.22494
4.19014
3.20759
2.57375
2.06534
1.67759
1.44184
1.21994
1.0994
1.15687
1.85676
2.75518
2.88375
2.88785
3.76474
5.046
5.16764
4.9806
4.88226
4.84092
4.75252
4.61083
4.46117
4.34374
4.23558
4.106
3.956
3.7844
3.60182
3.43464
3.28844
3.15799
3.0356
2.91815
2.81109
2.71929
2.63974
2.55627
2.45934
2.28261
5.26954
4.30632
3.35609
2.75359
2.19357
1.82391
1.57004
1.32369
1.1667
1.32347
2.25154
2.65791
2.81834
2.80305
3.05142
4.37239
5.08731
4.95389
4.8392
4.78486
4.70144
4.57773
4.44639
4.3368
4.22219
4.08851
3.94173
3.77573
3.5905
3.41269
3.26232
3.13533
3.01976
2.90919
2.80674
2.71712
2.63203
2.54184
2.44751
2.27744
5.3111
4.39458
3.502
2.91688
2.32085
1.96427
1.67813
1.43114
1.27908
1.64638
2.67493
2.71612
2.71696
2.69625
2.72104
3.45409
4.74613
4.89754
4.81615
4.72471
4.62899
4.53259
4.44169
4.33905
4.20466
4.05804
3.9087
3.74717
3.57142
3.39709
3.24415
3.11673
3.00457
2.90142
2.80472
2.71159
2.61914
2.52198
2.42332
2.26533
5.35608
4.46148
3.64264
3.04968
2.44539
2.11011
1.77885
1.53361
1.45105
2.10883
2.96925
2.85456
2.72915
2.66813
2.60049
2.76593
3.95124
4.7497
4.79801
4.66549
4.54586
4.47908
4.41603
4.31867
4.18053
4.0241
3.86361
3.70376
3.54373
3.38369
3.23404
3.10489
2.99324
2.89364
2.79598
2.69621
2.59688
2.49386
2.39916
2.2579
5.41582
4.51629
3.77342
3.14307
2.57
2.24874
1.87769
1.66724
1.76035
2.64767
3.10383
2.99887
2.81601
2.67531
2.57647
2.5232
2.98276
4.23964
4.69725
4.62001
4.49136
4.42183
4.36096
4.26679
4.14078
3.98758
3.82302
3.66553
3.5165
3.37147
3.23141
3.10315
2.98757
2.88146
2.77615
2.67104
2.56897
2.46555
2.37881
2.25672
5.48582
4.57479
3.89286
3.21902
2.70524
2.37444
1.99053
1.82904
2.24299
3.22962
3.21332
3.0954
2.91313
2.7357
2.59469
2.5003
2.48893
3.29519
4.39886
4.59219
4.44716
4.36003
4.28897
4.19746
4.08518
3.94685
3.7909
3.63633
3.49306
3.35966
3.23088
3.10476
2.98151
2.86359
2.74906
2.64009
2.53956
2.44074
2.36888
2.26229
5.5718
4.66425
4.00749
3.30052
2.86433
2.49519
2.11827
2.03633
2.89449
3.67084
3.4245
3.21031
3.02219
2.82791
2.6539
2.50557
2.40422
2.56045
3.6718
4.45831
4.43747
4.30376
4.21748
4.12214
4.01806
3.90001
3.76274
3.6168
3.47606
3.3475
3.22489
3.10067
2.9718
2.84442
2.72176
2.61087
2.5137
2.42567
2.37309
2.27556
5.6613
4.78665
4.11855
3.41877
3.04797
2.6101
2.28773
2.41289
3.56492
3.88721
3.65152
3.35755
3.12482
2.9147
2.72388
2.55341
2.41086
2.3267
2.7718
3.98577
4.36287
4.27668
4.17697
4.06422
3.96092
3.85331
3.73164
3.59844
3.45973
3.32817
3.20462
3.08171
2.95228
2.82202
2.69694
2.5887
2.49873
2.42679
2.38383
2.28575
5.73875
4.93562
4.22954
3.59321
3.23433
2.73979
2.46433
3.0312
4.18278
4.04305
3.80902
3.51683
3.24957
3.01818
2.80635
2.61627
2.43246
2.31065
2.29832
3.11431
4.09317
4.28559
4.14938
4.02378
3.91413
3.80683
3.69461
3.57259
3.43884
3.30418
3.1749
3.05001
2.92398
2.79829
2.67865
2.57879
2.49837
2.43788
2.39083
2.28122
5.80051
5.06767
4.33642
3.81062
3.37671
2.87532
2.70514
3.82422
4.59938
4.26582
3.95857
3.66352
3.37211
3.10987
2.88298
2.67909
2.49147
2.30742
2.20294
2.38423
3.43569
4.15306
4.15029
4.02139
3.88641
3.76005
3.64271
3.53243
3.40836
3.27665
3.14493
3.01934
2.89875
2.78311
2.67357
2.58311
2.50543
2.44216
2.39267
2.27173
5.84879
5.15487
4.44434
4.02331
3.45706
2.98506
3.22198
4.60479
4.81474
4.48977
4.10749
3.77967
3.48027
3.20778
2.9611
2.73923
2.5392
2.34761
2.18358
2.12258
2.59016
3.68179
4.11625
4.02617
3.88396
3.72956
3.58879
3.47743
3.36771
3.24779
3.11975
2.99638
2.88252
2.77796
2.67804
2.59043
2.50697
2.43212
2.36308
2.23115
5.89189
5.19035
4.56816
4.15115
3.49456
3.15634
4.0696
5.19964
4.96818
4.63126
4.25431
3.90314
3.58854
3.29994
3.03811
2.80096
2.58763
2.39631
2.20541
2.07707
2.11113
2.86409
3.86752
3.98857
3.87428
3.69578
3.55756
3.43375
3.32577
3.21925
3.10295
2.98756
2.88038
2.78304
2.69133
2.60437
2.5066
2.41639
2.32697
2.19869
5.9411
5.21953
4.71981
4.19969
3.55771
3.53206
5.08309
5.63306
5.19039
4.76692
4.38177
4.01766
3.68731
3.38448
3.10743
2.85736
2.63403
2.43722
2.25151
2.07949
1.99894
2.19838
3.21502
3.85057
3.81229
3.66063
3.50153
3.36661
3.2837
3.19678
3.0931
2.98829
2.88671
2.7872
2.67856
2.56563
2.46081
2.37618
2.28242
2.17507
6.00092
5.30674
4.86594
4.16674
3.68181
4.34664
5.88147
5.82695
5.39187
4.91307
4.5022
4.132
3.79105
3.47551
3.18422
2.92176
2.68679
2.48002
2.29859
2.11941
1.98263
1.93976
2.42295
3.4598
3.70601
3.61618
3.45202
3.32716
3.24361
3.16031
3.09051
3.00975
2.90816
2.79156
2.65763
2.52938
2.41997
2.33036
2.23949
2.16705
6.10275
5.47464
4.94138
4.16098
3.95288
5.53294
6.50872
6.00781
5.54184
5.06719
4.64216
4.25662
3.89728
3.56363
3.25983
2.98711
2.74385
2.52457
2.33842
2.16965
1.99994
1.89785
1.95519
2.69407
3.51446
3.56462
3.4071
3.2975
3.20426
3.12529
3.04941
2.96574
2.8698
2.75132
2.61776
2.4942
2.38986
2.2911
2.21809
2.21001
6.21636
5.67926
4.92795
4.23814
4.73324
6.63558
6.78222
6.24207
5.70907
5.2261
4.78089
4.37477
3.99666
3.65058
3.33867
3.05745
2.80344
2.57353
2.37526
2.20981
2.04708
1.89333
1.8261
2.04509
2.96192
3.42449
3.37661
3.27583
3.17197
3.07988
2.99991
2.923
2.82787
2.70873
2.58418
2.46606
2.36497
2.26321
2.20949
2.34406
6.23076
5.85068
4.92455
4.47544
6.14945
7.42447
6.96449
6.40979
5.87898
5.39637
4.93454
4.49487
4.08974
3.72903
3.41168
3.12545
2.86268
2.627
2.42253
2.25091
2.094
1.92359
1.80634
1.77987
2.26174
3.16703
3.35155
3.25074
3.13272
3.03166
2.94851
2.87195
2.77791
2.66184
2.55313
2.45817
2.36309
2.25924
2.23514
2.59157
5.88567
5.63517
4.78145
5.19238
7.59573
7.80747
7.16366
6.60938
6.07876
5.57105
5.07804
4.6074
4.17861
3.80398
3.4783
3.1856
2.91416
2.67246
2.46714
2.28848
2.1308
1.96809
1.80143
1.71298
1.80931
2.56878
3.21413
3.20488
3.10781
3.00807
2.91398
2.82722
2.73264
2.62967
2.52595
2.41855
2.3237
2.27119
2.3081
2.96215
5.00807
5.18305
4.79785
6.86166
8.56407
8.04175
7.36298
6.81188
6.26141
5.71796
5.1996
4.70903
4.26689
3.88232
3.54337
3.23589
2.95604
2.71205
2.50817
2.32694
2.16009
2.00198
1.83389
1.70715
1.66598
1.9914
2.79453
3.11781
3.0835
2.98732
2.87778
2.78313
2.68993
2.60252
2.50832
2.39603
2.32216
2.31519
2.58851
3.38735
3.42192
4.79313
5.59642
8.64702
8.99683
8.22441
7.58672
7.01281
6.41259
5.82047
5.28343
4.79042
4.34597
3.95336
3.59906
3.27489
2.99022
2.75166
2.55023
2.36729
2.18805
2.02936
1.88117
1.71521
1.62356
1.67027
2.23688
2.95657
3.02259
2.92567
2.82862
2.74038
2.65528
2.57047
2.4676
2.37953
2.34202
2.47406
3.14072
3.65676
2.45412
4.51516
7.38217
9.75338
9.18844
8.41626
7.79683
7.1645
6.51925
5.88196
5.31738
4.84709
4.42121
4.02207
3.65121
3.31318
3.0253
2.79004
2.58586
2.39605
2.21388
2.0439
1.89945
1.74408
1.62136
1.57642
1.76809
2.50009
2.89268
2.86499
2.79117
2.702
2.61808
2.53163
2.43591
2.3825
2.44164
2.9386
3.70917
3.80709
1.55003
4.20492
9.09139
10.0971
9.30087
8.55974
7.96039
7.2721
6.5929
5.94801
5.36697
4.8843
4.46909
4.0689
3.68405
3.34527
3.0589
2.82222
2.61793
2.42317
2.23636
2.06062
1.91371
1.79817
1.65118
1.54384
1.55002
1.95965
2.70364
2.82841
2.75911
2.66671
2.58387
2.49348
2.42157
2.4217
2.78559
3.50558
3.89354
3.84847
1.08949
4.08613
10.6624
10.487
9.40546
8.69846
8.0804
7.36116
6.66493
6.02281
5.44301
4.93409
4.53563
4.15759
3.74608
3.37476
3.09377
2.88511
2.68889
2.48162
2.27546
2.08764
1.93248
1.79357
1.65779
1.53518
1.47355
1.58071
2.22968
2.72129
2.69856
2.62118
2.5355
2.45019
2.42063
2.61144
3.39351
3.93753
3.99122
3.86354
0.99927
4.23342
11.5377
10.8488
9.47414
8.84404
8.18575
7.47621
6.78214
6.15297
5.58158
5.0615
4.55923
4.1088
3.73048
3.40315
3.14079
2.89592
2.66313
2.45339
2.26955
2.10028
1.94904
1.80635
1.67372
1.53708
1.44771
1.43411
1.74686
2.41672
2.59522
2.55724
2.47805
2.42367
2.49922
3.11392
3.8188
4.04504
4.02299
3.88436
0.999336
4.52934
12.0223
10.8522
9.63864
9.01668
8.23627
7.52032
6.82989
6.18223
5.60482
5.08348
4.57791
4.10961
3.75165
3.48537
3.22223
2.94786
2.68114
2.45802
2.28302
2.14016
1.99067
1.84478
1.71114
1.56782
1.44467
1.38176
1.45618
1.9721
2.50339
2.49482
2.41235
2.42743
2.80423
3.73227
4.09494
4.08293
4.02194
3.8695
0.999578
4.82384
11.5482
10.693
9.75217
9.11651
8.32293
7.57834
6.88329
6.23472
5.65533
5.11235
4.59551
4.14717
3.77705
3.46258
3.18477
2.92414
2.68452
2.46853
2.28024
2.11379
1.96181
1.82485
1.69814
1.57663
1.4496
1.36271
1.35528
1.56774
2.19239
2.36984
2.37868
2.60619
3.37867
4.10279
4.17584
4.12375
4.03981
3.86246
0.999731
5.10095
11.152
10.7244
9.90921
9.2507
8.42658
7.65232
6.94428
6.28135
5.68292
5.11914
4.60916
4.18051
3.81632
3.49484
3.20074
2.9307
2.68986
2.47647
2.2884
2.11857
1.96336
1.82675
1.70402
1.58837
1.47093
1.36275
1.32016
1.34462
1.77001
2.22386
2.46566
3.14955
3.95733
4.26852
4.22827
4.12814
4.01934
3.82414
0.99987
5.44839
10.8496
10.6594
9.90153
9.20812
8.4022
7.65528
6.93973
6.27495
5.6511
5.0908
4.61303
4.20755
3.84849
3.51639
3.20866
2.93488
2.69671
2.48548
2.29481
2.12146
1.96723
1.83051
1.71625
1.6104
1.50275
1.39373
1.30284
1.27045
1.43609
2.03457
2.87499
3.67689
4.2167
4.29435
4.21041
4.13362
4.03494
3.8259
0.999968
5.57392
10.6208
10.6123
9.93725
9.27352
8.53358
7.70966
6.90661
6.24653
5.6277
5.07862
4.62079
4.22968
3.87022
3.52646
3.21032
2.93573
2.69947
2.48932
2.29783
2.1249
1.9686
1.83399
1.70869
1.58706
1.47537
1.37453
1.27016
1.22468
1.28077
1.90384
3.26445
4.27369
4.47877
4.33019
4.2005
4.12
4.02183
3.81181
)
;

boundaryField
{
    inlet
    {
        type            fixedValue;
        value           uniform 1;
    }
    outlet
    {
        type            zeroGradient;
    }
    top
    {
        type            symmetryPlane;
    }
    bottom
    {
        type            symmetryPlane;
    }
    step
    {
        type            zeroGradient;
    }
    defaultFaces
    {
        type            empty;
    }
}


// ************************************************************************* //
