/*--------------------------------*- C++ -*----------------------------------*\
  =========                 |
  \\      /  F ield         | OpenFOAM: The Open Source CFD Toolbox
   \\    /   O peration     | Website:  https://openfoam.org
    \\  /    A nd           | Version:  6.0
     \\/     M anipulation  |
\*---------------------------------------------------------------------------*/
FoamFile
{
    version     2.0;
    format      ascii;
    class       volScalarField;
    location    "3.500121092";
    object      T;
}
// * * * * * * * * * * * * * * * * * * * * * * * * * * * * * * * * * * * * * //

dimensions      [0 0 0 1 0 0 0];

internalField   nonuniform List<scalar> 
4800
(
1
1
1
1
1
1
1
1
1
1
1
1
1
1
1
1
1
1
1
1
1.6709
2.60613
2.70708
2.72436
2.73191
2.72782
2.71819
2.72008
2.7606
2.80859
2.81328
2.76001
2.67276
2.64348
2.7183
2.84641
2.90242
2.87989
2.73216
2.6127
1
1
1
1
1
1
1
1
1
1
1
1
1
1
1
1
1
1
1
1
1.67829
2.61856
2.70575
2.70645
2.71944
2.73071
2.73841
2.75116
2.75586
2.76094
2.77408
2.78184
2.78101
2.76863
2.76103
2.75503
2.75105
2.75163
2.76391
2.7668
1
1
1
1
1
1
1
1
1
1
1
1
1
1
1
1
1
1
1
1
1.67955
2.62501
2.7024
2.69591
2.69891
2.72021
2.75479
2.77255
2.75514
2.72703
2.73028
2.78635
2.86485
2.89031
2.82452
2.70297
2.63331
2.65928
2.78638
2.91254
1
1
1
1
1
1
1
1
1
1
1
1
1
1
1
1
1
1
1
1
1.66978
2.62103
2.70114
2.69478
2.70172
2.72345
2.75417
2.76929
2.76257
2.73177
2.72551
2.7857
2.86333
2.89381
2.8467
2.71732
2.62843
2.64422
2.79109
2.8887
1
1
1
1
1
1
1
1
1
1
1
1
1
1
1
1
1
1
1
1
1.65114
2.60618
2.70266
2.70669
2.72166
2.73384
2.74223
2.75053
2.75329
2.75734
2.76894
2.78302
2.79649
2.79225
2.76786
2.76379
2.74619
2.76455
2.76048
2.74576
1
1
1
1
1
1
1
1
1
1
1
1
1
1
1
1
1
1
1
1
1.63227
2.59408
2.7017
2.72297
2.73186
2.73213
2.72435
2.72482
2.74476
2.78564
2.8086
2.77023
2.70172
2.66658
2.69558
2.78721
2.86287
2.85479
2.72802
2.60436
1
1
1
1
1
1
1
1
1
1
1
1
1
1
1
1
1
1
1
1
1.62193
2.59166
2.70609
2.72172
2.7317
2.72415
2.71296
2.71373
2.75133
2.79801
2.8065
2.75422
2.65652
2.6102
2.6681
2.7806
2.85457
2.84612
2.70926
2.63222
1
1
1
1
1
1
1
1
1
1
1
1
1
1
1
1
1
1
1
1
1.61902
2.59981
2.70868
2.70716
2.71327
2.71744
2.72004
2.73783
2.76203
2.77198
2.77128
2.75473
2.72184
2.71887
2.75517
2.77989
2.75752
2.71116
2.72601
2.74007
1
1
1
1
1
1
1
1
1
1
1
1
1
1
1
1
1
1
1
1
1.60322
2.59872
2.70396
2.69613
2.69452
2.7131
2.74685
2.76032
2.75173
2.73587
2.73003
2.76436
2.82138
2.85216
2.8082
2.7531
2.66944
2.63415
2.72432
2.82577
1
1
1
1
1
1
1
1
1
1
1
1
1
1
1
1
1
1
1
1
1.57224
2.58441
2.69533
2.68863
2.69859
2.72852
2.75546
2.77069
2.75686
2.725
2.719
2.77273
2.86326
2.90871
2.89535
2.75605
2.65618
2.63764
2.72122
2.78945
1
1
1
1
1
1
1
1
1
1
1
1
1
1
1
1
1
1
1
1
1.5369
2.56374
2.68767
2.70008
2.7238
2.7343
2.74198
2.74346
2.73952
2.74327
2.76154
2.79346
2.82324
2.83501
2.7725
2.73937
2.74013
2.76129
2.72933
2.70041
1
1
1
1
1
1
1
1
1
1
1
1
1
1
1
1
1
1
1
1
1.50472
2.54769
2.68881
2.71641
2.7268
2.72741
2.71922
2.71326
2.72846
2.76576
2.80143
2.78177
2.73618
2.67803
2.66521
2.72802
2.80712
2.83303
2.7634
2.68478
1
1
1
1
1
1
1
1
1
1
1
1
1
1
1
1
1
1
1
1
1.48624
2.54359
2.70788
2.71444
2.71831
2.70998
2.70026
2.70452
2.73782
2.78088
2.79041
2.7452
2.64859
2.57302
2.58047
2.66568
2.76541
2.78728
2.776
2.75873
1
1
1
1
1
1
1
1
1
1
1
1
1
1
1
1
1
1
1
1
1.46987
2.54944
2.70844
2.70442
2.70022
2.69819
2.70723
2.73886
2.7597
2.76
2.74231
2.71734
2.67629
2.65429
2.68521
2.73
2.71053
2.66597
2.74132
2.82716
1
1
1
1
1
1
1
1
1
1
1
1
1
1
1
1
1
1
1
1
1.43371
2.53239
2.70262
2.68927
2.68748
2.70107
2.74047
2.7613
2.75841
2.73106
2.70654
2.72223
2.78115
2.8358
2.82328
2.78847
2.70548
2.65273
2.6607
2.70419
1
1
1
1
1
1
1
1
1
1
1
1
1
1
1
1
1
1
1
1
1.38641
2.50852
2.68569
2.68
2.69461
2.72934
2.75019
2.75937
2.7449
2.71432
2.71063
2.76629
2.86142
2.92963
2.94342
2.84861
2.72791
2.67105
2.61388
2.58584
1
1
1
1
1
1
1
1
1
1
1
1
1
1
1
1
1
1
1
1
1.34167
2.48254
2.67411
2.68729
2.72147
2.73635
2.73294
2.71687
2.7098
2.72948
2.75815
2.79386
2.82612
2.81556
2.75567
2.74966
2.73805
2.70149
2.65332
2.60537
1
1
1
1
1
1
1
1
1
1
1
1
1
1
1
1
1
1
1
1
1.29502
2.45912
2.68523
2.71272
2.72483
2.72786
2.70677
2.68404
2.6883
2.73226
2.79573
2.78617
2.711
2.6067
2.57779
2.66403
2.73995
2.72817
2.68104
2.65514
1
1
1
1
1
1
1
1
1
1
1
1
1
1
1
1
1
1
1
1
1.25918
2.44718
2.71086
2.71316
2.71559
2.69484
2.68647
2.69256
2.72067
2.76825
2.77895
2.72965
2.60281
2.51299
2.51177
2.58417
2.7135
2.74005
2.67955
2.64923
1
1
1
1
1
1
1
1
1
1
1
1
1
1
1
1
1
1
1
1
1.20007
2.42083
2.70754
2.70289
2.6841
2.67024
2.68077
2.72999
2.77143
2.76633
2.73659
2.67152
2.61745
2.56919
2.55819
2.59944
2.68569
2.72214
2.72417
2.71348
1
1
1
1
1
1
1
1
1
1
1
1
1
1
1
1
1
1
1
1
1.13295
2.38076
2.68898
2.67246
2.66246
2.66835
2.70719
2.75277
2.76939
2.75799
2.68731
2.67734
2.70327
2.7641
2.76503
2.75158
2.67021
2.68354
2.75719
2.80746
1
1
1
1
1
1
1
1
1
1
1
1
1
1
1
1
1
1
1
1
1.08752
2.34301
2.66536
2.65023
2.66227
2.70861
2.74198
2.74113
2.73341
2.69348
2.69179
2.72727
2.84352
2.93287
2.92906
2.83496
2.68963
2.65844
2.74738
2.85366
1
1
1
1
1
1
1
1
1
1
1
1
1
1
1
1
1
1
1
1
1.05916
2.32471
2.6551
2.65368
2.69693
2.73192
2.74701
2.73776
2.67932
2.66322
2.69568
2.78305
2.84075
2.8794
2.8986
2.81808
2.73311
2.69635
2.65969
2.62982
1
1
1
1
1
1
1
1
1
1
1
1
1
1
1
1
1
1
1
1
1.03036
2.31336
2.65903
2.69016
2.70929
2.7201
2.72448
2.68194
2.66601
2.66793
2.74034
2.77071
2.77701
2.70097
2.63432
2.69245
2.73564
2.70733
2.57059
2.47323
1
1
1
1
1
1
1
1
1
1
1
1
1
1
1
1
1
1
1
1
1.00358
2.30466
2.68601
2.69593
2.70195
2.69774
2.66346
2.65725
2.67219
2.73018
2.76763
2.77075
2.65697
2.51871
2.5034
2.58375
2.67901
2.67124
2.54298
2.46213
1
1
1
1
1
1
1
1
1
1
1
1
1
1
1
1
1
1
1
1
1.00004
2.27376
2.69019
2.69666
2.69525
2.66023
2.63489
2.63681
2.71393
2.77237
2.77434
2.70386
2.58533
2.53329
2.52972
2.56038
2.63277
2.65093
2.5576
2.49793
1
1
1
1
1
1
1
1
1
1
1
1
1
1
1
1
1
1
1
1
0.999986
2.22903
2.69021
2.6756
2.66077
2.65431
2.65234
2.7072
2.74702
2.75429
2.73821
2.63865
2.56228
2.54337
2.56067
2.60366
2.65757
2.64599
2.54881
2.50838
1
1
1
1
1
1
1
1
1
1
1
1
1
1
1
1
1
1
1
1
0.999997
2.17608
2.67148
2.66049
2.6498
2.65685
2.71845
2.74589
2.74638
2.73637
2.65726
2.60934
2.5825
2.64557
2.68061
2.71651
2.67066
2.64056
2.67759
2.74985
1
1
1
1
1
1
1
1
1
1
1
1
1
1
1
1
1
1
1
1
1
2.12819
2.66105
2.65769
2.65841
2.70298
2.73375
2.74485
2.73212
2.64591
2.63993
2.658
2.80056
2.86622
2.8621
2.79304
2.63834
2.66051
2.77723
2.85431
1
1
1
1
1
1
1
1
1
1
1
1
1
1
1
1
1
1
1
1
0.999999
2.07525
2.64808
2.67563
2.70574
2.71613
2.71785
2.71744
2.65441
2.62055
2.63377
2.76332
2.86509
2.91543
2.91109
2.77936
2.67103
2.69704
2.76502
2.83569
1
1
1
1
1
1
1
1
1
1
1
1
1
1
1
1
1
1
1
1
0.999999
2.03671
2.6509
2.70171
2.71715
2.72428
2.71385
2.65421
2.62524
2.62164
2.711
2.77438
2.82332
2.82282
2.7317
2.69444
2.68262
2.67475
2.61463
2.48446
1
1
1
1
1
1
1
1
1
1
1
1
1
1
1
1
1
1
1
1
1
1.98139
2.65062
2.69457
2.70555
2.68807
2.65065
2.64713
2.64335
2.72099
2.75058
2.75433
2.66786
2.47606
2.46666
2.55059
2.65475
2.62929
2.42934
2.32672
1
1
1
1
1
1
1
1
1
1
1
1
1
1
1
1
1
1
1
1
1
1.9105
2.62103
2.68134
2.66411
2.65204
2.64043
2.64021
2.71415
2.7494
2.75125
2.70276
2.51548
2.43705
2.4316
2.50341
2.59962
2.57917
2.39708
2.30825
1
1
1
1
1
1
1
1
1
1
1
1
1
1
1
1
1
1
1
1
1
1.82709
2.58547
2.65211
2.64935
2.64252
2.64399
2.70857
2.74077
2.73556
2.7302
2.60155
2.518
2.48666
2.47503
2.51868
2.59461
2.56652
2.37975
2.30643
1
1
1
1
1
1
1
1
1
1
1
1
1
1
1
1
1
1
1
1
1
1.73948
2.54945
2.63755
2.64867
2.66378
2.7119
2.73562
2.74777
2.75214
2.6648
2.55684
2.47745
2.4351
2.48275
2.58881
2.64366
2.54216
2.36252
2.29886
1
1
1
1
1
1
1
1
1
1
1
1
1
1
1
1
1
1
1
1
1
1.65334
2.51286
2.6251
2.66571
2.71384
2.72915
2.72104
2.71238
2.64466
2.62924
2.59156
2.6377
2.78567
2.79559
2.77108
2.60236
2.5445
2.46722
2.51667
1
1
1
1
1
1
1
1
1
1
1
1
1
1
1
1
1
1
1
1
1
1.58135
2.48818
2.65735
2.69204
2.71086
2.72637
2.7137
2.63039
2.5977
2.60402
2.6968
2.84174
2.88367
2.88082
2.77735
2.56139
2.56855
2.76443
2.84919
1
1
1
1
1
1
1
1
1
1
1
1
1
1
1
1
1
1
1
1
1
1.48698
2.4707
2.66398
2.68034
2.69262
2.67185
2.63907
2.62259
2.61509
2.65712
2.75444
2.81386
2.85483
2.84933
2.6934
2.55843
2.63906
2.71781
2.79432
1
1
1
1
1
1
1
1
1
1
1
1
1
1
1
1
1
1
1
1
1
1.33851
2.41852
2.64285
2.64255
2.62812
2.61835
2.61684
2.61425
2.66826
2.7357
2.7577
2.78083
2.65377
2.49995
2.53981
2.63207
2.63149
2.58128
2.38269
1
1
1
1
1
1
1
1
1
1
1
1
1
1
1
1
1
1
1
1
1
1.17882
2.35071
2.61563
2.59936
2.59205
2.60662
2.64095
2.70839
2.74459
2.72975
2.70503
2.55537
2.45285
2.44202
2.52345
2.63334
2.59736
2.30484
2.1098
1
1
1
1
1
1
1
1
1
1
1
1
1
1
1
1
1
1
1
1
1
1.01825
2.26274
2.60342
2.61298
2.63546
2.65692
2.67389
2.68764
2.68711
2.67462
2.64417
2.63344
2.65412
2.65596
2.64204
2.61993
2.52887
2.37534
2.20096
1
1
1
1
1
1
1
1
1
1
1
1
1
1
1
1
1
1
1
1
1
1.00007
2.02092
2.58492
2.60859
2.62281
2.6283
2.63119
2.6337
2.63928
2.64831
2.66295
2.68033
2.67923
2.66053
2.62319
2.57895
2.53792
2.51097
2.40276
1
1
1
1
1
1
1
1
1
1
1
1
1
1
1
1
1
1
1
1
1
1
1.57083
2.47778
2.59041
2.5987
2.60373
2.60789
2.61575
2.6258
2.63489
2.6401
2.63941
2.62858
2.60946
2.58682
2.56279
2.52583
2.48751
2.37638
1
1
1
1
1
1
1
1
1
1
1
1
1
1
1
1
1
1
1
1
1
1
1.0626
2.30081
2.59732
2.5923
2.59324
2.5937
2.59552
2.59862
2.6021
2.60299
2.59934
2.59048
2.5769
2.55755
2.52838
2.48236
2.42409
2.31816
1
1
1
1
1
1
1
1
1
1
1
1
1
1
1
1
1
1
1
1
1
1
1.00046
2.00109
2.54201
2.56816
2.57161
2.57062
2.57016
2.57096
2.57228
2.5717
2.5685
2.56017
2.54634
2.52524
2.49448
2.44971
2.39396
2.30693
1
1
1
1
1
1
1
1
1
1
1
1
1
1
1
1
1
1
1
1
1
1
0.999998
1.42275
2.38298
2.53958
2.54889
2.55316
2.55272
2.55212
2.55184
2.54935
2.54211
2.52985
2.51326
2.49263
2.46327
2.4214
2.36618
2.29565
1
1
1
1
1
1
1
1
1
1
1
1
1
1
1
1
1
1
1
1
1
1
1
1.03054
2.13991
2.50376
2.52852
2.53501
2.53343
2.53091
2.52788
2.52508
2.51818
2.50519
2.48641
2.46344
2.43307
2.39506
2.34358
2.28535
1
1
1
1
1
1
1
1
1
1
1
1
1
1
1
1
1
1
1
1
1
1
1
1.00008
1.56486
2.37214
2.50193
2.51055
2.51141
2.50762
2.50329
2.49897
2.49301
2.48316
2.46595
2.44255
2.4119
2.3772
2.33532
2.28506
1
1
1
1
1
1
1
1
1
1
1
1
1
1
1
1
1
1
1
1
1
1
1
1
1.05776
2.14446
2.47472
2.48595
2.49023
2.48561
2.47871
2.47191
2.46535
2.4579
2.44459
2.42516
2.39758
2.36572
2.32909
2.28368
1
1
1
1
1
1
1
1
1
1
1
1
1
1
1
1
1
1
1
1
1
1
1
1
1.00039
1.55911
2.33674
2.45865
2.45976
2.45801
2.45227
2.44479
2.43585
2.42826
2.41824
2.40483
2.38165
2.35347
2.32028
2.2805
1
1
1
1
1
1
1
1
1
1
1
1
1
1
1
1
1
1
1
1
1
1
1
1
1
1.05616
2.08552
2.43079
2.44028
2.43698
2.42973
2.42104
2.41055
2.39944
2.38801
2.37742
2.36025
2.33658
2.30769
2.27315
1
1
1
1
1
1
1
1
1
1
1
1
1
1
1
1
1
1
1
1
1
1
1
1
1
1.00039
1.40213
2.26058
2.41221
2.40685
2.40345
2.39618
2.38575
2.37326
2.35975
2.34773
2.3333
2.3144
2.29019
2.26093
1
1
1
1
1
1
1
1
1
1
1
1
1
1
1
1
1
1
1
1
1
1
1
1
1
1
1.02529
1.93883
2.36329
2.39191
2.38578
2.37707
2.366
2.35316
2.33827
2.32382
2.30812
2.29015
2.26899
2.24449
1
1
1
1
1
1
1
1
1
1
1
1
1
1
1
1
1
1
1
1
1
1
1
1
1
1
1.0001
1.23611
2.14353
2.36852
2.36308
2.35863
2.3485
2.33552
2.31987
2.30349
2.28659
2.26855
2.24846
2.22707
1
1
1
1
1
1
1
1
1
1
1
1
1
1
1
1
1
1
1
1
1
1
1
1
1
1
1
1.00737
1.5807
2.24189
2.34401
2.33697
2.32994
2.31945
2.30499
2.28835
2.27074
2.25253
2.23338
2.21314
1
1
1
1
1
1
1
1
1
1
1
1
1
1
1
1
1
1
1
1
1
1
1
1
1
1
1
1.00002
1.06594
1.93113
2.30169
2.31613
2.31072
2.30262
2.29091
2.27603
2.25896
2.24091
2.22199
2.20135
1
1
1
1
1
1
1
1
1
1
1
1
1
1
1
1
1
1
1
1
1
1
1
1
1
1
1
1
1.00065
1.26146
2.0685
2.28838
2.28569
2.28099
2.27351
2.2626
2.2485
2.23198
2.21376
2.19284
1
1
1
1
1
1
1
1
1
1
1
1
1
1
1
1
1
1
1
1
1
1
1
1
1
1
1
1
1
1.00944
1.46811
2.12984
2.26365
2.25577
2.25262
2.24625
2.23638
2.22296
2.20684
2.18715
1
1
1
1
1
1
1
1
1
1
1
1
1
1
1
1
1
1
1
1
1
1
1
1
1
1
1
1
1
1.00004
1.03921
1.6756
2.16657
2.24191
2.23135
2.22591
2.21863
2.20844
2.19564
2.17957
1
1
1
1
1
1
1
1
1
1
1
1
1
1
1
1
1
1
1
1
1
1
1
1
1
1
1
1
1
1
1.00033
1.1121
1.84272
2.18614
2.21541
2.20639
2.19828
2.1892
2.17885
2.16683
1
1
1
1
1
1
1
1
1
1
1
1
1
1
1
1
1
1
1
1
1
1
1
1
1
1
1
1
1
1
1
1.00194
1.23069
1.92749
2.18191
2.18369
2.17625
2.16852
2.15977
2.15042
1
1
1
1
1
1
1
1
1
1
1
1
1
1
1
1
1
1
1
1
1
1
1
1
1
1
1
1
1
1
1
1.00001
1.00791
1.34265
1.97661
2.15793
2.15585
2.14795
2.14042
2.13264
1
1
1
1
1
1
1
1
1
1
1
1
1
1
1
1
1
1
1
1
1
1
1
1
1
1
1
1
1
1
1
1
1.00004
1.01976
1.44014
1.99767
2.1344
2.13012
2.12131
2.11393
1
1
1
1
1
1
1
1
1
1
1
1
1
1
1
1
1
1
1
1
1
1
1
1
1
1
1
1
1
1
1
1
1
1.00014
1.03778
1.51388
2.00516
2.11229
2.10649
2.0965
1
1
1
1
1
1
1
1
1
1
1
1
1
1
1
1
1
1
1
1
1
1
1
1
1
1
1
1
1
1
1
1
1
1
1.00037
1.05914
1.56503
2.0017
2.09072
2.08466
1
1
1
1
1
1
1
1
1
1
1
1
1
1
1
1
1
1
1
1
1
1
1
1
1
1
1
1
1
1
1
1
1
1
1
1.00076
1.08004
1.59324
1.98884
2.06948
1
1
1
1
1
1
1
1
1
1
1
1
1
1
1
1
1
1
1
1
1
1
1
1
1
1
1
1
1
1
1
1
1
1
1
1
1.00126
1.09614
1.59967
1.98234
1
1
1
1
1
1
1
1
1
1
1
1
1
1
1
1
1
1
1
1
1
1
1
1
1
1
1
1
1
1
1
1
1
1
1
1
1
1.00182
1.10257
1.6845
1
1
1
1
1
1
1
1
1
1
1
1
1
1
1
1
1
1
1
1
1
1
1
1
1
1
1
1
1
1
1
1
1
1
1
1
1
1.00001
1.00187
1.15812
1
1
1
1
1
1
1
1
1
1
1
1
1
1
1
1
1
1
1
1
1
1
1
1
1
1
1
1
1
1
1
1
1
1
1
1
1
1
1.00001
1.00396
1
1
1
1
1
1
1
1
1
1
1
1
1
1
1
1
1
1
1
1
1
1
1
1
1
1
1
1
1
1
1
1
1
1
1
1
1
1
1
1.00001
1
1
1
1
1
1
1
1
1
1
1
1
1
1
1
1
1
1
1
1
1
1
1
1
1
1
1
1
1
1
1
1
1
1
1
1
1
1
1
1
1
1
1
1
1
1
1
1
1
1
1
1
1
1
1
1
1
1
1
1
1
1
1
1
1
1
1
1
1
1
1
1
1
1
1
1
1
1
1
1
1
1
1
1
1
1
1
1
1
1
1
1
1
1
1
1
1
1
1
1
1
1
1
1
1
1
1
1
1
1
1
1
1
1
1
1
1
1
1
1
1
1
1
1
1
1
1
1
1
1
1
1
1
1
1
1
1
1
1
1
1
1
1
1
1
1
1
1
1
1
1
1
1
1
1
1
1
1
1
1
1
1
1
1
1
1
1
1
1
1
1
1
1
1
1
1
1
1
1
1
1
1
1
1
1
1
1
1
1
1
1
1
1
1
1
1
1
1
1
1
1
1
1
1
1
1
1
1
1
1
1
1
1
1
1
1
1
1
1
1
1
1
1
1
1
1
1
1
1
1
1
1
1
1
1
1
1
1
1
1
1
1
1
1
1
1
1
1
1
1
1
1
1
1
1
1
1
1
1
1
1
1
1
1
1
1
1
1
1
1
1
1
1
1
1
1
1
1
1
1
1
1
1
1
1
1
1
1
1
1
1
1
1
1
1
1
1
1
1
1
1
1
1
1
1
1
1
1
1
1
1
1
1
1
1
1
1
1
1
1
1
1
1
1
1
1
1
1
1
1
1
1
1
1
1
1
1
1
1
1
1
1
1
1
1
1
1
1
1
1
1
1
1
1
1
1
1
1
1
1
1.5681
1.56936
1.66091
1.71987
1.77213
1.81521
1.8439
1.85995
1.85286
1.83782
1.82694
2.22222
2.77902
2.89257
2.87297
2.83613
2.79486
2.74715
2.69995
2.65464
2.61129
2.57439
2.53765
2.49881
2.45989
2.41996
2.37907
2.33871
2.30137
2.26335
2.22849
2.19721
2.17023
2.14968
2.13394
2.12128
2.10949
2.09591
2.07957
2.03503
2.00251
1.69594
1.59459
1.62636
1.68734
1.73521
1.77592
1.80027
1.80869
1.80397
1.79846
2.16796
2.75406
2.89187
2.86365
2.81617
2.76989
2.71985
2.6722
2.62273
2.57545
2.53513
2.50298
2.47427
2.44308
2.40615
2.36473
2.32312
2.28347
2.24907
2.21732
2.19074
2.16753
2.14617
2.12845
2.11527
2.10342
2.08906
2.07126
2.0283
1.98509
1.6808
1.50884
1.5123
1.56017
1.6198
1.66188
1.68371
1.70678
1.71993
1.72104
2.02219
2.67121
2.83585
2.79445
2.73672
2.68556
2.63231
2.58575
2.54253
2.502
2.46584
2.4353
2.41283
2.3922
2.36604
2.33288
2.29299
2.25154
2.21511
2.18452
2.16053
2.14132
2.12378
2.10728
2.09396
2.08252
2.0685
2.05025
2.00888
2.01343
1.70305
1.5347
1.44232
1.44642
1.4845
1.53622
1.58176
1.60181
1.61606
1.61551
1.78877
2.48901
2.71875
2.66403
2.60062
2.55192
2.50325
2.46296
2.42563
2.39235
2.36495
2.34406
2.32813
2.31143
2.29182
2.26693
2.23523
2.20128
2.16982
2.14179
2.1189
2.10076
2.08535
2.06994
2.0546
2.0409
2.02755
2.01307
1.97844
2.05759
1.75533
1.56609
1.43719
1.39874
1.41314
1.44814
1.49302
1.52863
1.55599
1.54611
1.61946
2.29677
2.57672
2.50446
2.45585
2.42799
2.39262
2.36273
2.33358
2.3059
2.28342
2.26778
2.25378
2.23785
2.2205
2.19859
2.17148
2.1429
2.11642
2.09228
2.07197
2.05556
2.04158
2.02693
2.01001
1.99242
1.97497
1.96078
1.93428
2.08889
1.81893
1.62677
1.48157
1.41328
1.3901
1.39982
1.43658
1.47711
1.50784
1.50831
1.55836
2.1304
2.49831
2.40617
2.36275
2.34416
2.32853
2.30706
2.28286
2.25877
2.24007
2.22484
2.20624
2.18628
2.16657
2.14495
2.1217
2.09853
2.07554
2.05338
2.03366
2.01668
2.00146
1.98573
1.96744
1.94745
1.92757
1.91322
1.89062
2.11755
1.87709
1.6967
1.5463
1.45997
1.38773
1.38797
1.4024
1.43879
1.47181
1.48331
1.57602
2.00043
2.40575
2.38272
2.3233
2.30087
2.29194
2.27979
2.26221
2.24358
2.22788
2.20873
2.18555
2.16091
2.13585
2.11168
2.08948
2.06872
2.04793
2.02696
2.00699
1.98867
1.97177
1.95462
1.93493
1.91235
1.89022
1.87645
1.85506
2.13681
1.9299
1.76038
1.61545
1.52154
1.42715
1.39056
1.3921
1.40856
1.43885
1.47202
1.64508
1.92503
2.33087
2.36358
2.30939
2.28223
2.27261
2.26466
2.2509
2.23477
2.2177
2.19756
2.17403
2.14787
2.11985
2.09342
2.07064
2.04997
2.02962
2.00886
1.98854
1.96935
1.95064
1.93244
1.91328
1.89148
1.86798
1.85128
1.82759
2.15505
1.97303
1.81661
1.67796
1.57461
1.47804
1.41538
1.3924
1.39494
1.41365
1.47285
1.75047
1.89544
2.2177
2.34237
2.30045
2.27328
2.25966
2.2525
2.24069
2.22386
2.20392
2.18318
2.16122
2.1376
2.11083
2.0835
2.0591
2.03768
2.01747
1.99661
1.97455
1.95199
1.93285
1.91624
1.89833
1.87823
1.85552
1.83584
1.80988
2.16556
2.01019
1.85927
1.72747
1.62099
1.52096
1.45566
1.4087
1.39337
1.40119
1.50159
1.8419
1.89828
2.06054
2.28432
2.29052
2.2629
2.24456
2.23697
2.22724
2.21002
2.18814
2.16623
2.14596
2.12625
2.10323
2.07704
2.05089
2.02752
2.00648
1.9852
1.96237
1.93984
1.9202
1.90228
1.88536
1.868
1.84841
1.82872
1.79734
2.17095
2.03344
1.88988
1.76574
1.66221
1.56057
1.48777
1.42794
1.4
1.41037
1.57019
1.88937
1.899
1.93131
2.18803
2.27073
2.24794
2.22722
2.2179
2.20942
2.19296
2.17028
2.14798
2.12961
2.11297
2.0934
2.06985
2.04353
2.01766
1.99409
1.97154
1.9497
1.9285
1.90848
1.89059
1.87474
1.8594
1.84262
1.82357
1.78788
2.16966
2.04849
1.90943
1.79907
1.69339
1.59566
1.52802
1.45491
1.41213
1.43268
1.66789
1.89363
1.8896
1.88152
2.03269
2.21737
2.23226
2.20767
2.19408
2.1876
2.17413
2.15252
2.13023
2.11347
2.09862
2.08091
2.05969
2.03448
2.00667
1.98047
1.95735
1.93659
1.91685
1.89754
1.87983
1.86462
1.85121
1.83638
1.8176
1.78094
2.16528
2.05698
1.92719
1.8274
1.71649
1.62807
1.56009
1.48395
1.43314
1.48752
1.77101
1.85909
1.86869
1.85821
1.89806
2.10979
2.20409
2.18694
2.1722
2.16563
2.15393
2.13527
2.11533
2.09951
2.08409
2.06639
2.0463
2.02224
1.99422
1.96641
1.9425
1.92218
1.90356
1.88575
1.86939
1.85519
1.84151
1.82606
1.80828
1.77392
2.1596
2.06029
1.94284
1.8505
1.73779
1.65692
1.58485
1.51235
1.46831
1.58862
1.85555
1.8514
1.84338
1.83002
1.82522
1.95263
2.1431
2.16273
2.15358
2.1433
2.13084
2.1162
2.10172
2.08653
2.0683
2.04906
2.02903
2.00612
1.97998
1.95306
1.92858
1.90778
1.88951
1.87297
1.8578
1.84334
1.82857
1.81218
1.79436
1.76396
2.15286
2.05879
1.95587
1.86672
1.75741
1.68574
1.60688
1.53841
1.51922
1.71695
1.89921
1.87112
1.83944
1.81767
1.79208
1.81731
2.01733
2.12546
2.13687
2.12074
2.10591
2.09576
2.08546
2.07073
2.05156
2.03063
2.00903
1.98694
1.96386
1.93956
1.91573
1.89451
1.87615
1.86012
1.84468
1.82877
1.81259
1.79531
1.7789
1.75327
2.14592
2.05441
1.96591
1.87516
1.77591
1.71143
1.62736
1.57351
1.60154
1.83612
1.91294
1.88752
1.84572
1.8115
1.78199
1.75801
1.8406
2.04158
2.10732
2.09916
2.08343
2.07423
2.06486
2.05073
2.03302
2.0122
1.98996
1.96851
1.94758
1.92606
1.90414
1.88327
1.86419
1.84683
1.82965
1.81233
1.79546
1.77814
1.76368
1.74283
2.13905
2.04901
1.97274
1.87999
1.79525
1.7328
1.64959
1.61302
1.71988
1.93374
1.92313
1.89444
1.85442
1.81221
1.7762
1.74791
1.73044
1.88143
2.04917
2.07916
2.06133
2.05102
2.04149
2.02821
2.01226
1.99332
1.97226
1.95143
1.93178
1.91263
1.89302
1.8728
1.85244
1.83273
1.81345
1.79521
1.77846
1.76202
1.7506
1.73345
2.13376
2.04758
1.97776
1.88446
1.81708
1.75148
1.67358
1.65969
1.85977
1.9925
1.94873
1.90563
1.86444
1.81957
1.77666
1.73893
1.7053
1.73105
1.92598
2.0403
2.04281
2.02693
2.01632
2.00357
1.98927
1.97324
1.95478
1.93534
1.91662
1.89902
1.8811
1.86158
1.84029
1.81871
1.79774
1.77887
1.76257
1.74816
1.7404
1.72564
2.12906
2.04948
1.981
1.89263
1.84075
1.76725
1.70652
1.73665
1.97291
2.01274
1.97229
1.91836
1.87079
1.82468
1.77961
1.73673
1.69793
1.66936
1.7537
1.95571
2.01342
2.0048
1.99394
1.97989
1.96671
1.95267
1.93653
1.91896
1.90098
1.88367
1.86639
1.84767
1.82659
1.80452
1.78299
1.7644
1.74924
1.73766
1.73179
1.71747
2.12288
2.05419
1.98282
1.9074
1.86181
1.78302
1.73759
1.8553
2.05043
2.02511
1.983
1.93034
1.87898
1.83078
1.78331
1.73716
1.69115
1.65839
1.64265
1.80197
1.95575
1.98941
1.97328
1.9582
1.94477
1.93141
1.91712
1.90155
1.88446
1.86694
1.84926
1.83094
1.81117
1.79045
1.77005
1.75281
1.73905
1.72961
1.72294
1.70643
2.11411
2.05495
1.98321
1.92725
1.87288
1.79715
1.77703
1.98965
2.09114
2.04233
1.99083
1.93853
1.88499
1.83333
1.78424
1.73714
1.69147
1.6463
1.61294
1.64856
1.84221
1.95018
1.95802
1.94208
1.92499
1.90941
1.89538
1.88223
1.86673
1.84966
1.83188
1.81412
1.79614
1.7779
1.75963
1.74413
1.73086
1.72077
1.71321
1.69395
2.10272
2.05094
1.98371
1.94345
1.87294
1.80932
1.85774
2.09073
2.1027
2.05593
1.99614
1.94071
1.8872
1.83512
1.78436
1.73562
1.68903
1.64294
1.60271
1.58093
1.67829
1.86603
1.93732
1.92722
1.90948
1.89049
1.8742
1.8613
1.84797
1.83254
1.81555
1.79871
1.78258
1.76674
1.75061
1.7362
1.72199
1.70918
1.69718
1.67497
2.08925
2.03969
1.98528
1.94503
1.86566
1.8296
1.98689
2.14423
2.10992
2.05821
1.99958
1.94253
1.88821
1.83515
1.7838
1.73404
1.6868
1.64273
1.59837
1.56417
1.56857
1.72026
1.88665
1.90961
1.89475
1.87297
1.85747
1.843
1.82981
1.8161
1.80095
1.78586
1.7715
1.75767
1.74368
1.72958
1.71248
1.6963
1.68029
1.6586
2.07478
2.02563
1.98812
1.93865
1.86372
1.87542
2.11891
2.17533
2.11912
2.05844
2.00007
1.94262
1.88734
1.83353
1.78146
1.7317
1.68495
1.64185
1.59945
1.56017
1.53606
1.57916
1.77627
1.87709
1.87411
1.85725
1.83833
1.82166
1.81211
1.80156
1.78837
1.77507
1.76218
1.74883
1.73244
1.71331
1.69462
1.67963
1.66286
1.64489
2.0611
2.01771
1.98824
1.91968
1.87224
1.97876
2.1891
2.17843
2.1227
2.05837
1.99911
1.94229
1.88687
1.83285
1.78068
1.73131
1.68472
1.64181
1.60209
1.56155
1.52919
1.51445
1.62182
1.80766
1.85067
1.84153
1.82134
1.80575
1.79568
1.78582
1.77824
1.76909
1.75628
1.73996
1.71898
1.6976
1.67891
1.6637
1.64698
1.63671
2.05307
2.01852
1.98089
1.8986
1.89997
2.11983
2.22884
2.17622
2.12055
2.0591
2.00001
1.94285
1.88677
1.8324
1.78049
1.73165
1.6859
1.64255
1.60358
1.56597
1.52728
1.50059
1.51373
1.67052
1.81201
1.82732
1.80584
1.79283
1.78124
1.77157
1.7629
1.75335
1.74108
1.72368
1.70249
1.68216
1.66533
1.64938
1.63575
1.64025
2.04921
2.01718
1.96116
1.90124
1.98191
2.22264
2.22982
2.17724
2.1184
2.05921
2.0002
1.94286
1.88676
1.83289
1.78196
1.73394
1.68836
1.64455
1.60431
1.56902
1.53256
1.49761
1.47905
1.53085
1.71608
1.79673
1.79324
1.78268
1.76937
1.75696
1.74724
1.73834
1.72589
1.70822
1.68845
1.66911
1.65336
1.63648
1.62873
1.66108
2.04022
2.01523
1.93773
1.91941
2.12877
2.26889
2.2262
2.17239
2.11579
2.05992
2.00251
1.94419
1.88719
1.8335
1.78393
1.73708
1.69168
1.64833
1.60828
1.573
1.5389
1.5007
1.47145
1.46534
1.57709
1.74713
1.78564
1.77294
1.75697
1.7429
1.73213
1.7227
1.71022
1.69317
1.67673
1.66223
1.64729
1.62833
1.62943
1.70759
2.01939
1.99334
1.90852
1.97964
2.25131
2.27519
2.22192
2.17109
2.11746
2.0623
2.00487
1.94587
1.88832
1.83503
1.78623
1.73994
1.69448
1.65146
1.61259
1.57683
1.54355
1.50747
1.46881
1.44771
1.47175
1.63856
1.75782
1.76185
1.74903
1.73426
1.7207
1.70885
1.69603
1.68152
1.66633
1.64935
1.63284
1.62618
1.63657
1.77615
1.97566
1.95536
1.90913
2.13775
2.30965
2.27276
2.22023
2.17243
2.12017
2.06403
2.00636
1.94779
1.89101
1.83842
1.78926
1.74206
1.69646
1.65416
1.61664
1.58133
1.54723
1.51327
1.47545
1.44598
1.43708
1.5162
1.68359
1.74646
1.74239
1.72787
1.71072
1.69668
1.68347
1.6713
1.65723
1.6391
1.62564
1.62975
1.68648
1.84
1.77477
1.93335
2.00747
2.28747
2.33171
2.27446
2.22536
2.17767
2.12306
2.06413
2.00614
1.94908
1.89402
1.84192
1.79176
1.74325
1.69819
1.65799
1.622
1.58731
1.55165
1.51886
1.48729
1.45031
1.42907
1.4415
1.57679
1.72125
1.73287
1.71689
1.70078
1.68681
1.67403
1.6612
1.64437
1.63005
1.62606
1.65531
1.78087
1.86982
1.46883
1.88337
2.19643
2.37857
2.33918
2.28202
2.23422
2.18217
2.12444
2.06249
2.0027
1.94911
1.89788
1.84642
1.79514
1.74574
1.70166
1.66369
1.62834
1.59318
1.55755
1.52325
1.49403
1.46178
1.432
1.4224
1.47245
1.64115
1.71439
1.70897
1.69561
1.68016
1.6663
1.65195
1.63548
1.62766
1.64122
1.73657
1.86449
1.88199
1.15085
1.75237
2.32723
2.39679
2.34128
2.28757
2.24134
2.18488
2.1246
2.06255
2.00229
1.9486
1.89983
1.8499
1.79784
1.74994
1.70717
1.6705
1.63696
1.60183
1.56599
1.53091
1.50153
1.47842
1.44492
1.41928
1.4217
1.52835
1.68767
1.70663
1.69377
1.67667
1.66168
1.64536
1.63214
1.63414
1.70424
1.82523
1.88562
1.88055
1.02636
1.72888
2.42306
2.41188
2.34302
2.29413
2.24691
2.18788
2.12611
2.06478
2.00626
1.95242
1.9083
1.86296
1.80983
1.75843
1.71739
1.686
1.65458
1.61922
1.58204
1.54535
1.51288
1.48152
1.4516
1.4223
1.40754
1.4369
1.59831
1.69484
1.68904
1.67311
1.65637
1.6405
1.63409
1.67093
1.807
1.88776
1.89723
1.87932
1.00004
1.75126
2.4803
2.43761
2.34983
2.30719
2.25844
2.20104
2.14058
2.08218
2.02647
1.97291
1.91703
1.86351
1.81664
1.77259
1.73446
1.69569
1.6571
1.62267
1.59149
1.55982
1.52739
1.49338
1.46208
1.42789
1.4055
1.40132
1.48715
1.64457
1.67591
1.66747
1.65136
1.63997
1.65315
1.76365
1.87382
1.90622
1.90268
1.88079
0.999851
1.8285
2.55615
2.47578
2.38634
2.34028
2.28077
2.22254
2.16292
2.10376
2.04743
1.99232
1.93465
1.87862
1.83393
1.79848
1.75989
1.71638
1.67247
1.63468
1.60353
1.5765
1.54498
1.51138
1.47854
1.44179
1.40822
1.39141
1.41282
1.55123
1.66691
1.66252
1.6456
1.64582
1.71485
1.87095
1.92052
1.91788
1.9065
1.87761
0.999881
1.99097
2.64444
2.56049
2.46652
2.40532
2.33495
2.26881
2.20534
2.1433
2.08391
2.02394
1.96297
1.90651
1.85666
1.81152
1.76971
1.72859
1.68842
1.64922
1.61231
1.57791
1.54528
1.51398
1.48229
1.45066
1.41544
1.39063
1.38818
1.45004
1.60878
1.64466
1.64578
1.68788
1.82114
1.93357
1.9398
1.92957
1.91236
1.87496
0.99992
2.14279
2.77168
2.70347
2.59551
2.51188
2.42273
2.34103
2.266
2.19379
2.1254
2.05767
1.9926
1.9342
1.88193
1.83398
1.78869
1.74488
1.70273
1.66244
1.62445
1.58834
1.55385
1.52144
1.49072
1.46041
1.42786
1.39613
1.38158
1.38868
1.50995
1.61955
1.66674
1.79074
1.91812
1.96008
1.95274
1.93449
1.91207
1.86929
0.999962
2.23738
2.84917
2.8057
2.69871
2.59873
2.49482
2.40076
2.31234
2.22977
2.1509
2.07748
2.0117
1.95335
1.9
1.8493
1.8005
1.7546
1.71201
1.6717
1.63293
1.59548
1.5601
1.52676
1.49759
1.46947
1.43948
1.40785
1.37948
1.36668
1.41623
1.57543
1.74495
1.87508
1.95747
1.96585
1.95285
1.93781
1.91648
1.87059
0.999991
2.26097
2.86053
2.83621
2.7421
2.64131
2.53649
2.42971
2.3275
2.24065
2.15874
2.08398
2.01898
1.96165
1.90765
1.85469
1.80401
1.75755
1.71509
1.67488
1.63576
1.59804
1.56192
1.52896
1.49633
1.46343
1.43194
1.40209
1.37003
1.35262
1.3695
1.54139
1.80785
1.95911
1.99226
1.97242
1.9532
1.937
1.91578
1.86905
)
;

boundaryField
{
    inlet
    {
        type            fixedValue;
        value           uniform 1;
    }
    outlet
    {
        type            inletOutlet;
        inletValue      uniform 1;
        value           nonuniform List<scalar> 
40
(
2.03404
2.02765
2.00822
1.97809
1.93455
1.89113
1.85561
1.82797
1.81035
1.79706
1.78716
1.78016
1.77331
1.76365
1.75328
1.74321
1.73412
1.72647
1.7182
1.70669
1.69348
1.67452
1.65824
1.64465
1.6368
1.64043
1.66112
1.70702
1.77506
1.83885
1.86939
1.88198
1.88066
1.87966
1.88091
1.87736
1.87435
1.86837
1.86942
1.86781
)
;
    }
    top
    {
        type            symmetryPlane;
    }
    bottom
    {
        type            symmetryPlane;
    }
    step
    {
        type            zeroGradient;
    }
    defaultFaces
    {
        type            empty;
    }
}


// ************************************************************************* //
