/*--------------------------------*- C++ -*----------------------------------*\
  =========                 |
  \\      /  F ield         | OpenFOAM: The Open Source CFD Toolbox
   \\    /   O peration     | Website:  https://openfoam.org
    \\  /    A nd           | Version:  6.0
     \\/     M anipulation  |
\*---------------------------------------------------------------------------*/
FoamFile
{
    version     2.0;
    format      ascii;
    class       volVectorField;
    location    "3.500121092";
    object      U;
}
// * * * * * * * * * * * * * * * * * * * * * * * * * * * * * * * * * * * * * //

dimensions      [0 1 -1 0 0 0 0];

internalField   nonuniform List<vector> 
4800
(
(3 4.39818e-17 0)
(3 1.40446e-16 0)
(3 5.02898e-16 0)
(3 2.23017e-16 0)
(3 -1.88922e-16 0)
(3 -6.38541e-17 0)
(3 1.15651e-16 0)
(3 -1.0121e-16 0)
(3 1.45767e-16 0)
(3 -2.02786e-16 0)
(3 -7.13827e-16 0)
(3 -2.57865e-16 0)
(3 4.74253e-16 0)
(3 9.24521e-17 0)
(3 3.08622e-18 0)
(3 9.16302e-16 0)
(3 9.94025e-16 0)
(3 1.93025e-16 0)
(3 -5.04064e-17 0)
(3 -4.512e-16 0)
(2.17488 0.00671829 0)
(0.82631 0.0135572 0)
(0.719031 0.0168606 0)
(0.687821 0.000175642 0)
(0.647043 -0.00828916 0)
(0.601486 -0.008434 0)
(0.546444 0.008592 0)
(0.492373 0.0288861 0)
(0.463721 0.0386418 0)
(0.445282 0.0198028 0)
(0.424663 -0.013339 0)
(0.375907 -0.0117848 0)
(0.283707 0.0425347 0)
(0.226631 0.0864488 0)
(0.205547 0.0849604 0)
(0.211079 0.040912 0)
(0.169965 -0.0395427 0)
(0.108459 -0.0492789 0)
(0.0486034 0.0256509 0)
(0.0170968 0.0846302 0)
(3 3.152e-16 0)
(3 2.69111e-16 0)
(3 2.51073e-16 0)
(3 -3.14878e-17 0)
(3 -9.01589e-17 0)
(3 -2.37361e-16 0)
(3 -1.98061e-16 0)
(3 1.07295e-17 0)
(3 1.35806e-16 0)
(3 4.23934e-17 0)
(3 -5.07141e-16 0)
(3 1.07319e-16 0)
(3 -7.26744e-17 0)
(3 -1.7153e-16 0)
(3 7.15684e-17 0)
(3 4.95636e-16 0)
(3 5.65293e-16 0)
(3 1.89493e-16 0)
(3 9.67637e-17 0)
(3 -5.62051e-16 0)
(2.17374 0.0153277 0)
(0.838285 0.0211169 0)
(0.714505 0.0418329 0)
(0.681404 0.0272284 0)
(0.638753 0.00114452 0)
(0.597858 -0.0193109 0)
(0.55675 -0.0151147 0)
(0.517206 0.0410289 0)
(0.474985 0.104288 0)
(0.432668 0.10222 0)
(0.397346 0.0284044 0)
(0.354964 -0.0583557 0)
(0.319189 -0.0762059 0)
(0.279269 0.0581665 0)
(0.240614 0.191452 0)
(0.204815 0.194278 0)
(0.144962 0.123635 0)
(0.098076 0.0527581 0)
(0.0565369 0.0109976 0)
(0.0334604 0.00655469 0)
(3 1.51798e-16 0)
(3 1.15995e-16 0)
(3 -2.92127e-16 0)
(3 -9.19032e-17 0)
(3 1.94866e-17 0)
(3 -1.86003e-16 0)
(3 -6.52494e-16 0)
(3 -2.19108e-16 0)
(3 -3.77514e-17 0)
(3 1.47373e-16 0)
(3 1.94632e-16 0)
(3 -7.04149e-17 0)
(3 -5.56353e-16 0)
(3 -8.39021e-16 0)
(3 -7.1321e-16 0)
(3 -5.15467e-16 0)
(3 -4.43272e-16 0)
(3 -3.89488e-16 0)
(3 2.24876e-16 0)
(3 1.1563e-15 0)
(2.1779 0.0254187 0)
(0.841945 0.0311078 0)
(0.713985 0.0350852 0)
(0.670661 0.0255202 0)
(0.627759 0.0164537 0)
(0.593072 0.00930983 0)
(0.567798 0.0212454 0)
(0.53104 0.0470734 0)
(0.483679 0.0697909 0)
(0.421385 0.0706987 0)
(0.363069 0.0379566 0)
(0.338819 -0.000812031 0)
(0.343671 0.0234462 0)
(0.317577 0.0615812 0)
(0.265266 0.121636 0)
(0.176146 0.105255 0)
(0.11521 0.0318453 0)
(0.0727925 -0.00168066 0)
(0.0519145 0.00196031 0)
(0.0407444 0.0423729 0)
(3 -7.54332e-16 0)
(3 -5.12535e-16 0)
(3 -1.47957e-16 0)
(3 2.05171e-17 0)
(3 -6.87163e-16 0)
(3 -3.09847e-16 0)
(3 -3.58317e-18 0)
(3 -1.17921e-16 0)
(3 2.15181e-16 0)
(3 -2.20994e-16 0)
(3 3.06262e-16 0)
(3 -4.02869e-17 0)
(3 -2.86054e-16 0)
(3 -1.06238e-15 0)
(3 -1.51571e-15 0)
(3 -8.79303e-16 0)
(3 -6.82796e-17 0)
(3 -7.15593e-16 0)
(3 9.9961e-17 0)
(3 1.24522e-15 0)
(2.19108 0.0324721 0)
(0.842978 0.0363848 0)
(0.71138 0.0315347 0)
(0.669067 0.0354247 0)
(0.62668 0.0410605 0)
(0.592452 0.0531834 0)
(0.566271 0.046353 0)
(0.533489 0.0282998 0)
(0.488906 0.0162171 0)
(0.426743 0.0303975 0)
(0.363166 0.0621855 0)
(0.339998 0.0807543 0)
(0.338985 0.0626787 0)
(0.319417 0.0194933 0)
(0.271207 -0.0312757 0)
(0.179058 -0.0119778 0)
(0.104536 0.0295212 0)
(0.0755535 0.0401893 0)
(0.0577945 0.0335965 0)
(0.0429119 0.00856644 0)
(3 -4.32702e-16 0)
(3 -9.21729e-16 0)
(3 5.71438e-16 0)
(3 -7.85105e-18 0)
(3 -5.8519e-16 0)
(3 -5.30258e-16 0)
(3 -1.27843e-16 0)
(3 5.54518e-16 0)
(3 1.10092e-16 0)
(3 3.70681e-17 0)
(3 1.58757e-16 0)
(3 -5.86409e-16 0)
(3 -5.22907e-16 0)
(3 -5.82197e-16 0)
(3 -8.91155e-16 0)
(3 -8.26379e-16 0)
(3 -1.70267e-17 0)
(3 9.23279e-17 0)
(3 2.71914e-17 0)
(3 3.17393e-16 0)
(2.21575 0.0434902 0)
(0.841442 0.0482136 0)
(0.711561 0.0255987 0)
(0.677738 0.0410089 0)
(0.636295 0.0651181 0)
(0.597138 0.0790474 0)
(0.557562 0.0758303 0)
(0.519096 0.0346686 0)
(0.477478 -0.017745 0)
(0.433795 -0.0247759 0)
(0.395191 0.0481352 0)
(0.358837 0.151833 0)
(0.325704 0.15134 0)
(0.282166 0.0518131 0)
(0.232686 -0.0970051 0)
(0.184096 -0.133661 0)
(0.146382 -0.0472543 0)
(0.0967547 0.0599603 0)
(0.0565906 0.103526 0)
(0.0351723 0.110995 0)
(3 -6.76033e-17 0)
(3 -4.52289e-16 0)
(3 2.28052e-17 0)
(3 -2.30854e-16 0)
(3 -2.89436e-16 0)
(3 -7.28462e-16 0)
(3 -5.78778e-16 0)
(3 1.89809e-17 0)
(3 -3.85167e-16 0)
(3 -2.32543e-16 0)
(3 -4.88038e-16 0)
(3 -3.58725e-16 0)
(3 -5.03869e-16 0)
(3 -8.09964e-16 0)
(3 -5.78628e-16 0)
(3 -5.1592e-17 0)
(3 -2.3708e-16 0)
(3 2.66323e-16 0)
(3 5.09637e-16 0)
(3 3.52272e-16 0)
(2.24035 0.0506256 0)
(0.834376 0.0519819 0)
(0.716192 0.0517621 0)
(0.682623 0.0679649 0)
(0.642229 0.0763957 0)
(0.59894 0.0828726 0)
(0.550524 0.0705641 0)
(0.498121 0.0417594 0)
(0.461214 0.0157993 0)
(0.443735 0.0298428 0)
(0.41906 0.0785407 0)
(0.384201 0.123785 0)
(0.306807 0.114003 0)
(0.233341 0.01698 0)
(0.196653 -0.04757 0)
(0.201611 -0.0232762 0)
(0.185892 0.0867841 0)
(0.117896 0.137346 0)
(0.0647873 0.155878 0)
(0.0252619 0.0986541 0)
(3 -1.72249e-16 0)
(3 2.9077e-16 0)
(3 -1.50214e-16 0)
(3 -1.72338e-16 0)
(3 -1.14093e-16 0)
(3 -2.72289e-16 0)
(3 1.15373e-16 0)
(3 -1.39323e-16 0)
(3 -9.88527e-16 0)
(3 -1.18124e-15 0)
(3 -1.14369e-15 0)
(3 -8.9737e-17 0)
(3 -8.19509e-16 0)
(3 -1.03711e-15 0)
(3 -3.84684e-16 0)
(3 8.31721e-16 0)
(3 1.04709e-15 0)
(3 9.76603e-16 0)
(3 7.22596e-16 0)
(3 6.33074e-16 0)
(2.26188 0.0611603 0)
(0.839962 0.0671817 0)
(0.717591 0.0875142 0)
(0.683836 0.0777081 0)
(0.642347 0.0715441 0)
(0.59825 0.063616 0)
(0.546872 0.0647416 0)
(0.495555 0.0757049 0)
(0.467742 0.0969138 0)
(0.450569 0.0999649 0)
(0.4267 0.0825569 0)
(0.381799 0.0587712 0)
(0.294308 0.0596524 0)
(0.220689 0.0865937 0)
(0.196055 0.123348 0)
(0.215915 0.148156 0)
(0.191403 0.13809 0)
(0.133666 0.142515 0)
(0.0446188 0.131165 0)
(0.0178689 0.13956 0)
(3 -1.1337e-16 0)
(3 3.30925e-16 0)
(3 -1.3743e-16 0)
(3 2.26844e-16 0)
(3 3.59369e-16 0)
(3 6.63863e-16 0)
(3 6.96956e-16 0)
(3 -6.65315e-17 0)
(3 -2.25903e-16 0)
(3 -9.84339e-16 0)
(3 4.02957e-16 0)
(3 -4.23976e-16 0)
(3 -2.61283e-16 0)
(3 -5.11591e-16 0)
(3 2.32312e-16 0)
(3 4.37389e-16 0)
(3 9.93335e-16 0)
(3 1.12759e-15 0)
(3 4.51232e-16 0)
(3 2.92555e-16 0)
(2.28326 0.0734311 0)
(0.853919 0.0905515 0)
(0.717811 0.107949 0)
(0.680834 0.0986327 0)
(0.63779 0.074748 0)
(0.597126 0.054049 0)
(0.554693 0.0603646 0)
(0.515079 0.111757 0)
(0.479942 0.162187 0)
(0.442161 0.172853 0)
(0.405244 0.100734 0)
(0.364173 0.0151521 0)
(0.314697 -0.00633043 0)
(0.260403 0.134828 0)
(0.243958 0.274522 0)
(0.217271 0.316423 0)
(0.176815 0.241239 0)
(0.114738 0.126787 0)
(0.0555868 0.0890406 0)
(0.0385211 0.109578 0)
(3 3.33536e-16 0)
(3 4.88527e-16 0)
(3 -1.17456e-16 0)
(3 5.41066e-16 0)
(3 7.31248e-17 0)
(3 9.95029e-16 0)
(3 1.24165e-15 0)
(3 6.82822e-16 0)
(3 5.68769e-16 0)
(3 7.92888e-16 0)
(3 5.08782e-16 0)
(3 -3.53668e-16 0)
(3 4.64752e-17 0)
(3 5.50151e-16 0)
(3 5.69278e-16 0)
(3 5.25319e-16 0)
(3 3.76629e-16 0)
(3 1.50568e-16 0)
(3 -4.07214e-16 0)
(3 1.04901e-16 0)
(2.31773 0.0869499 0)
(0.86446 0.1082 0)
(0.719209 0.107289 0)
(0.676937 0.0880355 0)
(0.630181 0.0791567 0)
(0.594942 0.0731663 0)
(0.569404 0.0947791 0)
(0.532922 0.126884 0)
(0.489608 0.162416 0)
(0.432976 0.164213 0)
(0.369951 0.118268 0)
(0.343347 0.0498616 0)
(0.344619 0.0647546 0)
(0.321897 0.151286 0)
(0.268666 0.267158 0)
(0.207135 0.292263 0)
(0.132568 0.143636 0)
(0.089 0.0606057 0)
(0.0484089 0.0370007 0)
(0.0422772 0.0828469 0)
(3 7.5941e-17 0)
(3 2.2644e-16 0)
(3 8.98307e-16 0)
(3 -1.68106e-16 0)
(3 1.4299e-16 0)
(3 1.03393e-15 0)
(3 8.29185e-16 0)
(3 2.77134e-16 0)
(3 5.69275e-16 0)
(3 8.18262e-16 0)
(3 1.37066e-16 0)
(3 1.95755e-16 0)
(3 6.54616e-16 0)
(3 6.86155e-16 0)
(3 8.77689e-16 0)
(3 7.65458e-16 0)
(3 1.36652e-16 0)
(3 1.40511e-16 0)
(3 2.08634e-16 0)
(3 5.45426e-16 0)
(2.36627 0.0891011 0)
(0.86999 0.115241 0)
(0.715181 0.0962358 0)
(0.675579 0.0913815 0)
(0.635701 0.0972213 0)
(0.602614 0.119854 0)
(0.571295 0.11689 0)
(0.537192 0.110574 0)
(0.497589 0.105592 0)
(0.434561 0.106616 0)
(0.367457 0.136548 0)
(0.337754 0.153313 0)
(0.341136 0.159067 0)
(0.337877 0.144783 0)
(0.293678 0.118806 0)
(0.173851 0.0934818 0)
(0.104166 0.0829303 0)
(0.0866163 0.0740929 0)
(0.0623867 0.0728459 0)
(0.0446233 0.0875123 0)
(3 -1.76447e-16 0)
(3 -3.57453e-16 0)
(3 4.60799e-16 0)
(3 -1.6663e-17 0)
(3 2.09963e-16 0)
(3 3.31523e-17 0)
(3 -7.30206e-17 0)
(3 7.15918e-17 0)
(3 1.54456e-16 0)
(3 -3.89559e-16 0)
(3 -2.24494e-16 0)
(3 6.04512e-16 0)
(3 1.11934e-15 0)
(3 1.19615e-15 0)
(3 1.17945e-15 0)
(3 9.68484e-16 0)
(3 7.01754e-16 0)
(3 1.38714e-16 0)
(3 1.11136e-15 0)
(3 2.04979e-16 0)
(2.41339 0.089661 0)
(0.874591 0.11398 0)
(0.712706 0.0978509 0)
(0.683572 0.107783 0)
(0.646681 0.134576 0)
(0.60603 0.144092 0)
(0.566571 0.138329 0)
(0.531828 0.110639 0)
(0.490311 0.0601614 0)
(0.443234 0.0526578 0)
(0.39921 0.122154 0)
(0.356593 0.231345 0)
(0.334914 0.241557 0)
(0.313022 0.147767 0)
(0.24821 -0.0114595 0)
(0.182563 -0.0734982 0)
(0.125884 0.0463866 0)
(0.102244 0.148739 0)
(0.0628441 0.202272 0)
(0.0449808 0.177796 0)
(3 1.32069e-16 0)
(3 2.4129e-16 0)
(3 2.17326e-16 0)
(3 -5.96108e-17 0)
(3 -1.05578e-17 0)
(3 -4.39344e-16 0)
(3 -5.55355e-16 0)
(3 1.04802e-16 0)
(3 1.73695e-16 0)
(3 2.43648e-16 0)
(3 -1.22515e-16 0)
(3 4.77434e-16 0)
(3 7.24868e-16 0)
(3 1.13541e-15 0)
(3 8.9886e-16 0)
(3 6.4075e-16 0)
(3 5.23317e-16 0)
(3 1.45992e-15 0)
(3 1.24184e-15 0)
(3 -4.20395e-16 0)
(2.4602 0.0902414 0)
(0.872881 0.11365 0)
(0.72118 0.123786 0)
(0.691395 0.143453 0)
(0.653025 0.143573 0)
(0.611231 0.14283 0)
(0.566154 0.133218 0)
(0.520148 0.104195 0)
(0.479347 0.0880534 0)
(0.453457 0.110671 0)
(0.427545 0.158378 0)
(0.3899 0.230888 0)
(0.324105 0.236241 0)
(0.255346 0.107984 0)
(0.22395 -0.0136138 0)
(0.207511 0.00411734 0)
(0.192879 0.139804 0)
(0.128345 0.248545 0)
(0.0670338 0.293041 0)
(0.0352446 0.271435 0)
(3 1.44659e-17 0)
(3 1.00964e-16 0)
(3 -2.16296e-16 0)
(3 -6.2432e-17 0)
(3 -1.68444e-16 0)
(3 -3.22569e-17 0)
(3 -4.689e-16 0)
(3 -6.71547e-16 0)
(3 2.63029e-17 0)
(3 3.28984e-17 0)
(3 5.26031e-16 0)
(3 4.50318e-16 0)
(3 5.39416e-17 0)
(3 4.53359e-16 0)
(3 7.05288e-16 0)
(3 8.71951e-16 0)
(3 7.07156e-16 0)
(3 1.39757e-15 0)
(3 1.4612e-15 0)
(3 6.402e-16 0)
(2.49714 0.100925 0)
(0.887807 0.138566 0)
(0.729605 0.165559 0)
(0.694322 0.159068 0)
(0.652755 0.148595 0)
(0.611032 0.128722 0)
(0.565181 0.125234 0)
(0.517619 0.139947 0)
(0.488835 0.166808 0)
(0.46784 0.176561 0)
(0.441077 0.169372 0)
(0.394206 0.141556 0)
(0.303266 0.131603 0)
(0.228813 0.124263 0)
(0.202433 0.13521 0)
(0.212538 0.161079 0)
(0.230686 0.237335 0)
(0.148905 0.295708 0)
(0.0619221 0.27727 0)
(0.0409637 0.26182 0)
(3 1.70715e-16 0)
(3 3.68643e-17 0)
(3 -8.57712e-17 0)
(3 -9.8345e-17 0)
(3 -2.83401e-16 0)
(3 -1.70486e-16 0)
(3 1.22847e-16 0)
(3 -4.49062e-16 0)
(3 3.9956e-18 0)
(3 -2.55411e-16 0)
(3 1.92888e-16 0)
(3 1.10288e-15 0)
(3 6.15814e-16 0)
(3 2.55018e-16 0)
(3 1.17823e-16 0)
(3 1.25663e-15 0)
(3 1.6461e-15 0)
(3 3.55532e-16 0)
(3 6.58857e-16 0)
(3 6.1484e-16 0)
(2.54117 0.119958 0)
(0.907401 0.173309 0)
(0.729967 0.180092 0)
(0.696359 0.1604 0)
(0.651453 0.135474 0)
(0.610835 0.125182 0)
(0.574674 0.128835 0)
(0.539489 0.177591 0)
(0.500894 0.221014 0)
(0.459142 0.227136 0)
(0.424248 0.16933 0)
(0.386802 0.0901162 0)
(0.327144 0.0823098 0)
(0.256285 0.192049 0)
(0.239445 0.308002 0)
(0.226452 0.334523 0)
(0.236026 0.234921 0)
(0.148285 0.148129 0)
(0.0631779 0.178084 0)
(0.0386815 0.213564 0)
(3 1.49903e-16 0)
(3 1.7188e-16 0)
(3 -2.58015e-16 0)
(3 -2.39342e-16 0)
(3 2.58624e-16 0)
(3 3.96275e-17 0)
(3 -5.49314e-18 0)
(3 3.94626e-16 0)
(3 -2.30217e-16 0)
(3 -2.78632e-16 0)
(3 4.29426e-16 0)
(3 3.59598e-16 0)
(3 1.13595e-16 0)
(3 4.67229e-17 0)
(3 5.33714e-16 0)
(3 1.37896e-15 0)
(3 1.69204e-15 0)
(3 3.66163e-16 0)
(3 -2.18519e-16 0)
(3 -7.48061e-16 0)
(2.60293 0.121427 0)
(0.925477 0.191827 0)
(0.730578 0.17633 0)
(0.693395 0.142294 0)
(0.64979 0.136546 0)
(0.617424 0.138543 0)
(0.591785 0.182709 0)
(0.55611 0.204608 0)
(0.513046 0.224619 0)
(0.457223 0.211758 0)
(0.399147 0.170071 0)
(0.365541 0.119444 0)
(0.354544 0.141619 0)
(0.328475 0.279951 0)
(0.264515 0.41871 0)
(0.193477 0.421597 0)
(0.173416 0.24476 0)
(0.128748 0.0973196 0)
(0.0994509 0.130028 0)
(0.0532223 0.235033 0)
(3 -5.97904e-17 0)
(3 -2.89601e-16 0)
(3 -8.49161e-16 0)
(3 -3.66579e-16 0)
(3 4.23359e-16 0)
(3 2.23797e-16 0)
(3 -1.74251e-16 0)
(3 -1.67384e-16 0)
(3 -5.74397e-16 0)
(3 -2.89665e-16 0)
(3 1.76838e-16 0)
(3 -5.40358e-19 0)
(3 -3.38064e-16 0)
(3 -3.1136e-16 0)
(3 1.01767e-15 0)
(3 1.88642e-15 0)
(3 1.29332e-15 0)
(3 5.75727e-16 0)
(3 -3.95831e-16 0)
(3 3.89628e-16 0)
(2.66223 0.112549 0)
(0.939929 0.189012 0)
(0.723815 0.162486 0)
(0.69286 0.145749 0)
(0.660475 0.150267 0)
(0.634086 0.194523 0)
(0.602269 0.203206 0)
(0.559945 0.20162 0)
(0.515171 0.1818 0)
(0.458737 0.170147 0)
(0.399324 0.192061 0)
(0.372457 0.227246 0)
(0.373105 0.244621 0)
(0.356857 0.266381 0)
(0.286334 0.290817 0)
(0.175779 0.293517 0)
(0.119555 0.203163 0)
(0.113689 0.144766 0)
(0.130505 0.154786 0)
(0.0561913 0.139946 0)
(3 3.60362e-17 0)
(3 -2.45732e-16 0)
(3 1.35058e-16 0)
(3 1.16003e-15 0)
(3 6.31754e-16 0)
(3 1.5021e-16 0)
(3 -2.87186e-17 0)
(3 -6.76697e-16 0)
(3 -4.61032e-16 0)
(3 3.16992e-16 0)
(3 6.25231e-16 0)
(3 2.18029e-16 0)
(3 4.46088e-16 0)
(3 5.2186e-16 0)
(3 3.53056e-16 0)
(3 5.28137e-16 0)
(3 4.85682e-16 0)
(3 7.39831e-16 0)
(3 3.44884e-16 0)
(3 5.79953e-16 0)
(2.71336 0.103016 0)
(0.951165 0.182303 0)
(0.719466 0.164165 0)
(0.701278 0.168651 0)
(0.679882 0.204241 0)
(0.645 0.220455 0)
(0.601659 0.226809 0)
(0.554273 0.20117 0)
(0.506896 0.147626 0)
(0.465605 0.13949 0)
(0.435544 0.190848 0)
(0.397092 0.285557 0)
(0.375232 0.304905 0)
(0.356685 0.230381 0)
(0.263419 0.111759 0)
(0.174213 0.121923 0)
(0.125291 0.227491 0)
(0.108718 0.258796 0)
(0.119425 0.192312 0)
(0.0540478 0.111639 0)
(3 -3.49345e-16 0)
(3 -2.04586e-17 0)
(3 6.50863e-16 0)
(3 1.19168e-15 0)
(3 4.91016e-16 0)
(3 4.93844e-16 0)
(3 7.57401e-17 0)
(3 -7.84901e-17 0)
(3 -9.1602e-17 0)
(3 5.29154e-16 0)
(3 1.22178e-16 0)
(3 -2.45337e-16 0)
(3 -8.82989e-18 0)
(3 -2.33205e-17 0)
(3 -3.51479e-16 0)
(3 -7.11514e-16 0)
(3 -3.06333e-16 0)
(3 7.30218e-16 0)
(3 1.18149e-15 0)
(3 -2.45273e-16 0)
(2.77499 0.111217 0)
(0.955917 0.193095 0)
(0.733387 0.180395 0)
(0.721358 0.217872 0)
(0.687437 0.228736 0)
(0.650772 0.216295 0)
(0.602746 0.183624 0)
(0.548002 0.171042 0)
(0.498596 0.177852 0)
(0.475781 0.198704 0)
(0.458101 0.253399 0)
(0.42367 0.288462 0)
(0.362081 0.282716 0)
(0.299644 0.12945 0)
(0.270653 0.0377387 0)
(0.228626 0.106538 0)
(0.165362 0.266859 0)
(0.103118 0.314985 0)
(0.0687394 0.208989 0)
(0.0493187 0.102872 0)
(3 -2.97827e-16 0)
(3 1.07491e-16 0)
(3 6.44407e-16 0)
(3 5.22387e-16 0)
(3 3.79324e-16 0)
(3 8.52436e-16 0)
(3 2.78103e-16 0)
(3 1.73359e-16 0)
(3 1.04534e-15 0)
(3 -2.63541e-17 0)
(3 -1.2781e-15 0)
(3 -1.07764e-15 0)
(3 -9.07393e-16 0)
(3 -7.55658e-16 0)
(3 -3.17712e-17 0)
(3 -5.72785e-16 0)
(3 -7.76677e-16 0)
(3 9.933e-17 0)
(3 1.23082e-15 0)
(3 -1.03897e-15 0)
(2.83479 0.121831 0)
(0.986657 0.230498 0)
(0.760255 0.228558 0)
(0.738871 0.226213 0)
(0.697372 0.225031 0)
(0.646051 0.188041 0)
(0.59939 0.157528 0)
(0.560098 0.155105 0)
(0.526033 0.219826 0)
(0.503229 0.287597 0)
(0.464293 0.293331 0)
(0.428149 0.234883 0)
(0.32896 0.153238 0)
(0.269179 0.122673 0)
(0.24187 0.13011 0)
(0.242565 0.151625 0)
(0.191377 0.261099 0)
(0.107241 0.323961 0)
(0.0247828 0.252883 0)
(0.042022 0.161919 0)
(3 3.62754e-16 0)
(3 1.38163e-16 0)
(3 2.17961e-16 0)
(3 -5.61549e-16 0)
(3 -1.08477e-16 0)
(3 -2.42437e-16 0)
(3 -1.01998e-16 0)
(3 1.75545e-16 0)
(3 7.71787e-16 0)
(3 -2.1757e-16 0)
(3 -8.74124e-16 0)
(3 -1.44432e-15 0)
(3 -1.14456e-15 0)
(3 -1.21644e-15 0)
(3 -3.86313e-16 0)
(3 -3.23117e-16 0)
(3 -4.92659e-16 0)
(3 2.19817e-17 0)
(3 -4.62532e-17 0)
(3 -9.39218e-16 0)
(2.92833 0.0934019 0)
(1.03521 0.264325 0)
(0.779788 0.236664 0)
(0.753564 0.225788 0)
(0.698223 0.194856 0)
(0.644787 0.17678 0)
(0.602353 0.174833 0)
(0.584618 0.225305 0)
(0.560049 0.286112 0)
(0.508988 0.319171 0)
(0.463524 0.274599 0)
(0.387055 0.166071 0)
(0.335767 0.103358 0)
(0.296484 0.134285 0)
(0.270883 0.204286 0)
(0.272892 0.228638 0)
(0.226252 0.254041 0)
(0.12516 0.288624 0)
(0.0156399 0.370903 0)
(0.0476266 0.397762 0)
(3 2.44309e-16 0)
(3 2.1942e-16 0)
(3 -6.91484e-19 0)
(3 -1.48627e-16 0)
(3 -2.10894e-16 0)
(3 -5.47725e-16 0)
(3 -1.75758e-16 0)
(3 1.03599e-15 0)
(3 8.65436e-16 0)
(3 3.59271e-16 0)
(3 -1.45613e-16 0)
(3 -9.43905e-16 0)
(3 -8.13701e-16 0)
(3 5.95947e-17 0)
(3 -1.13081e-16 0)
(3 -4.09827e-16 0)
(3 -1.56483e-15 0)
(3 -2.2654e-15 0)
(3 -1.89565e-15 0)
(3 -9.1037e-16 0)
(2.98257 0.0461528 0)
(1.07759 0.255834 0)
(0.789932 0.24014 0)
(0.759147 0.201646 0)
(0.704843 0.18114 0)
(0.660444 0.19454 0)
(0.63043 0.261055 0)
(0.603891 0.300113 0)
(0.567604 0.290114 0)
(0.522675 0.272169 0)
(0.42987 0.211697 0)
(0.369038 0.160169 0)
(0.342765 0.146256 0)
(0.332136 0.251303 0)
(0.278929 0.323848 0)
(0.262722 0.373146 0)
(0.208596 0.276252 0)
(0.153807 0.253286 0)
(0.0989228 0.439581 0)
(0.0642688 0.600234 0)
(3 -2.34723e-16 0)
(3 -2.50634e-16 0)
(3 3.99646e-16 0)
(3 -4.12831e-17 0)
(3 -1.0042e-15 0)
(3 -4.28114e-16 0)
(3 -1.0679e-16 0)
(3 2.78618e-16 0)
(3 4.00002e-16 0)
(3 3.30809e-16 0)
(3 5.57071e-17 0)
(3 7.1545e-17 0)
(3 2.91231e-16 0)
(3 6.16809e-16 0)
(3 2.23302e-16 0)
(3 -5.48429e-16 0)
(3 -2.06722e-15 0)
(3 -3.65833e-15 0)
(3 -3.55573e-15 0)
(3 -1.58536e-15 0)
(2.98195 0.0181846 0)
(1.09965 0.223211 0)
(0.791119 0.212602 0)
(0.757499 0.193834 0)
(0.716452 0.193123 0)
(0.693395 0.259479 0)
(0.660199 0.317514 0)
(0.60773 0.341604 0)
(0.561017 0.324164 0)
(0.50083 0.220051 0)
(0.440104 0.192485 0)
(0.382721 0.265823 0)
(0.388242 0.385168 0)
(0.367403 0.46431 0)
(0.299078 0.491364 0)
(0.237872 0.442718 0)
(0.184731 0.319427 0)
(0.171635 0.297225 0)
(0.166261 0.408233 0)
(0.0766423 0.505796 0)
(3 1.52865e-16 0)
(3 -4.26086e-16 0)
(3 -7.1882e-17 0)
(3 -6.31846e-16 0)
(3 -4.24941e-16 0)
(3 -1.1177e-15 0)
(3 -5.08424e-16 0)
(3 -7.872e-16 0)
(3 -8.24103e-16 0)
(3 -4.86649e-16 0)
(3 4.18762e-17 0)
(3 9.647e-16 0)
(3 1.14493e-15 0)
(3 1.05953e-15 0)
(3 1.01937e-15 0)
(3 2.26074e-16 0)
(3 -1.23389e-15 0)
(3 -3.38466e-15 0)
(3 -2.32512e-15 0)
(3 -8.1736e-16 0)
(2.9751 0.0176394 0)
(1.10748 0.213425 0)
(0.778291 0.203714 0)
(0.762307 0.212811 0)
(0.741158 0.27037 0)
(0.715516 0.299206 0)
(0.675476 0.308632 0)
(0.627617 0.307529 0)
(0.546494 0.24691 0)
(0.489521 0.225525 0)
(0.455844 0.241187 0)
(0.45419 0.381623 0)
(0.430462 0.514735 0)
(0.374586 0.58043 0)
(0.287913 0.562349 0)
(0.197833 0.432509 0)
(0.183242 0.383099 0)
(0.161885 0.373429 0)
(0.185698 0.315841 0)
(0.0702106 0.227087 0)
(3 2.75888e-16 0)
(3 -1.79637e-16 0)
(3 -6.85549e-16 0)
(3 -3.04833e-16 0)
(3 -1.00724e-16 0)
(3 6.61988e-17 0)
(3 -5.93437e-17 0)
(3 -1.19481e-16 0)
(3 -3.39083e-16 0)
(3 -2.9263e-16 0)
(3 1.33936e-16 0)
(3 4.54974e-16 0)
(3 6.54613e-16 0)
(3 2.48199e-16 0)
(3 2.36139e-16 0)
(3 1.03266e-15 0)
(3 1.05112e-15 0)
(3 -2.6753e-16 0)
(3 -1.11371e-15 0)
(3 -1.1417e-15 0)
(2.98623 0.018055 0)
(1.11993 0.22522 0)
(0.774583 0.21706 0)
(0.773649 0.275399 0)
(0.747395 0.310706 0)
(0.718364 0.315138 0)
(0.681198 0.296249 0)
(0.610963 0.23092 0)
(0.550598 0.216438 0)
(0.512477 0.245809 0)
(0.50881 0.346509 0)
(0.492963 0.418025 0)
(0.470942 0.50725 0)
(0.375803 0.443474 0)
(0.270743 0.341803 0)
(0.193904 0.352707 0)
(0.190143 0.369189 0)
(0.159215 0.377676 0)
(0.1245 0.273879 0)
(0.059087 0.161864 0)
(3 -8.52952e-17 0)
(3 -6.17695e-17 0)
(3 -6.85688e-16 0)
(3 1.61134e-16 0)
(3 1.20095e-16 0)
(3 1.07551e-15 0)
(3 6.45345e-16 0)
(3 -1.57453e-16 0)
(3 -4.87154e-16 0)
(3 -9.1834e-18 0)
(3 6.13136e-17 0)
(3 8.29152e-17 0)
(3 1.60468e-15 0)
(3 4.84853e-16 0)
(3 3.33728e-16 0)
(3 1.74178e-15 0)
(3 3.04832e-15 0)
(3 1.38e-15 0)
(3 -7.29805e-16 0)
(3 -1.68246e-15 0)
(3.00148 0.0046027 0)
(1.14249 0.254087 0)
(0.780953 0.259804 0)
(0.77554 0.290708 0)
(0.750276 0.313427 0)
(0.718295 0.318125 0)
(0.660096 0.258711 0)
(0.611555 0.216704 0)
(0.568976 0.222302 0)
(0.556883 0.320813 0)
(0.528567 0.391435 0)
(0.509662 0.371439 0)
(0.441076 0.219485 0)
(0.340823 0.102177 0)
(0.277063 0.141061 0)
(0.212868 0.249878 0)
(0.207786 0.355842 0)
(0.151312 0.327276 0)
(0.105225 0.256382 0)
(0.0527791 0.200266 0)
(3 -4.33686e-16 0)
(3 -4.11769e-16 0)
(3 -8.05212e-16 0)
(3 -1.94561e-16 0)
(3 7.03547e-16 0)
(3 2.99215e-16 0)
(3 8.07971e-17 0)
(3 1.74843e-16 0)
(3 -8.19234e-17 0)
(3 7.5592e-17 0)
(3 5.69031e-18 0)
(3 2.93343e-16 0)
(3 7.89389e-16 0)
(3 1.08836e-15 0)
(3 1.60775e-15 0)
(3 2.2544e-15 0)
(3 3.25248e-15 0)
(3 2.6203e-15 0)
(3 -1.66959e-16 0)
(3 -1.89813e-15 0)
(3.0004 0.000116617 0)
(1.18529 0.276185 0)
(0.782714 0.275415 0)
(0.772843 0.287946 0)
(0.747413 0.283508 0)
(0.699102 0.257397 0)
(0.651526 0.250853 0)
(0.609324 0.262226 0)
(0.604686 0.346527 0)
(0.581901 0.396367 0)
(0.542744 0.380422 0)
(0.481424 0.294303 0)
(0.387606 0.0806408 0)
(0.354501 0.00694313 0)
(0.309723 0.072746 0)
(0.266168 0.228212 0)
(0.218244 0.351214 0)
(0.138442 0.341634 0)
(0.0733878 0.216349 0)
(0.0567834 0.148565 0)
(3 -6.83449e-17 0)
(3 -5.02559e-16 0)
(3 -1.88146e-16 0)
(3 -2.63769e-17 0)
(3 5.43635e-16 0)
(3 -4.60365e-17 0)
(3 -2.16957e-16 0)
(3 3.86572e-16 0)
(3 4.78105e-17 0)
(3 -6.22844e-16 0)
(3 -2.17692e-16 0)
(3 5.38317e-16 0)
(3 3.03774e-17 0)
(3 5.52124e-16 0)
(3 1.48052e-15 0)
(3 2.71489e-15 0)
(3 2.56363e-15 0)
(3 2.78826e-15 0)
(3 7.68783e-16 0)
(3 -4.81128e-16 0)
(3.00006 -2.50931e-05 0)
(1.23956 0.278957 0)
(0.787716 0.268667 0)
(0.758021 0.266809 0)
(0.724063 0.248427 0)
(0.692606 0.236659 0)
(0.657664 0.249335 0)
(0.644772 0.352854 0)
(0.626557 0.424975 0)
(0.583605 0.437547 0)
(0.532192 0.400802 0)
(0.419206 0.230021 0)
(0.350645 0.131838 0)
(0.342605 0.093573 0)
(0.324659 0.104543 0)
(0.339096 0.206725 0)
(0.252905 0.375201 0)
(0.118903 0.394317 0)
(0.0193516 0.281695 0)
(0.0562618 0.214074 0)
(3 3.32534e-16 0)
(3 2.36167e-16 0)
(3 4.88861e-16 0)
(3 1.06103e-15 0)
(3 6.96144e-16 0)
(3 -1.46603e-16 0)
(3 -5.15626e-16 0)
(3 -5.49211e-16 0)
(3 -9.76396e-17 0)
(3 1.67315e-16 0)
(3 -1.05661e-17 0)
(3 6.03265e-16 0)
(3 4.77324e-16 0)
(3 2.21457e-16 0)
(3 1.09453e-15 0)
(3 2.05941e-15 0)
(3 1.51199e-15 0)
(3 1.7688e-15 0)
(3 9.01475e-16 0)
(3 1.63231e-16 0)
(3.00001 -8.79169e-06 0)
(1.29533 0.274406 0)
(0.786157 0.246953 0)
(0.744579 0.249112 0)
(0.712479 0.25462 0)
(0.684088 0.260036 0)
(0.683064 0.349506 0)
(0.667367 0.404335 0)
(0.643365 0.418619 0)
(0.600393 0.408619 0)
(0.496089 0.291722 0)
(0.410826 0.266376 0)
(0.356882 0.27404 0)
(0.381136 0.371186 0)
(0.351103 0.419408 0)
(0.355352 0.457449 0)
(0.264821 0.396111 0)
(0.149936 0.422385 0)
(0.0249591 0.556773 0)
(0.0753154 0.629418 0)
(3 -1.04598e-17 0)
(3 7.46614e-16 0)
(3 6.38578e-16 0)
(3 6.43576e-16 0)
(3 4.00459e-16 0)
(3 4.34184e-16 0)
(3 4.50976e-16 0)
(3 4.24865e-16 0)
(3 5.39585e-16 0)
(3 3.36159e-16 0)
(3 5.1485e-16 0)
(3 9.09997e-16 0)
(3 5.58794e-16 0)
(3 2.33452e-16 0)
(3 8.79172e-17 0)
(3 -8.9313e-16 0)
(3 5.62915e-17 0)
(3 1.11049e-15 0)
(3 8.97167e-16 0)
(3 9.61697e-16 0)
(3 2.74673e-07 0)
(1.35899 0.280668 0)
(0.78146 0.247384 0)
(0.737395 0.252064 0)
(0.712023 0.272401 0)
(0.70345 0.3481 0)
(0.691472 0.388521 0)
(0.67338 0.403097 0)
(0.645947 0.39406 0)
(0.566796 0.283196 0)
(0.497419 0.269824 0)
(0.445165 0.302516 0)
(0.447729 0.538338 0)
(0.415228 0.702591 0)
(0.338683 0.741004 0)
(0.301304 0.636767 0)
(0.240443 0.433955 0)
(0.193705 0.472047 0)
(0.152477 0.731852 0)
(0.0906379 0.899071 0)
(3 -6.59538e-17 0)
(3 5.5048e-16 0)
(3 3.70826e-16 0)
(3 -1.26855e-16 0)
(3 2.10985e-16 0)
(3 5.42109e-16 0)
(3 3.99897e-16 0)
(3 2.99281e-16 0)
(3 -1.97764e-16 0)
(3 2.80025e-16 0)
(3 1.09191e-15 0)
(3 1.28683e-15 0)
(3 7.55718e-16 0)
(3 -1.00062e-16 0)
(3 1.32378e-16 0)
(3 -1.31537e-15 0)
(3 -4.53357e-16 0)
(3 -2.46986e-16 0)
(3 6.41598e-16 0)
(3 1.94734e-16 0)
(3 -1.3736e-06 0)
(1.43696 0.301806 0)
(0.778958 0.264173 0)
(0.74091 0.283131 0)
(0.72239 0.336491 0)
(0.70556 0.383094 0)
(0.68744 0.413646 0)
(0.663889 0.409958 0)
(0.610043 0.309329 0)
(0.562851 0.273489 0)
(0.516419 0.29343 0)
(0.521494 0.474681 0)
(0.508641 0.598065 0)
(0.456061 0.69469 0)
(0.362581 0.744111 0)
(0.24837 0.65591 0)
(0.232704 0.508356 0)
(0.238392 0.543897 0)
(0.239558 0.731997 0)
(0.108062 0.873178 0)
(3 1.71338e-16 0)
(3 1.0204e-16 0)
(3 6.12777e-16 0)
(3 5.6802e-16 0)
(3 3.97935e-16 0)
(3 -2.92621e-16 0)
(3 1.69543e-16 0)
(3 -3.11588e-17 0)
(3 -4.4776e-17 0)
(3 1.18588e-15 0)
(3 1.25932e-15 0)
(3 6.83337e-16 0)
(3 3.95663e-16 0)
(3 6.88245e-16 0)
(3 4.34511e-16 0)
(3 -5.44892e-16 0)
(3 -1.06006e-15 0)
(3 -1.8028e-15 0)
(3 -1.08036e-15 0)
(3 -5.08465e-16 0)
(3 -1.4645e-06 0)
(1.5212 0.33651 0)
(0.794345 0.30407 0)
(0.742937 0.334232 0)
(0.724997 0.34751 0)
(0.712719 0.36175 0)
(0.690898 0.365733 0)
(0.63103 0.31264 0)
(0.591677 0.299801 0)
(0.566198 0.297148 0)
(0.573509 0.431911 0)
(0.577338 0.540085 0)
(0.544612 0.628661 0)
(0.482173 0.638675 0)
(0.343462 0.516944 0)
(0.22446 0.484661 0)
(0.251661 0.532911 0)
(0.249152 0.572722 0)
(0.26405 0.567534 0)
(0.0799055 0.377922 0)
(3 -4.25558e-17 0)
(3 -5.12258e-16 0)
(3 -3.70821e-18 0)
(3 5.96434e-16 0)
(3 5.99549e-16 0)
(3 -1.54209e-16 0)
(3 -8.98145e-17 0)
(3 9.85475e-17 0)
(3 9.61808e-16 0)
(3 7.00272e-16 0)
(3 8.53035e-16 0)
(3 4.99672e-16 0)
(3 3.2045e-16 0)
(3 1.63307e-16 0)
(3 1.07435e-16 0)
(3 -9.62601e-16 0)
(3 -1.73623e-15 0)
(3 -1.53795e-15 0)
(3 -1.81966e-15 0)
(3 -4.59883e-16 0)
(3 -7.68079e-07 0)
(1.62544 0.353747 0)
(0.811923 0.341638 0)
(0.74338 0.353631 0)
(0.717686 0.351492 0)
(0.69713 0.321879 0)
(0.661326 0.274618 0)
(0.624268 0.287175 0)
(0.599765 0.309391 0)
(0.608435 0.441636 0)
(0.602113 0.498735 0)
(0.602194 0.533312 0)
(0.546383 0.457965 0)
(0.41256 0.221962 0)
(0.356189 0.217986 0)
(0.307833 0.336045 0)
(0.280602 0.513611 0)
(0.246605 0.518916 0)
(0.168907 0.337699 0)
(0.0652272 0.208779 0)
(3 -3.01584e-17 0)
(3 -2.68399e-16 0)
(3 -3.43192e-16 0)
(3 1.7703e-17 0)
(3 2.24144e-16 0)
(3 3.08495e-16 0)
(3 6.69612e-16 0)
(3 1.04644e-15 0)
(3 8.82395e-16 0)
(3 1.69498e-16 0)
(3 6.12114e-16 0)
(3 8.85596e-16 0)
(3 6.75522e-16 0)
(3 5.15861e-16 0)
(3 -6.57306e-16 0)
(3 -2.52053e-15 0)
(3 -2.19619e-15 0)
(3 -1.06582e-15 0)
(3 -1.37741e-15 0)
(3 -5.48576e-16 0)
(3 -8.89418e-08 0)
(1.74118 0.356609 0)
(0.831336 0.352353 0)
(0.744174 0.340371 0)
(0.705776 0.308178 0)
(0.677117 0.282927 0)
(0.653471 0.280889 0)
(0.625355 0.313609 0)
(0.635239 0.441464 0)
(0.626411 0.495776 0)
(0.610831 0.49041 0)
(0.597684 0.426418 0)
(0.477801 0.205854 0)
(0.422643 0.169038 0)
(0.364231 0.218002 0)
(0.328385 0.328339 0)
(0.316811 0.461376 0)
(0.231064 0.46479 0)
(0.122136 0.328813 0)
(0.0684561 0.247887 0)
(3 -5.71326e-17 0)
(3 5.02082e-16 0)
(3 3.55717e-16 0)
(3 4.0805e-16 0)
(3 3.809e-16 0)
(3 7.4599e-16 0)
(3 9.4271e-16 0)
(3 1.45307e-15 0)
(3 3.35765e-16 0)
(3 6.34508e-16 0)
(3 8.58708e-16 0)
(3 1.19478e-15 0)
(3 5.60752e-16 0)
(3 3.18737e-16 0)
(3 -1.26919e-15 0)
(3 -2.44706e-15 0)
(3 -2.27243e-15 0)
(3 -1.56842e-15 0)
(3 -1.88926e-15 0)
(3 -7.82191e-16 0)
(3 -3.70156e-08 0)
(1.87377 0.354462 0)
(0.845471 0.354825 0)
(0.738001 0.31222 0)
(0.698963 0.294416 0)
(0.67328 0.294249 0)
(0.653936 0.305423 0)
(0.662855 0.40466 0)
(0.653918 0.489645 0)
(0.625676 0.521668 0)
(0.601282 0.519998 0)
(0.522124 0.328762 0)
(0.462295 0.164483 0)
(0.442837 0.115142 0)
(0.407965 0.160127 0)
(0.406105 0.310611 0)
(0.34281 0.496847 0)
(0.227493 0.494198 0)
(0.0724844 0.341999 0)
(0.0751244 0.289984 0)
(3 -3.99318e-17 0)
(3 7.00847e-16 0)
(3 5.26789e-16 0)
(3 -8.30262e-17 0)
(3 3.94579e-16 0)
(3 4.26076e-16 0)
(3 3.21108e-16 0)
(3 1.68074e-16 0)
(3 -3.30678e-16 0)
(3 -7.52003e-16 0)
(3 2.86182e-16 0)
(3 1.29553e-15 0)
(3 8.88617e-16 0)
(3 3.41721e-16 0)
(3 -1.66069e-15 0)
(3 -1.5429e-15 0)
(3 -1.16634e-15 0)
(3 -2.19948e-15 0)
(3 -2.27442e-15 0)
(3 -9.17839e-16 0)
(3 -3.24046e-08 0)
(2.02199 0.348533 0)
(0.859267 0.361822 0)
(0.731597 0.309673 0)
(0.701372 0.291089 0)
(0.681077 0.314637 0)
(0.674028 0.411798 0)
(0.669653 0.446099 0)
(0.665673 0.466325 0)
(0.643729 0.478443 0)
(0.571363 0.402594 0)
(0.480491 0.326379 0)
(0.432805 0.297084 0)
(0.436779 0.27964 0)
(0.423051 0.346157 0)
(0.462174 0.488687 0)
(0.385932 0.5947 0)
(0.188919 0.545682 0)
(0.044967 0.404218 0)
(0.0793694 0.384935 0)
(3 1.69415e-16 0)
(3 -2.19228e-16 0)
(3 -1.81123e-16 0)
(3 -4.981e-16 0)
(3 -1.5039e-16 0)
(3 3.80997e-16 0)
(3 -3.09621e-16 0)
(3 -8.48612e-16 0)
(3 -7.30019e-16 0)
(3 -1.10524e-15 0)
(3 4.76252e-16 0)
(3 1.38804e-15 0)
(3 1.48733e-15 0)
(3 1.31136e-15 0)
(3 -7.77559e-16 0)
(3 -3.59138e-16 0)
(3 -1.59158e-16 0)
(3 -1.18387e-15 0)
(3 -1.39563e-15 0)
(3 -9.72409e-16 0)
(3 -2.51924e-08 0)
(2.17953 0.353067 0)
(0.868167 0.368136 0)
(0.732308 0.326312 0)
(0.715836 0.352711 0)
(0.706463 0.4029 0)
(0.688474 0.432969 0)
(0.672372 0.468743 0)
(0.657083 0.481479 0)
(0.604194 0.391301 0)
(0.551162 0.342716 0)
(0.492526 0.335381 0)
(0.484255 0.466176 0)
(0.500571 0.732743 0)
(0.442637 0.793587 0)
(0.448083 0.787708 0)
(0.35842 0.612408 0)
(0.201412 0.582617 0)
(0.0252398 0.647171 0)
(0.0997325 0.758497 0)
(3 8.07324e-17 0)
(3 -2.18987e-16 0)
(3 -3.57264e-16 0)
(3 3.83771e-17 0)
(3 -6.04883e-16 0)
(3 7.75044e-17 0)
(3 -4.66442e-16 0)
(3 -1.04606e-15 0)
(3 -9.07389e-16 0)
(3 -4.62334e-16 0)