/*--------------------------------*- C++ -*----------------------------------*\
  =========                 |
  \\      /  F ield         | OpenFOAM: The Open Source CFD Toolbox
   \\    /   O peration     | Website:  https://openfoam.org
    \\  /    A nd           | Version:  6.0
     \\/     M anipulation  |
\*---------------------------------------------------------------------------*/
FoamFile
{
    version     2.0;
    format      ascii;
    class       volScalarField;
    location    "2.5002577";
    object      rho;
}
// * * * * * * * * * * * * * * * * * * * * * * * * * * * * * * * * * * * * * //

dimensions      [1 -3 0 0 0 0 0];

internalField   nonuniform List<scalar> 
192000
(
1.39997
1.39997
1.39997
1.39997
1.39997
1.39997
1.39997
1.39997
1.39997
1.39997
1.39997
1.39997
1.39997
1.39997
1.39997
1.39997
1.39997
1.39997
1.39997
1.39997
1.93456
4.81776
5.45518
5.49644
5.55434
5.60303
5.64462
5.67954
5.7142
5.7548
5.79954
5.83923
5.86817
5.889
5.90708
5.92605
5.94119
5.94566
5.94069
5.93765
1.39997
1.39997
1.39997
1.39997
1.39997
1.39997
1.39997
1.39997
1.39997
1.39997
1.39997
1.39997
1.39997
1.39997
1.39997
1.39997
1.39997
1.39997
1.39997
1.39997
1.93367
4.80666
5.45046
5.49483
5.55368
5.60305
5.64641
5.68318
5.71746
5.75353
5.79309
5.83171
5.86404
5.88964
5.91105
5.92939
5.94128
5.94338
5.93877
5.9369
1.39997
1.39997
1.39997
1.39997
1.39997
1.39997
1.39997
1.39997
1.39997
1.39997
1.39997
1.39997
1.39997
1.39997
1.39997
1.39997
1.39997
1.39997
1.39997
1.39997
1.93006
4.78694
5.4395
5.48762
5.54902
5.60065
5.64701
5.68662
5.72092
5.75327
5.78681
5.82247
5.85722
5.88796
5.91421
5.93299
5.9417
5.9409
5.93634
5.93568
1.39997
1.39997
1.39997
1.39997
1.39997
1.39997
1.39997
1.39997
1.39997
1.39997
1.39997
1.39997
1.39997
1.39997
1.39997
1.39997
1.39997
1.39997
1.39997
1.39997
1.92263
4.76631
5.43004
5.48112
5.54471
5.59872
5.64748
5.68838
5.72198
5.75146
5.78088
5.81426
5.85134
5.88792
5.9176
5.93493
5.94051
5.93784
5.93358
5.93391
1.39997
1.39997
1.39997
1.39997
1.39997
1.39997
1.39997
1.39997
1.39997
1.39997
1.39997
1.39997
1.39997
1.39997
1.39997
1.39997
1.39997
1.39997
1.39997
1.39997
1.90944
4.75152
5.42668
5.47716
5.54174
5.59659
5.64562
5.68645
5.72008
5.74898
5.77793
5.81103
5.84922
5.88789
5.91792
5.93384
5.93787
5.93482
5.93093
5.93167
1.39997
1.39997
1.39997
1.39997
1.39997
1.39997
1.39997
1.39997
1.39997
1.39997
1.39997
1.39997
1.39997
1.39997
1.39997
1.39997
1.39997
1.39997
1.39997
1.39997
1.89364
4.74512
5.42886
5.47693
5.54078
5.59491
5.64237
5.68153
5.71491
5.7458
5.7781
5.81382
5.85194
5.88723
5.91434
5.92964
5.93427
5.93207
5.92843
5.92896
1.39997
1.39997
1.39997
1.39997
1.39997
1.39997
1.39997
1.39997
1.39997
1.39997
1.39997
1.39997
1.39997
1.39997
1.39997
1.39997
1.39997
1.39997
1.39997
1.39997
1.86847
4.73677
5.43548
5.48002
5.54172
5.59392
5.63912
5.6756
5.70814
5.74227
5.77986
5.81916
5.85592
5.88661
5.90916
5.92351
5.93016
5.92943
5.92573
5.9256
1.39997
1.39997
1.39997
1.39997
1.39997
1.39997
1.39997
1.39997
1.39997
1.39997
1.39997
1.39997
1.39997
1.39997
1.39997
1.39997
1.39997
1.39997
1.39997
1.39997
1.84306
4.72111
5.44543
5.48389
5.54251
5.59298
5.63687
5.67192
5.70344
5.73868
5.7803
5.82206
5.85707
5.88351
5.90291
5.9174
5.92618
5.92669
5.92245
5.92133
1.39997
1.39997
1.39997
1.39997
1.39997
1.39997
1.39997
1.39997
1.39997
1.39997
1.39997
1.39997
1.39997
1.39997
1.39997
1.39997
1.39997
1.39997
1.39997
1.39997
1.81527
4.69236
5.44976
5.4854
5.54211
5.59141
5.63523
5.67109
5.70299
5.7374
5.77813
5.81978
5.85402
5.87818
5.89674
5.91224
5.92224
5.92325
5.91817
5.91641
1.39997
1.39997
1.39997
1.39997
1.39997
1.39997
1.39997
1.39997
1.39997
1.39997
1.39997
1.39997
1.39997
1.39997
1.39997
1.39997
1.39997
1.39997
1.39997
1.39997
1.7868
4.66103
5.45137
5.48532
5.54103
5.58908
5.63337
5.67122
5.70509
5.739
5.77528
5.81207
5.84418
5.86957
5.89066
5.90797
5.91825
5.91881
5.91295
5.91118
1.39997
1.39997
1.39997
1.39997
1.39997
1.39997
1.39997
1.39997
1.39997
1.39997
1.39997
1.39997
1.39997
1.39997
1.39997
1.39997
1.39997
1.39997
1.39997
1.39997
1.7573
4.62652
5.45043
5.48208
5.53571
5.58293
5.62923
5.67067
5.7068
5.74004
5.77231
5.80394
5.83356
5.86092
5.88526
5.90395
5.91367
5.91307
5.90687
5.90601
1.39997
1.39997
1.39997
1.39997
1.39997
1.39997
1.39997
1.39997
1.39997
1.39997
1.39997
1.39997
1.39997
1.39997
1.39997
1.39997
1.39997
1.39997
1.39997
1.39997
1.72746
4.58401
5.44796
5.47844
5.53104
5.57733
5.62388
5.66788
5.70635
5.7388
5.76715
5.79451
5.82301
5.85266
5.87987
5.89932
5.90794
5.90623
5.90041
5.90098
1.39997
1.39997
1.39997
1.39997
1.39997
1.39997
1.39997
1.39997
1.39997
1.39997
1.39997
1.39997
1.39997
1.39997
1.39997
1.39997
1.39997
1.39997
1.39997
1.39997
1.69589
4.5256
5.43609
5.46909
5.52417
5.5706
5.61678
5.66089
5.7005
5.73317
5.76057
5.78675
5.8152
5.8458
5.87407
5.89342
5.90089
5.89885
5.89402
5.89591
1.39997
1.39997
1.39997
1.39997
1.39997
1.39997
1.39997
1.39997
1.39997
1.39997
1.39997
1.39997
1.39997
1.39997
1.39997
1.39997
1.39997
1.39997
1.39997
1.39997
1.66185
4.46776
5.43147
5.46307
5.51949
5.56598
5.61086
5.65233
5.69034
5.72374
5.75306
5.78085
5.80982
5.83991
5.86741
5.88606
5.89302
5.8916
5.88786
5.89052
1.39997
1.39997
1.39997
1.39997
1.39997
1.39997
1.39997
1.39997
1.39997
1.39997
1.39997
1.39997
1.39997
1.39997
1.39997
1.39997
1.39997
1.39997
1.39997
1.39997
1.6268
4.415
5.43032
5.45894
5.51598
5.56283
5.60662
5.64441
5.6789
5.71252
5.74522
5.77613
5.80567
5.83416
5.85963
5.8775
5.88501
5.88479
5.88173
5.88457
1.39997
1.39997
1.39997
1.39997
1.39997
1.39997
1.39997
1.39997
1.39997
1.39997
1.39997
1.39997
1.39997
1.39997
1.39997
1.39997
1.39997
1.39997
1.39997
1.39997
1.5877
4.38143
5.44817
5.46104
5.51301
5.55998
5.60324
5.63859
5.66987
5.70225
5.73712
5.7711
5.80142
5.82798
5.85095
5.86818
5.8771
5.87831
5.87529
5.87771
1.39997
1.39997
1.39997
1.39997
1.39997
1.39997
1.39997
1.39997
1.39997
1.39997
1.39997
1.39997
1.39997
1.39997
1.39997
1.39997
1.39997
1.39997
1.39997
1.39997
1.54449
4.34635
5.4635
5.46465
5.51193
5.55708
5.60029
5.63516
5.66448
5.69472
5.72914
5.76435
5.79508
5.82006
5.8413
5.85852
5.86907
5.87153
5.86808
5.86976
1.39997
1.39997
1.39997
1.39997
1.39997
1.39997
1.39997
1.39997
1.39997
1.39997
1.39997
1.39997
1.39997
1.39997
1.39997
1.39997
1.39997
1.39997
1.39997
1.39997
1.49178
4.28253
5.47375
5.46949
5.51289
5.55425
5.59655
5.63228
5.66181
5.69042
5.72249
5.75645
5.78674
5.81111
5.83179
5.84906
5.86051
5.86369
5.8596
5.86052
1.39997
1.39997
1.39997
1.39997
1.39997
1.39997
1.39997
1.39997
1.39997
1.39997
1.39997
1.39997
1.39997
1.39997
1.39997
1.39997
1.39997
1.39997
1.39997
1.39997
1.45069
4.20887
5.45964
5.46534
5.5108
5.55099
5.59279
5.62923
5.65964
5.68739
5.7164
5.74704
5.77573
5.8004
5.8219
5.83955
5.85123
5.85437
5.84948
5.84972
1.39997
1.39997
1.39997
1.39997
1.39997
1.39997
1.39997
1.39997
1.39997
1.39997
1.39997
1.39997
1.39997
1.39997
1.39997
1.39997
1.39997
1.39997
1.39997
1.39997
1.42106
4.12729
5.43544
5.4586
5.50779
5.54944
5.58929
5.62492
5.65597
5.68357
5.71042
5.73785
5.76473
5.78989
5.81253
5.83033
5.84118
5.84334
5.83757
5.83742
1.39997
1.39997
1.39997
1.39997
1.39997
1.39997
1.39997
1.39997
1.39997
1.39997
1.39997
1.39997
1.39997
1.39997
1.39997
1.39997
1.39997
1.39997
1.39997
1.39997
1.40437
4.03452
5.39809
5.44644
5.50004
5.54405
5.58405
5.619
5.65001
5.67757
5.70309
5.7283
5.7537
5.77881
5.8022
5.8203
5.83027
5.83105
5.82426
5.8239
1.39997
1.39997
1.39997
1.39997
1.39997
1.39997
1.39997
1.39997
1.39997
1.39997
1.39997
1.39997
1.39997
1.39997
1.39997
1.39997
1.39997
1.39997
1.39997
1.39997
1.40038
3.92927
5.36152
5.42875
5.48766
5.53603
5.57866
5.61418
5.64364
5.66989
5.69461
5.7191
5.74369
5.76795
5.7908
5.80871
5.81802
5.81752
5.80955
5.80899
1.39997
1.39997
1.39997
1.39997
1.39997
1.39997
1.39997
1.39997
1.39997
1.39997
1.39997
1.39997
1.39997
1.39997
1.39997
1.39997
1.39997
1.39997
1.39997
1.39997
1.39998
3.81809
5.33074
5.40887
5.4705
5.52422
5.56903
5.60672
5.6363
5.66151
5.68552
5.70979
5.73377
5.75678
5.77837
5.79574
5.8047
5.80316
5.79409
5.79349
1.39997
1.39997
1.39997
1.39997
1.39997
1.39997
1.39997
1.39997
1.39997
1.39997
1.39997
1.39997
1.39997
1.39997
1.39997
1.39997
1.39997
1.39997
1.39997
1.39997
1.39997
3.70477
5.3063
5.39099
5.45055
5.50705
5.55546
5.59539
5.62737
5.65319
5.6767
5.70017
5.72301
5.74442
5.7642
5.78051
5.78915
5.78713
5.77766
5.7773
1.39997
1.39997
1.39997
1.39997
1.39997
1.39997
1.39997
1.39997
1.39997
1.39997
1.39997
1.39997
1.39997
1.39997
1.39997
1.39997
1.39997
1.39997
1.39997
1.39997
1.39997
3.5889
5.28739
5.37563
5.43099
5.48703
5.53766
5.58065
5.61606
5.64412
5.66791
5.69033
5.71177
5.73196
5.75021
5.76468
5.77192
5.76932
5.76033
5.76096
1.39997
1.39997
1.39997
1.39997
1.39997
1.39997
1.39997
1.39997
1.39997
1.39997
1.39997
1.39997
1.39997
1.39997
1.39997
1.39997
1.39997
1.39997
1.39997
1.39997
1.39997
3.46986
5.27217
5.36325
5.41472
5.46793
5.51825
5.56354
5.60185
5.63288
5.65779
5.67921
5.699
5.71815
5.73531
5.7475
5.75233
5.74919
5.74173
5.74379
1.39997
1.39997
1.39997
1.39997
1.39997
1.39997
1.39997
1.39997
1.39997
1.39997
1.39997
1.39997
1.39997
1.39997
1.39997
1.39997
1.39997
1.39997
1.39997
1.39997
1.39997
3.34624
5.25654
5.35394
5.40244
5.4526
5.50064
5.5458
5.58576
5.61901
5.64521
5.66623
5.68504
5.70358
5.71977
5.72927
5.73082
5.72693
5.72168
5.72547
1.39997
1.39997
1.39997
1.39997
1.39997
1.39997
1.39997
1.39997
1.39997
1.39997
1.39997
1.39997
1.39997
1.39997
1.39997
1.39997
1.39997
1.39997
1.39997
1.39997
1.39997
3.21716
5.23643
5.3473
5.39322
5.4411
5.48643
5.52936
5.56881
5.60262
5.62961
5.65094
5.66976
5.68772
5.70219
5.70879
5.70739
5.7029
5.69974
5.70437
1.39997
1.39997
1.39997
1.39997
1.39997
1.39997
1.39997
1.39997
1.39997
1.39997
1.39997
1.39997
1.39997
1.39997
1.39997
1.39997
1.39997
1.39997
1.39997
1.39997
1.39997
3.08242
5.20979
5.34323
5.38714
5.43253
5.47487
5.5145
5.55107
5.58393
5.61135
5.63377
5.65347
5.67067
5.68232
5.68544
5.68202
5.67715
5.67517
5.67981
1.39997
1.39997
1.39997
1.39997
1.39997
1.39997
1.39997
1.39997
1.39997
1.39997
1.39997
1.39997
1.39997
1.39997
1.39997
1.39997
1.39997
1.39997
1.39997
1.39997
1.39997
2.94263
5.17592
5.34168
5.38351
5.42554
5.4641
5.49998
5.53342
5.5643
5.59196
5.61577
5.63628
5.65199
5.66002
5.65955
5.65493
5.64972
5.6471
5.64946
1.39997
1.39997
1.39997
1.39997
1.39997
1.39997
1.39997
1.39997
1.39997
1.39997
1.39997
1.39997
1.39997
1.39997
1.39997
1.39997
1.39997
1.39997
1.39997
1.39997
1.39997
2.79894
5.13414
5.34282
5.38185
5.42009
5.45446
5.4864
5.51635
5.54505
5.57271
5.59755
5.6178
5.63116
5.63573
5.63293
5.62691
5.62013
5.61402
5.61235
1.39997
1.39997
1.39997
1.39997
1.39997
1.39997
1.39997
1.39997
1.39997
1.39997
1.39997
1.39997
1.39997
1.39997
1.39997
1.39997
1.39997
1.39997
1.39997
1.39997
1.39997
2.65286
5.08231
5.34844
5.38241
5.4155
5.44518
5.47307
5.49994
5.52704
5.55435
5.57867
5.59688
5.60744
5.60925
5.60571
5.59855
5.58814
5.57499
5.56618
1.39997
1.39997
1.39997
1.39997
1.39997
1.39997
1.39997
1.39997
1.39997
1.39997
1.39997
1.39997
1.39997
1.39997
1.39997
1.39997
1.39997
1.39997
1.39997
1.39997
1.39997
2.50595
5.01639
5.35662
5.38464
5.4131
5.4379
5.46151
5.4852
5.51027
5.53589
5.55811
5.57265
5.58025
5.58126
5.57834
5.56983
5.55232
5.5279
5.5118
1.39997
1.39997
1.39997
1.39997
1.39997
1.39997
1.39997
1.39997
1.39997
1.39997
1.39997
1.39997
1.39997
1.39997
1.39997
1.39997
1.39997
1.39997
1.39997
1.39997
1.39997
2.3595
4.92952
5.36866
5.38903
5.41346
5.43256
5.45124
5.47172
5.49459
5.51773
5.53558
5.54551
5.55059
5.55236
5.55006
5.53876
5.51182
5.47266
5.44762
1.39997
1.39997
1.39997
1.39997
1.39997
1.39997
1.39997
1.39997
1.39997
1.39997
1.39997
1.39997
1.39997
1.39997
1.39997
1.39997
1.39997
1.39997
1.39997
1.39997
1.39997
2.20886
4.83511
5.38296
5.39463
5.41409
5.42881
5.44365
5.46046
5.47976
5.49853
5.5114
5.51772
5.52145
5.52386
5.52074
5.5035
5.46283
5.40639
5.37503
1.39997
1.39997
1.39997
1.39997
1.39997
1.39997
1.39997
1.39997
1.39997
1.39997
1.39997
1.39997
1.39997
1.39997
1.39997
1.39997
1.39997
1.39997
1.39997
1.39997
1.39997
2.06749
4.74956
5.41126
5.40261
5.4173
5.4266
5.43797
5.45109
5.466
5.47942
5.48813
5.49224
5.49571
5.49739
5.48901
5.4605
5.4049
5.33098
5.28924
1.39997
1.39997
1.39997
1.39997
1.39997
1.39997
1.39997
1.39997
1.39997
1.39997
1.39997
1.39997
1.39997
1.39997
1.39997
1.39997
1.39997
1.39997
1.39997
1.39997
1.39997
1.9107
4.71279
5.45705
5.41583
5.42306
5.42696
5.43566
5.44317
5.45217
5.46037
5.46572
5.46922
5.47282
5.47118
5.45388
5.40998
5.3355
5.24013
5.18639
1.39997
1.39997
1.39997
1.39997
1.39997
1.39997
1.39997
1.39997
1.39997
1.39997
1.39997
1.39997
1.39997
1.39997
1.39997
1.39997
1.39997
1.39997
1.39997
1.39997
1.39997
1.73027
4.73192
5.51057
5.42732
5.43121
5.43101
5.43656
5.43902
5.43928
5.44175
5.44491
5.44826
5.45123
5.44404
5.41393
5.3523
5.25953
5.13793
5.05176
1.39997
1.39997
1.39997
1.39997
1.39997
1.39997
1.39997
1.39997
1.39997
1.39997
1.39997
1.39997
1.39997
1.39997
1.39997
1.39997
1.39997
1.39997
1.39997
1.39997
1.39997
1.5276
4.61072
5.53883
5.43825
5.43879
5.43805
5.44077
5.43683
5.42712
5.425
5.42569
5.42687
5.42593
5.41123
5.36813
5.29211
5.1788
5.01097
4.85775
1.39997
1.39997
1.39997
1.39997
1.39997
1.39997
1.39997
1.39997
1.39997
1.39997
1.39997
1.39997
1.39997
1.39997
1.39997
1.39997
1.39997
1.39997
1.39997
1.39997
1.39997
1.41567
4.38851
5.46588
5.41508
5.44634
5.44879
5.44806
5.43748
5.41892
5.4129
5.41073
5.40619
5.39483
5.36709
5.31351
5.22739
5.09712
4.89778
4.6414
1.39997
1.39997
1.39997
1.39997
1.39997
1.39997
1.39997
1.39997
1.39997
1.39997
1.39997
1.39997
1.39997
1.39997
1.39997
1.39997
1.39997
1.39997
1.39997
1.39997
1.93456
4.81776
5.45518
5.49644
5.55434
5.60303
5.64462
5.67954
5.7142
5.7548
5.79954
5.83923
5.86817
5.889
5.90708
5.92605
5.94119
5.94566
5.94069
5.93765
1.39997
1.39997
1.39997
1.39997
1.39997
1.39997
1.39997
1.39997
1.39997
1.39997
1.39997
1.39997
1.39997
1.39997
1.39997
1.39997
1.39997
1.39997
1.39997
1.39997
1.93367
4.80666
5.45046
5.49483
5.55368
5.60305
5.64641
5.68318
5.71746
5.75353
5.79309
5.83171
5.86404
5.88964
5.91105
5.92939
5.94128
5.94338
5.93877
5.9369
1.39997
1.39997
1.39997
1.39997
1.39997
1.39997
1.39997
1.39997
1.39997
1.39997
1.39997
1.39997
1.39997
1.39997
1.39997
1.39997
1.39997
1.39997
1.39997
1.39997
1.93006
4.78694
5.4395
5.48762
5.54902
5.60065
5.64701
5.68662
5.72092
5.75327
5.78681
5.82247
5.85722
5.88796
5.91421
5.93299
5.9417
5.9409
5.93634
5.93568
1.39997
1.39997
1.39997
1.39997
1.39997
1.39997
1.39997
1.39997
1.39997
1.39997
1.39997
1.39997
1.39997
1.39997
1.39997
1.39997
1.39997
1.39997
1.39997
1.39997
1.92263
4.76631
5.43004
5.48112
5.54471
5.59872
5.64748
5.68838
5.72198
5.75146
5.78088
5.81426
5.85134
5.88792
5.9176
5.93493
5.94051
5.93784
5.93358
5.93391
1.39997
1.39997
1.39997
1.39997
1.39997
1.39997
1.39997
1.39997
1.39997
1.39997
1.39997
1.39997
1.39997
1.39997
1.39997
1.39997
1.39997
1.39997
1.39997
1.39997
1.90944
4.75152
5.42668
5.47716
5.54174
5.59659
5.64562
5.68645
5.72008
5.74898
5.77793
5.81103
5.84922
5.88789
5.91792
5.93384
5.93787
5.93482
5.93093
5.93167
1.39997
1.39997
1.39997
1.39997
1.39997
1.39997
1.39997
1.39997
1.39997
1.39997
1.39997
1.39997
1.39997
1.39997
1.39997
1.39997
1.39997
1.39997
1.39997
1.39997
1.89364
4.74512
5.42886
5.47693
5.54078
5.59491
5.64237
5.68153
5.71491
5.7458
5.7781
5.81382
5.85194
5.88723
5.91434
5.92964
5.93427
5.93207
5.92843
5.92896
1.39997
1.39997
1.39997
1.39997
1.39997
1.39997
1.39997
1.39997
1.39997
1.39997
1.39997
1.39997
1.39997
1.39997
1.39997
1.39997
1.39997
1.39997
1.39997
1.39997
1.86847
4.73677
5.43548
5.48002
5.54172
5.59392
5.63912
5.6756
5.70814
5.74227
5.77986
5.81916
5.85592
5.88661
5.90916
5.92351
5.93016
5.92943
5.92573
5.9256
1.39997
1.39997
1.39997
1.39997
1.39997
1.39997
1.39997
1.39997
1.39997
1.39997
1.39997
1.39997
1.39997
1.39997
1.39997
1.39997
1.39997
1.39997
1.39997
1.39997
1.84306
4.72111
5.44543
5.48389
5.54251
5.59298
5.63687
5.67192
5.70344
5.73868
5.7803
5.82206
5.85707
5.88351
5.90291
5.9174
5.92618
5.92669
5.92245
5.92133
1.39997
1.39997
1.39997
1.39997
1.39997
1.39997
1.39997
1.39997
1.39997
1.39997
1.39997
1.39997
1.39997
1.39997
1.39997
1.39997
1.39997
1.39997
1.39997
1.39997
1.81527
4.69236
5.44976
5.4854
5.54211
5.59141
5.63523
5.67109
5.70299
5.7374
5.77813
5.81978
5.85402
5.87818
5.89674
5.91224
5.92224
5.92325
5.91817
5.91641
1.39997
1.39997
1.39997
1.39997
1.39997
1.39997
1.39997
1.39997
1.39997
1.39997
1.39997
1.39997
1.39997
1.39997
1.39997
1.39997
1.39997
1.39997
1.39997
1.39997
1.7868
4.66103
5.45137
5.48532
5.54103
5.58908
5.63337
5.67122
5.70509
5.739
5.77528
5.81207
5.84418
5.86957
5.89066
5.90797
5.91825
5.91881
5.91295
5.91118
1.39997
1.39997
1.39997
1.39997
1.39997
1.39997
1.39997
1.39997
1.39997
1.39997
1.39997
1.39997
1.39997
1.39997
1.39997
1.39997
1.39997
1.39997
1.39997
1.39997
1.7573
4.62652
5.45043
5.48208
5.53571
5.58293
5.62923
5.67067
5.7068
5.74004
5.77231
5.80394
5.83356
5.86092
5.88526
5.90395
5.91367
5.91307
5.90687
5.90601
1.39997
1.39997
1.39997
1.39997
1.39997
1.39997
1.39997
1.39997
1.39997
1.39997
1.39997
1.39997
1.39997
1.39997
1.39997
1.39997
1.39997
1.39997
1.39997
1.39997
1.72746
4.58401
5.44796
5.47844
5.53104
5.57733
5.62388
5.66788
5.70635
5.7388
5.76715
5.79451
5.82301
5.85266
5.87987
5.89932
5.90794
5.90623
5.90041
5.90098
1.39997
1.39997
1.39997
1.39997
1.39997
1.39997
1.39997
1.39997
1.39997
1.39997
1.39997
1.39997
1.39997
1.39997
1.39997
1.39997
1.39997
1.39997
1.39997
1.39997
1.69589
4.5256
5.43609
5.46909
5.52417
5.5706
5.61678
5.66089
5.7005
5.73317
5.76057
5.78675
5.8152
5.8458
5.87407
5.89342
5.90089
5.89885
5.89402
5.89591
1.39997
1.39997
1.39997
1.39997
1.39997
1.39997
1.39997
1.39997
1.39997
1.39997
1.39997
1.39997
1.39997
1.39997
1.39997
1.39997
1.39997
1.39997
1.39997
1.39997
1.66185
4.46776
5.43147
5.46307
5.51949
5.56598
5.61086
5.65233
5.69034
5.72374
5.75306
5.78085
5.80982
5.83991
5.86741
5.88606
5.89302
5.8916
5.88786
5.89052
1.39997
1.39997
1.39997
1.39997
1.39997
1.39997
1.39997
1.39997
1.39997
1.39997
1.39997
1.39997
1.39997
1.39997
1.39997
1.39997
1.39997
1.39997
1.39997
1.39997
1.6268
4.415
5.43032
5.45894
5.51598
5.56283
5.60662
5.64441
5.6789
5.71252
5.74522
5.77613
5.80567
5.83416
5.85963
5.8775
5.88501
5.88479
5.88173
5.88457
1.39997
1.39997
1.39997
1.39997
1.39997
1.39997
1.39997
1.39997
1.39997
1.39997
1.39997
1.39997
1.39997
1.39997
1.39997
1.39997
1.39997
1.39997
1.39997
1.39997
1.5877
4.38143
5.44817
5.46104
5.51301
5.55998
5.60324
5.63859
5.66987
5.70225
5.73712
5.7711
5.80142
5.82798
5.85095
5.86818
5.8771
5.87831
5.87529
5.87771
1.39997
1.39997
1.39997
1.39997
1.39997
1.39997
1.39997
1.39997
1.39997
1.39997
1.39997
1.39997
1.39997
1.39997
1.39997
1.39997
1.39997
1.39997
1.39997
1.39997
1.54449
4.34635
5.4635
5.46465
5.51193
5.55708
5.60029
5.63516
5.66448
5.69472
5.72914
5.76435
5.79508
5.82006
5.8413
5.85852
5.86907
5.87153
5.86808
5.86976
1.39997
1.39997
1.39997
1.39997
1.39997
1.39997
1.39997
1.39997
1.39997
1.39997
1.39997
1.39997
1.39997
1.39997
1.39997
1.39997
1.39997
1.39997
1.39997
1.39997
1.49178
4.28253
5.47375
5.46949
5.51289
5.55425
5.59655
5.63228
5.66181
5.69042
5.72249
5.75645
5.78674
5.81111
5.83179
5.84906
5.86051
5.86369
5.8596
5.86052
1.39997
1.39997
1.39997
1.39997
1.39997
1.39997
1.39997
1.39997
1.39997
1.39997
1.39997
1.39997
1.39997
1.39997
1.39997
1.39997
1.39997
1.39997
1.39997
1.39997
1.45069
4.20887
5.45964
5.46534
5.5108
5.55099
5.59279
5.62923
5.65964
5.68739
5.7164
5.74704
5.77573
5.8004
5.8219
5.83955
5.85123
5.85437
5.84948
5.84972
1.39997
1.39997
1.39997
1.39997
1.39997
1.39997
1.39997
1.39997
1.39997
1.39997
1.39997
1.39997
1.39997
1.39997
1.39997
1.39997
1.39997
1.39997
1.39997
1.39997
1.42106
4.12729
5.43544
5.4586
5.50779
5.54944
5.58929
5.62492
5.65597
5.68357
5.71042
5.73785
5.76473
5.78989
5.81253
5.83033
5.84118
5.84334
5.83757
5.83742
1.39997
1.39997
1.39997
1.39997
1.39997
1.39997
1.39997
1.39997
1.39997
1.39997
1.39997
1.39997
1.39997
1.39997
1.39997
1.39997
1.39997
1.39997
1.39997
1.39997
1.40437
4.03452
5.39809
5.44644
5.50004
5.54405
5.58405
5.619
5.65001
5.67757
5.70309
5.7283
5.7537
5.77881
5.8022
5.8203
5.83027
5.83105
5.82426
5.8239
1.39997
1.39997
1.39997
1.39997
1.39997
1.39997
1.39997
1.39997
1.39997
1.39997
1.39997
1.39997
1.39997
1.39997
1.39997
1.39997
1.39997
1.39997
1.39997
1.39997
1.40038
3.92927
5.36152
5.42875
5.48766
5.53603
5.57866
5.61418
5.64364
5.66989
5.69461
5.7191
5.74369
5.76795
5.7908
5.80871
5.81802
5.81752
5.80955
5.80899
1.39997
1.39997
1.39997
1.39997
1.39997
1.39997
1.39997
1.39997
1.39997
1.39997
1.39997
1.39997
1.39997
1.39997
1.39997
1.39997
1.39997
1.39997
1.39997
1.39997
1.39998
3.81809
5.33074
5.40887
5.4705
5.52422
5.56903
5.60672
5.6363
5.66151
5.68552
5.70979
5.73377
5.75678
5.77837
5.79574
5.8047
5.80316
5.79409
5.79349
1.39997
1.39997
1.39997
1.39997
1.39997
1.39997
1.39997
1.39997
1.39997
1.39997
1.39997
1.39997
1.39997
1.39997
1.39997
1.39997
1.39997
1.39997
1.39997
1.39997
1.39997
3.70477
5.3063
5.39099
5.45055
5.50705
5.55546
5.59539
5.62737
5.65319
5.6767
5.70017
5.72301
5.74442
5.7642
5.78051
5.78915
5.78713
5.77766
5.7773
1.39997
1.39997
1.39997
1.39997
1.39997
1.39997
1.39997
1.39997
1.39997
1.39997
1.39997
1.39997
1.39997
1.39997
1.39997
1.39997
1.39997
1.39997
1.39997
1.39997
1.39997
3.5889
5.28739
5.37563
5.43099
5.48703
5.53766
5.58065
5.61606
5.64412
5.66791
5.69033
5.71177
5.73196
5.75021
5.76468
5.77192
5.76932
5.76033
5.76096
1.39997
1.39997
1.39997
1.39997
1.39997
1.39997
1.39997
1.39997
1.39997
1.39997
1.39997
1.39997
1.39997
1.39997
1.39997
1.39997
1.39997
1.39997
1.39997
1.39997
1.39997
3.46986
5.27217
5.36325
5.41472
5.46793
5.51825
5.56354
5.60185
5.63288
5.65779
5.67921
5.699
5.71815
5.73531
5.7475
5.75233
5.74919
5.74173
5.74379
1.39997
1.39997
1.39997
1.39997
1.39997
1.39997
1.39997
1.39997
1.39997
1.39997
1.39997
1.39997
1.39997
1.39997
1.39997
1.39997
1.39997
1.39997
1.39997
1.39997
1.39997
3.34624
5.25654
5.35394
5.40244
5.4526
5.50064
5.5458
5.58576
5.61901
5.64521
5.66623
5.68504
5.70358
5.71977
5.72927
5.73082
5.72693
5.72168
5.72547
1.39997
1.39997
1.39997
1.39997
1.39997
1.39997
1.39997
1.39997
1.39997
1.39997
1.39997
1.39997
1.39997
1.39997
1.39997
1.39997
1.39997
1.39997
1.39997
1.39997
1.39997
3.21716
5.23643
5.3473
5.39322
5.4411
5.48643
5.52936
5.56881
5.60262
5.62961
5.65094
5.66976
5.68772
5.70219
5.70879
5.70739
5.7029
5.69974
5.70437
1.39997
1.39997
1.39997
1.39997
1.39997
1.39997
1.39997
1.39997
1.39997
1.39997
1.39997
1.39997
1.39997
1.39997
1.39997
1.39997
1.39997
1.39997
1.39997
1.39997
1.39997
3.08242
5.20979
5.34323
5.38714
5.43253
5.47487
5.5145
5.55107
5.58393
5.61135
5.63377
5.65347
5.67067
5.68232
5.68544
5.68202
5.67715
5.67517
5.67981
1.39997
1.39997
1.39997
1.39997
1.39997
1.39997
1.39997
1.39997
1.39997
1.39997
1.39997
1.39997
1.39997
1.39997
1.39997
1.39997
1.39997
1.39997
1.39997
1.39997
1.39997
2.94263
5.17592
5.34168
5.38351
5.42554
5.4641
5.49998
5.53342
5.5643
5.59196
5.61577
5.63628
5.65199
5.66002
5.65955
5.65493
5.64972
5.6471
5.64946
1.39997
1.39997
1.39997
1.39997
1.39997
1.39997
1.39997
1.39997
1.39997
1.39997
1.39997
1.39997
1.39997
1.39997
1.39997
1.39997
1.39997
1.39997
1.39997
1.39997
1.39997
2.79894
5.13414
5.34282
5.38185
5.42009
5.45446
5.4864
5.51635
5.54505
5.57271
5.59755
5.6178
5.63116
5.63573
5.63293
5.62691
5.62013
5.61402
5.61235
1.39997
1.39997
1.39997
1.39997
1.39997
1.39997
1.39997
1.39997
1.39997
1.39997
1.39997
1.39997
1.39997
1.39997
1.39997
1.39997
1.39997
1.39997
1.39997
1.39997
1.39997
2.65286
5.08231
5.34844
5.38241
5.4155
5.44518
5.47307
5.49994
5.52704
5.55435
5.57867
5.59688
5.60744
5.60925
5.60571
5.59855
5.58814
5.57499
5.56618
1.39997
1.39997
1.39997
1.39997
1.39997
1.39997
1.39997
1.39997
1.39997
1.39997
1.39997
1.39997
1.39997
1.39997
1.39997
1.39997
1.39997
1.39997
1.39997
1.39997
1.39997
2.50595
5.01639
5.35662
5.38464
5.4131
5.4379
5.46151
5.4852
5.51027
5.53589
5.55811
5.57265
5.58025
5.58126
5.57834
5.56983
5.55232
5.5279
5.5118
1.39997
1.39997
1.39997
1.39997
1.39997
1.39997
1.39997
1.39997
1.39997
1.39997
1.39997
1.39997
1.39997
1.39997
1.39997
1.39997
1.39997
1.39997
1.39997
1.39997
1.39997
2.3595
4.92952
5.36866
5.38903
5.41346
5.43256
5.45124
5.47172
5.49459
5.51773
5.53558
5.54551
5.55059
5.55236
5.55006
5.53876
5.51182
5.47266
5.44762
1.39997
1.39997
1.39997
1.39997
1.39997
1.39997
1.39997
1.39997
1.39997
1.39997
1.39997
1.39997
1.39997
1.39997
1.39997
1.39997
1.39997
1.39997
1.39997
1.39997
1.39997
2.20886
4.83511
5.38296
5.39463
5.41409
5.42881
5.44365
5.46046
5.47976
5.49853
5.5114
5.51772
5.52145
5.52386
5.52074
5.5035
5.46283
5.40639
5.37503
1.39997
1.39997
1.39997
1.39997
1.39997
1.39997
1.39997
1.39997
1.39997
1.39997
1.39997
1.39997
1.39997
1.39997
1.39997
1.39997
1.39997
1.39997
1.39997
1.39997
1.39997
2.06749
4.74956
5.41126
5.40261
5.4173
5.4266
5.43797
5.45109
5.466
5.47942
5.48813
5.49224
5.49571
5.49739
5.48901
5.4605
5.4049
5.33098
5.28924
1.39997
1.39997
1.39997
1.39997
1.39997
1.39997
1.39997
1.39997
1.39997
1.39997
1.39997
1.39997
1.39997
1.39997
1.39997
1.39997
1.39997
1.39997
1.39997
1.39997
1.39997
1.9107
4.71279
5.45705
5.41583
5.42306
5.42696
5.43566
5.44317
5.45217
5.46037
5.46572
5.46922
5.47282
5.47118
5.45388
5.40998
5.3355
5.24013
5.18639
1.39997
1.39997
1.39997
1.39997
1.39997
1.39997
1.39997
1.39997
1.39997
1.39997
1.39997
1.39997
1.39997
1.39997
1.39997
1.39997
1.39997
1.39997
1.39997
1.39997
1.39997
1.73027
4.73192
5.51057
5.42732
5.43121
5.43101
5.43656
5.43902
5.43928
5.44175
5.44491
5.44826
5.45123
5.44404
5.41393
5.3523
5.25953
5.13793
5.05176
1.39997
1.39997
1.39997
1.39997
1.39997
1.39997
1.39997
1.39997
1.39997
1.39997
1.39997
1.39997
1.39997
1.39997
1.39997
1.39997
1.39997
1.39997
1.39997
1.39997
1.39997
1.5276
4.61072
5.53883
5.43825
5.43879
5.43805
5.44077
5.43683
5.42712
5.425
5.42569
5.42687
5.42593
5.41123
5.36813
5.29211
5.1788
5.01097
4.85775
1.39997
1.39997
1.39997
1.39997
1.39997
1.39997
1.39997
1.39997
1.39997
1.39997
1.39997
1.39997
1.39997
1.39997
1.39997
1.39997
1.39997
1.39997
1.39997
1.39997
1.39997
1.41567
4.38851
5.46588
5.41508
5.44634
5.44879
5.44806
5.43748
5.41892
5.4129
5.41073
5.40619
5.39483
5.36709
5.31351
5.22739
5.09712
4.89778
4.6414
1.39997
1.39997
1.39997
1.39997
1.39997
1.39997
1.39997
1.39997
1.39997
1.39997
1.39997
1.39997
1.39997
1.39997
1.39997
1.39997
1.39997
1.39997
1.39997
1.39997
1.93456
4.81776
5.45518
5.49644
5.55434
5.60303
5.64462
5.67954
5.7142
5.7548
5.79954
5.83923
5.86817
5.889
5.90708
5.92605
5.94119
5.94566
5.94069
5.93765
1.39997
1.39997
1.39997
1.39997
1.39997
1.39997
1.39997
1.39997
1.39997
1.39997
1.39997
1.39997
1.39997
1.39997
1.39997
1.39997
1.39997
1.39997
1.39997
1.39997
1.93367
4.80666
5.45046
5.49483
5.55368
5.60305
5.64641
5.68318
5.71746
5.75353
5.79309
5.83171
5.86404
5.88964
5.91105
5.92939
5.94128
5.94338
5.93877
5.9369
1.39997
1.39997
1.39997
1.39997
1.39997
1.39997
1.39997
1.39997
1.39997
1.39997
1.39997
1.39997
1.39997
1.39997
1.39997
1.39997
1.39997
1.39997
1.39997
1.39997
1.93006
4.78694
5.4395
5.48762
5.54902
5.60065
5.64701
5.68662
5.72092
5.75327
5.78681
5.82247
5.85722
5.88796
5.91421
5.93299
5.9417
5.9409
5.93634
5.93568
1.39997
1.39997
1.39997
1.39997
1.39997
1.39997
1.39997
1.39997
1.39997
1.39997
1.39997
1.39997
1.39997
1.39997
1.39997
1.39997
1.39997
1.39997
1.39997
1.39997
1.92263
4.76631
5.43004
5.48112
5.54471
5.59872
5.64748
5.68838
5.72198
5.75146
5.78088
5.81426
5.85134
5.88792
5.9176
5.93493
5.94051
5.93784
5.93358
5.93391
1.39997
1.39997
1.39997
1.39997
1.39997
1.39997
1.39997
1.39997
1.39997
1.39997
1.39997
1.39997
1.39997
1.39997
1.39997
1.39997
1.39997
1.39997
1.39997
1.39997
1.90944
4.75152
5.42668
5.47716
5.54174
5.59659
5.64562
5.68645
5.72008
5.74898
5.77793
5.81103
5.84922
5.88789
5.91792
5.93384
5.93787
5.93482
5.93093
5.93167
1.39997
1.39997
1.39997
1.39997
1.39997
1.39997
1.39997
1.39997
1.39997
1.39997
1.39997
1.39997
1.39997
1.39997
1.39997
1.39997
1.39997
1.39997
1.39997
1.39997
1.89364
4.74512
5.42886
5.47693
5.54078
5.59491
5.64237
5.68153
5.71491
5.7458
5.7781
5.81382
5.85194
5.88723
5.91434
5.92964
5.93427
5.93207
5.92843
5.92896
1.39997
1.39997
1.39997
1.39997
1.39997
1.39997
1.39997
1.39997
1.39997
1.39997
1.39997
1.39997
1.39997
1.39997
1.39997
1.39997
1.39997
1.39997
1.39997
1.39997
1.86847
4.73677
5.43548
5.48002
5.54172
5.59392
5.63912
5.6756
5.70814
5.74227
5.77986
5.81916
5.85592
5.88661
5.90916
5.92351
5.93016
5.92943
5.92573
5.9256
1.39997
1.39997
1.39997
1.39997
1.39997
1.39997
1.39997
1.39997
1.39997
1.39997
1.39997
1.39997
1.39997
1.39997
1.39997
1.39997
1.39997
1.39997
1.39997
1.39997
1.84306
4.72111
5.44543
5.48389
5.54251
5.59298
5.63687
5.67192
5.70344
5.73868
5.7803
5.82206
5.85707
5.88351
5.90291
5.9174
5.92618
5.92669
5.92245
5.92133
1.39997
1.39997
1.39997
1.39997
1.39997
1.39997
1.39997
1.39997
1.39997
1.39997
1.39997
1.39997
1.39997
1.39997
1.39997
1.39997
1.39997
1.39997
1.39997
1.39997
1.81527
4.69236
5.44976
5.4854
5.54211
5.59141
5.63523
5.67109
5.70299
5.7374
5.77813
5.81978
5.85402
5.87818
5.89674
5.91224
5.92224
5.92325
5.91817
5.91641
1.39997
1.39997
1.39997
1.39997
1.39997
1.39997
1.39997
1.39997
1.39997
1.39997
1.39997
1.39997
1.39997
1.39997
1.39997
1.39997
1.39997
1.39997
1.39997
1.39997
1.7868
4.66103
5.45137
5.48532
5.54103
5.58908
5.63337
5.67122
5.70509
5.739
5.77528
5.81207
5.84418
5.86957
5.89066
5.90797
5.91825
5.91881
5.91295
5.91118
1.39997
1.39997
1.39997
1.39997
1.39997
1.39997
1.39997
1.39997
1.39997
1.39997
1.39997
1.39997
1.39997
1.39997
1.39997
1.39997
1.39997
1.39997
1.39997
1.39997
1.7573
4.62652
5.45043
5.48208
5.53571
5.58293
5.62923
5.67067
5.7068
5.74004
5.77231
5.80394
5.83356
5.86092
5.88526
5.90395
5.91367
5.91307
5.90687
5.90601
1.39997
1.39997
1.39997
1.39997
1.39997
1.39997
1.39997
1.39997
1.39997
1.39997
1.39997
1.39997
1.39997
1.39997
1.39997
1.39997
1.39997
1.39997
1.39997
1.39997
1.72746
4.58401
5.44796
5.47844
5.53104
5.57733
5.62388
5.66788
5.70635
5.7388
5.76715
5.79451
5.82301
5.85266
5.87987
5.89932
5.90794
5.90623
5.90041
5.90098
1.39997
1.39997
1.39997
1.39997
1.39997
1.39997
1.39997
1.39997
1.39997
1.39997