/*--------------------------------*- C++ -*----------------------------------*\
  =========                 |
  \\      /  F ield         | OpenFOAM: The Open Source CFD Toolbox
   \\    /   O peration     | Website:  https://openfoam.org
    \\  /    A nd           | Version:  6.0
     \\/     M anipulation  |
\*---------------------------------------------------------------------------*/
FoamFile
{
    version     2.0;
    format      ascii;
    class       volScalarField;
    location    "3.000601";
    object      p;
}
// * * * * * * * * * * * * * * * * * * * * * * * * * * * * * * * * * * * * * //

dimensions      [1 -1 -2 0 0 0 0];

internalField   nonuniform List<scalar> 
300
(
1
1
1
1
1.05219
6.72084
10.8227
11.1603
11.5031
11.7081
1
1
1
1
1.0499
6.68303
10.8183
11.187
11.5985
11.9068
1
1
1
1
1.02849
6.58861
10.7812
11.1792
11.6584
12.0674
1
1
1
1
1.00608
6.44358
10.7225
11.089
11.5256
11.9175
1
1
1
1
1.00051
6.23706
10.6563
10.9419
11.2187
11.5001
1
1
1
1
1
5.96689
10.5587
10.8145
11.0025
11.1396
1
1
1
1
1
5.63717
10.4014
10.7013
10.8748
11.01
1
1
1
1
1
5.26413
10.1878
10.6016
10.7236
10.7942
1
1
1
1
1
4.85884
9.94363
10.5525
10.6361
10.3585
1
1
1
1
1
4.47395
9.68561
10.3356
10.4692
10.3179
1
1
1
1
1
3.09857
9.02245
9.8322
9.41677
8.11215
1
1
1
1
1
1.2588
6.77958
9.31815
8.54334
7.23911
1
1
1
1
1
1.00422
3.63175
7.97019
7.81681
6.72732
1
1
1
1
1
0.999977
1.32752
5.28439
7.64604
6.62315
1
1
1
1
1
0.999996
1.00637
1.94346
5.77635
6.70398
1
1
1
1
1
1
1.00002
1.04602
2.53147
5.72722
1
1
1
1
1
1
1
1.00035
1.12163
3.26949
1
1
1
1
1
1
1
1
1.00141
1.31679
1
1
1
1
1
1
1
1
1
1.00628
1
1
1
1
1
1
1
1
1
1.00001
1.99533
0.722537
0.941666
2.6318
5.03477
5.00637
4.23545
3.66796
3.19254
2.52553
3.40539
1.10641
1.16909
2.42131
4.6896
4.82154
4.20111
3.63863
3.15526
2.50323
3.88474
1.41426
1.37684
2.20008
4.11669
4.85747
4.17959
3.58513
3.09814
2.46322
4.17261
1.88701
2.07347
2.40383
3.22108
4.33734
4.06536
3.51534
3.02962
2.4299
4.34237
2.38818
3.12904
2.94838
2.79689
3.47491
3.81373
3.42384
2.97732
2.40606
4.52376
3.14762
4.19489
3.55512
2.79982
2.6806
3.27648
3.22978
2.89455
2.39834
4.2501
4.65722
5.16719
4.07241
2.92125
2.38361
2.55318
2.88291
2.74661
2.42088
3.22297
6.44098
5.84689
4.52182
3.18489
2.32732
2.06057
2.35748
2.42071
2.48373
2.53028
7.83504
6.20679
4.64493
3.34411
2.36956
1.81716
1.81272
2.14601
2.69834
2.96389
9.67411
7.08777
4.73057
3.3871
2.4724
1.69722
1.53134
1.95761
2.81632
)
;

boundaryField
{
    inlet
    {
        type            fixedValue;
        value           uniform 1;
    }
    outlet
    {
        type            zeroGradient;
    }
    top
    {
        type            symmetryPlane;
    }
    bottom
    {
        type            symmetryPlane;
    }
    step
    {
        type            zeroGradient;
    }
    defaultFaces
    {
        type            empty;
    }
}


// ************************************************************************* //
