/*--------------------------------*- C++ -*----------------------------------*\
  =========                 |
  \\      /  F ield         | OpenFOAM: The Open Source CFD Toolbox
   \\    /   O peration     | Website:  https://openfoam.org
    \\  /    A nd           | Version:  6.0
     \\/     M anipulation  |
\*---------------------------------------------------------------------------*/
FoamFile
{
    version     2.0;
    format      ascii;
    class       volScalarField;
    location    "3.000601";
    object      rho;
}
// * * * * * * * * * * * * * * * * * * * * * * * * * * * * * * * * * * * * * //

dimensions      [1 -3 0 0 0 0 0];

internalField   nonuniform List<scalar> 
300
(
1.39997
1.39997
1.39997
1.39997
1.4276
4.03957
5.50835
5.60296
5.71058
5.77852
1.39997
1.39997
1.39997
1.39997
1.42771
4.02651
5.50713
5.61239
5.74408
5.84852
1.39997
1.39997
1.39997
1.39997
1.41752
3.99641
5.49553
5.60918
5.76481
5.90495
1.39997
1.39997
1.39997
1.39997
1.40533
3.94343
5.47587
5.57606
5.71722
5.85207
1.39997
1.39997
1.39997
1.39997
1.4005
3.85766
5.45074
5.5223
5.60735
5.70379
1.39997
1.39997
1.39997
1.39997
1.39997
3.74368
5.41246
5.47579
5.52987
5.57486
1.39997
1.39997
1.39997
1.39997
1.39997
3.60429
5.35193
5.43494
5.48484
5.52993
1.39997
1.39997
1.39997
1.39997
1.39997
3.44438
5.2699
5.39803
5.43107
5.45737
1.39997
1.39997
1.39997
1.39997
1.39997
3.26909
5.17609
5.37557
5.39617
5.29841
1.39997
1.39997
1.39997
1.39997
1.39997
3.1061
5.08323
5.28875
5.32061
5.23199
1.39997
1.39997
1.39997
1.39997
1.39997
2.51761
4.93022
5.127
4.94248
4.30723
1.39997
1.39997
1.39997
1.39997
1.39997
1.58891
4.22303
5.03028
4.68785
4.08297
1.39997
1.39997
1.39997
1.39997
1.39997
1.40327
2.85622
4.64827
4.50418
3.98653
1.39997
1.39997
1.39997
1.39997
1.39997
1.39994
1.63644
3.6624
4.54416
4.0644
1.39997
1.39997
1.39997
1.39997
1.39997
1.39996
1.40532
2.02733
3.95864
4.2097
1.39997
1.39997
1.39997
1.39997
1.39997
1.39997
1.39999
1.43786
2.39599
3.91457
1.39997
1.39997
1.39997
1.39997
1.39997
1.39997
1.39997
1.4003
1.49828
2.74232
1.39997
1.39997
1.39997
1.39997
1.39997
1.39997
1.39997
1.39997
1.40125
1.63462
1.39997
1.39997
1.39997
1.39997
1.39997
1.39997
1.39997
1.39997
1.39997
1.40532
1.39997
1.39997
1.39997
1.39997
1.39997
1.39997
1.39997
1.39997
1.39997
1.39997
1.48773
0.661775
0.801749
1.69144
2.71583
2.74205
2.46072
2.22954
2.02322
1.71549
2.28164
0.943669
0.983322
1.68359
2.67672
2.75376
2.49944
2.25591
2.03565
1.72251
2.637
1.20362
1.17814
1.66226
2.62106
2.92269
2.61915
2.33537
2.0902
1.75554
2.87565
1.55649
1.65641
1.85347
2.32549
2.85807
2.71653
2.43667
2.17208
1.82281
3.0492
1.90841
2.27307
2.19548
2.16886
2.5522
2.72633
2.5122
2.25811
1.90488
3.24637
2.39408
2.87462
2.58426
2.21815
2.21259
2.55445
2.50912
2.30451
1.98748
3.19592
3.19836
3.42874
2.94329
2.3677
2.09773
2.2066
2.39705
2.30119
2.07619
2.71639
4.10673
3.8961
3.29962
2.60525
2.10068
1.9402
2.1279
2.16124
2.17084
2.38989
4.98897
4.25404
3.47373
2.75658
2.15806
1.79457
1.78453
2.00565
2.33404
2.91996
6.06357
4.79529
3.56586
2.80161
2.23794
1.71265
1.58737
1.88451
2.41603
)
;

boundaryField
{
    inlet
    {
        type            calculated;
        value           uniform 1.39997;
    }
    outlet
    {
        type            calculated;
        value           nonuniform List<scalar> 10(1.71591 1.7227 1.75574 1.82307 1.90528 1.98807 2.07686 2.172 2.33606 2.41874);
    }
    top
    {
        type            symmetryPlane;
    }
    bottom
    {
        type            symmetryPlane;
    }
    step
    {
        type            calculated;
        value           nonuniform List<scalar> 
20
(
5.77852
5.84852
5.90495
5.85207
5.70379
5.57486
5.52993
5.45737
5.29841
5.23199
1.48773
0.661775
0.801749
1.69144
2.71583
2.74205
2.46072
2.22954
2.02322
1.71549
)
;
    }
    defaultFaces
    {
        type            empty;
    }
}


// ************************************************************************* //
