/*--------------------------------*- C++ -*----------------------------------*\
  =========                 |
  \\      /  F ield         | OpenFOAM: The Open Source CFD Toolbox
   \\    /   O peration     | Website:  https://openfoam.org
    \\  /    A nd           | Version:  6.0
     \\/     M anipulation  |
\*---------------------------------------------------------------------------*/
FoamFile
{
    version     2.0;
    format      ascii;
    class       volVectorField;
    location    "3.000601";
    object      U;
}
// * * * * * * * * * * * * * * * * * * * * * * * * * * * * * * * * * * * * * //

dimensions      [0 1 -1 0 0 0 0];

internalField   nonuniform List<vector> 
300
(
(3 1.50016e-16 0)
(3 2.19828e-16 0)
(3 -3.67835e-16 0)
(3 -3.70858e-16 0)
(2.97969 0.0029208 0)
(1.02364 0.0176293 0)
(0.605481 0.0152952 0)
(0.476374 0.0246574 0)
(0.311298 0.0330874 0)
(0.136223 0.0479849 0)
(3 2.45664e-16 0)
(3 2.84146e-17 0)
(3 -1.05064e-15 0)
(3 -5.00197e-16 0)
(2.98479 0.00915108 0)
(1.02846 0.0611421 0)
(0.606801 0.050437 0)
(0.472429 0.0728413 0)
(0.302994 0.0914439 0)
(0.13122 0.122778 0)
(3 9.93941e-18 0)
(3 -1.08085e-16 0)
(3 -3.26901e-16 0)
(3 -3.25323e-17 0)
(2.99735 0.0115201 0)
(1.05192 0.1045 0)
(0.625177 0.087884 0)
(0.486151 0.119448 0)
(0.306852 0.142341 0)
(0.132799 0.190803 0)
(3 -3.05383e-16 0)
(3 2.16126e-16 0)
(3 -9.77045e-18 0)
(3 -4.2271e-17 0)
(3.00525 0.00330867 0)
(1.08327 0.143771 0)
(0.636766 0.131266 0)
(0.494387 0.169774 0)
(0.308139 0.200396 0)
(0.127358 0.258459 0)
(3 -4.28337e-16 0)
(3 -2.48386e-17 0)
(3 5.87367e-16 0)
(3 1.40399e-16 0)
(3.00128 0.000277984 0)
(1.1212 0.182779 0)
(0.642048 0.173076 0)
(0.502749 0.221328 0)
(0.320139 0.260615 0)
(0.136543 0.334491 0)
(3 -4.75029e-17 0)
(3 -7.04427e-16 0)
(3 -3.7523e-18 0)
(3 6.17151e-17 0)
(3.0001 -1.63006e-06 0)
(1.17579 0.219716 0)
(0.650466 0.211008 0)
(0.513749 0.273423 0)
(0.33076 0.322105 0)
(0.136366 0.405829 0)
(3 2.39884e-16 0)
(3 -1.21881e-15 0)
(3 -4.64009e-16 0)
(3 -2.7675e-16 0)
(3 -6.33067e-08 0)
(1.24598 0.254427 0)
(0.664025 0.246236 0)
(0.534428 0.323131 0)
(0.355846 0.379096 0)
(0.156222 0.47588 0)
(3 3.05319e-17 0)
(3 -1.90892e-16 0)
(3 -5.77266e-17 0)
(3 -3.77288e-17 0)
(3 7.68617e-08 0)
(1.32804 0.292721 0)
(0.675962 0.283307 0)
(0.548002 0.37577 0)
(0.371623 0.454852 0)
(0.155977 0.56949 0)
(3 2.7004e-16 0)
(3 1.16078e-15 0)
(3 4.4814e-16 0)
(3 4.07913e-16 0)
(3 -3.68513e-09 0)
(1.4375 0.33495 0)
(0.702294 0.327094 0)
(0.572497 0.431969 0)
(0.409321 0.553493 0)
(0.187504 0.715292 0)
(3 -2.65319e-17 0)
(3 4.58837e-16 0)
(3 5.31673e-16 0)
(3 6.9402e-17 0)
(3 -5.0033e-09 0)
(1.59575 0.38033 0)
(0.767177 0.368979 0)
(0.624098 0.466663 0)
(0.473918 0.650923 0)
(0.279378 0.920438 0)
(3 -5.63264e-17 0)
(3 -4.52068e-18 0)
(3 2.17534e-16 0)
(3 5.85017e-16 0)
(3 -1.00369e-09 0)
(2.08941 0.422472 0)
(0.866553 0.531056 0)
(0.689737 0.558312 0)
(0.665789 0.717463 0)
(0.746801 0.990347 0)
(3 3.48708e-17 0)
(3 1.87784e-16 0)
(3 4.38136e-16 0)
(3 3.93115e-16 0)
(3 -6.44469e-12 0)
(3.04656 0.101793 0)
(1.2905 0.653635 0)
(0.909332 0.629372 0)
(0.949425 0.742798 0)
(1.11878 0.827918 0)
(3 5.33201e-17 0)
(3 2.16573e-17 0)
(3 4.14176e-17 0)
(3 -5.15725e-16 0)
(3 5.73862e-14 0)
(3.01312 0.000812114 0)
(2.05223 0.575657 0)
(1.12099 0.789321 0)
(1.12629 0.803301 0)
(1.29262 0.837071 0)
(3 -4.79165e-18 0)
(3 -2.35426e-16 0)
(3 -6.51857e-16 0)
(3 -1.17764e-15 0)
(3 9.80276e-15 0)
(3.00007 3.78927e-06 0)
(2.98293 0.111911 0)
(1.70468 0.768062 0)
(1.26044 0.854608 0)
(1.40684 0.847842 0)
(3 -1.51481e-18 0)
(3 -6.95414e-17 0)
(3 -3.20841e-16 0)
(3 -4.47729e-16 0)
(3 -1.70418e-16 0)
(3.00001 -2.16284e-06 0)
(3.0043 0.00452573 0)
(2.75774 0.332542 0)
(1.64262 0.869678 0)
(1.46143 0.889791 0)
(3 -2.368e-17 0)
(3 7.21734e-17 0)
(3 1.9672e-16 0)
(3 1.00576e-16 0)
(3 1.21871e-16 0)
(3 -3.11731e-07 0)
(3.00001 1.87682e-05 0)
(3.00561 0.0223166 0)
(2.55338 0.503832 0)
(1.68686 0.880104 0)
(3 -2.91282e-17 0)
(3 -1.31315e-16 0)
(3 -2.40889e-16 0)
(3 -1.42653e-16 0)
(3 4.76569e-16 0)
(3 -1.43527e-08 0)
(3 -9.57165e-09 0)
(3.00004 0.000339723 0)
(3.00183 0.046605 0)
(2.31467 0.638919 0)
(3 1.21727e-17 0)
(3 -3.83315e-17 0)
(3 -2.29477e-16 0)
(3 -4.60938e-16 0)
(3 -6.38863e-16 0)
(3 -7.98221e-11 0)
(3 -1.85106e-09 0)
(3 2.44609e-07 0)
(3.00016 0.00133738 0)
(3.00891 0.116963 0)
(3 1.27598e-17 0)
(3 2.53401e-16 0)
(3 6.3053e-16 0)
(3 5.93665e-16 0)
(3 -5.78226e-16 0)
(3 -5.42047e-14 0)
(3 -1.19617e-10 0)
(3 -8.25313e-11 0)
(3 3.65653e-06 0)
(3.00604 0.001579 0)
(3 -4.23132e-17 0)
(3 2.54096e-17 0)
(3 1.36079e-16 0)
(3 2.23943e-16 0)
(3 8.82624e-17 0)
(3 1.54439e-16 0)
(3 -1.16636e-12 0)
(3 -1.41375e-11 0)
(3 1.0653e-09 0)
(3.00002 6.53961e-06 0)
(1.78547 0.767862 0)
(2.62443 0.308449 0)
(2.55452 -0.00385277 0)
(1.85367 -0.125643 0)
(1.4169 -0.104076 0)
(1.56644 -0.0354465 0)
(1.74304 -0.00236539 0)
(1.89721 0.00504794 0)
(2.03122 0.0142001 0)
(2.22241 0.0212073 0)
(1.81281 0.385267 0)
(2.63837 0.161238 0)
(2.47656 -0.255774 0)
(2.09471 -0.38781 0)
(1.5905 -0.0894849 0)
(1.62648 0.00741213 0)
(1.78032 0.0143391 0)
(1.93146 0.0261599 0)
(2.06426 0.0503724 0)
(2.25214 0.0620358 0)
(1.7812 0.549536 0)
(2.49747 0.490947 0)
(2.26992 -0.104958 0)
(2.22305 -0.687206 0)
(1.8559 -0.253773 0)
(1.75737 -0.00263893 0)
(1.87872 0.012812 0)
(2.0065 0.0348735 0)
(2.12556 0.0781631 0)
(2.29361 0.103716 0)
(1.82589 0.624226 0)
(2.3913 0.56707 0)
(2.25517 -0.165822 0)
(2.252 -0.779685 0)
(2.06579 -0.495696 0)
(1.89858 -0.0851275 0)
(1.97148 0.0907044 0)
(2.08464 0.0953567 0)
(2.18739 0.125996 0)
(2.33227 0.147337 0)
(1.82479 0.74939 0)
(2.25287 0.519443 0)
(2.22723 -0.13686 0)
(2.14838 -0.630496 0)
(2.16956 -0.586884 0)
(2.08404 -0.218551 0)
(2.0866 0.044596 0)
(2.16107 0.145422 0)
(2.23801 0.182812 0)
(2.36224 0.187831 0)
(1.84001 0.852081 0)
(2.10758 0.471625 0)
(2.07932 -0.212852 0)
(2.07162 -0.53151 0)
(2.18105 -0.543636 0)
(2.23684 -0.348117 0)
(2.20368 -0.0309719 0)
(2.25457 0.165908 0)
(2.29608 0.243683 0)
(2.38156 0.240443 0)
(1.90043 0.902227 0)
(1.87124 0.377795 0)
(1.91196 -0.186516 0)
(2.00374 -0.35487 0)
(2.17048 -0.453692 0)
(2.33032 -0.398571 0)
(2.34526 -0.124778 0)
(2.35253 0.159277 0)
(2.33723 0.307282 0)
(2.40377 0.285639 0)
(2.10688 0.982057 0)
(1.5839 0.218805 0)
(1.79397 -0.168332 0)
(1.9973 -0.243837 0)
(2.23003 -0.318432 0)
(2.39028 -0.362973 0)
(2.50331 -0.188131 0)
(2.51756 0.0831855 0)
(2.41948 0.351932 0)
(2.43972 0.290254 0)
(2.6194 0.872945 0)
(1.57808 0.0376677 0)
(1.80568 -0.205248 0)
(2.07172 -0.204361 0)
(2.30122 -0.200591 0)
(2.46965 -0.230067 0)
(2.60038 -0.192085 0)
(2.61325 0.0473671 0)
(2.59178 0.307343 0)
(2.50199 0.222459 0)
(3.32115 0.808624 0)
(1.74634 0.144999 0)
(1.91869 -0.028124 0)
(2.15633 -0.0710652 0)
(2.34319 -0.0594893 0)
(2.51664 -0.0737917 0)
(2.64582 -0.114331 0)
(2.70732 -0.0123276 0)
(2.62226 0.0995672 0)
(2.53226 0.0972874 0)
)
;

boundaryField
{
    inlet
    {
        type            fixedValue;
        value           uniform (3 0 0);
    }
    outlet
    {
        type            inletOutlet;
        inletValue      uniform (3 0 0);
        value           nonuniform List<vector> 10((2.22241 0.0212073 0) (2.25214 0.0620358 0) (2.29361 0.103716 0) (2.33227 0.147337 0) (2.36224 0.187831 0) (2.38156 0.240443 0) (2.40377 0.285639 0) (2.43972 0.290254 0) (2.50199 0.222459 0) (2.53226 0.0972874 0));
    }
    top
    {
        type            symmetryPlane;
    }
    bottom
    {
        type            symmetryPlane;
    }
    step
    {
        type            slip;
    }
    defaultFaces
    {
        type            empty;
    }
}


// ************************************************************************* //
