/*--------------------------------*- C++ -*----------------------------------*\
  =========                 |
  \\      /  F ield         | OpenFOAM: The Open Source CFD Toolbox
   \\    /   O peration     | Website:  https://openfoam.org
    \\  /    A nd           | Version:  6.0
     \\/     M anipulation  |
\*---------------------------------------------------------------------------*/
FoamFile
{
    version     2.0;
    format      ascii;
    class       volScalarField;
    location    "1";
    object      p;
}
// * * * * * * * * * * * * * * * * * * * * * * * * * * * * * * * * * * * * * //

dimensions      [1 -1 -2 0 0 0 0];

internalField   nonuniform List<scalar> 
2700
(
1
1
1
1
1.00001
1.00002
1.00005
1.00012
1.00025
1.00055
1.0012
1.0026
1.00566
1.01232
1.02687
1.05875
1.12931
1.2887
1.66486
2.63973
5.77342
21.1723
18.7763
15.9192
14.2467
13.4651
13.4014
13.1103
13.5341
13.3823
1
1
1
1
1.00001
1.00002
1.00005
1.00012
1.00025
1.00055
1.0012
1.0026
1.00566
1.01233
1.02687
1.05876
1.12933
1.28875
1.66498
2.6401
5.77514
21.1656
18.7672
15.9114
14.2346
13.4532
13.3949
13.1201
13.5323
13.3844
1
1
1
1
1.00001
1.00002
1.00005
1.00012
1.00025
1.00055
1.0012
1.0026
1.00566
1.01233
1.02688
1.05878
1.12937
1.28884
1.66519
2.64077
5.7785
21.1515
18.7488
15.8946
14.2095
13.4291
13.3777
13.1376
13.5277
13.3844
1
1
1
1
1.00001
1.00002
1.00005
1.00012
1.00025
1.00055
1.0012
1.0026
1.00567
1.01233
1.02689
1.0588
1.12942
1.28896
1.6655
2.6417
5.78331
21.1296
18.7222
15.8682
14.1727
13.3954
13.3499
13.1569
13.5201
13.3824
1
1
1
1
1.00001
1.00002
1.00005
1.00012
1.00025
1.00055
1.0012
1.00261
1.00567
1.01234
1.0269
1.05883
1.12948
1.28911
1.66587
2.64284
5.78937
21.0998
18.6878
15.832
14.1259
13.3537
13.3168
13.1733
13.5107
13.3772
1
1
1
1
1.00001
1.00002
1.00005
1.00012
1.00025
1.00055
1.0012
1.00261
1.00567
1.01235
1.02692
1.05886
1.12956
1.28928
1.6663
2.64416
5.79647
21.0615
18.6458
15.7861
14.0706
13.3058
13.2807
13.1835
13.4998
13.3674
1
1
1
1
1.00001
1.00002
1.00005
1.00012
1.00025
1.00055
1.0012
1.00261
1.00567
1.01235
1.02693
1.05889
1.12964
1.28947
1.66677
2.64561
5.80441
21.0146
18.5955
15.731
14.0084
13.2531
13.2421
13.1839
13.4849
13.3532
1
1
1
1
1.00001
1.00002
1.00005
1.00012
1.00025
1.00055
1.0012
1.00261
1.00568
1.01236
1.02695
1.05893
1.12972
1.28967
1.66727
2.64714
5.81292
20.9588
18.5364
15.6675
13.9396
13.1962
13.2
13.1762
13.467
13.3344
1
1
1
1
1.00001
1.00002
1.00005
1.00012
1.00025
1.00055
1.0012
1.00261
1.00568
1.01237
1.02696
1.05897
1.1298
1.28987
1.66776
2.64869
5.82175
20.8936
18.4681
15.5961
13.8641
13.1347
13.1494
13.1564
13.4439
13.3114
1
1
1
1
1.00001
1.00002
1.00005
1.00012
1.00025
1.00055
1.0012
1.00261
1.00568
1.01237
1.02698
1.059
1.12988
1.29006
1.66824
2.65021
5.83057
20.8183
18.3903
15.5168
13.7819
13.0687
13.0904
13.1298
13.4206
13.2841
1
1
1
1
1.00001
1.00002
1.00005
1.00012
1.00025
1.00055
1.0012
1.00261
1.00569
1.01238
1.02699
1.05903
1.12996
1.29024
1.6687
2.65165
5.83905
20.7321
18.3033
15.429
13.6927
12.9991
13.0287
13.0949
13.3889
13.2497
1
1
1
1
1.00001
1.00002
1.00005
1.00012
1.00025
1.00055
1.0012
1.00261
1.00569
1.01239
1.02701
1.05906
1.13003
1.2904
1.6691
2.65296
5.84691
20.6344
18.2071
15.3324
13.5966
12.9262
12.9638
13.0501
13.3469
13.2069
1
1
1
1
1.00001
1.00002
1.00005
1.00012
1.00025
1.00055
1.0012
1.00262
1.00569
1.01239
1.02702
1.05909
1.13008
1.29053
1.66944
2.65408
5.85388
20.5247
18.1015
15.2273
13.4939
12.8496
12.8955
12.9974
13.2953
13.1552
1
1
1
1
1.00001
1.00002
1.00005
1.00012
1.00025
1.00055
1.0012
1.00262
1.00569
1.0124
1.02703
1.05911
1.13013
1.29064
1.6697
2.65498
5.85977
20.4027
17.9868
15.1135
13.3847
12.7694
12.8233
12.9374
13.234
13.0955
1
1
1
1
1.00001
1.00002
1.00005
1.00012
1.00025
1.00055
1.0012
1.00262
1.00569
1.0124
1.02703
1.05912
1.13016
1.29071
1.66987
2.65558
5.86445
20.2684
17.8629
14.9915
13.2691
12.6851
12.747
12.8699
13.1626
13.0261
1
1
1
1
1.00001
1.00002
1.00005
1.00012
1.00025
1.00055
1.0012
1.00262
1.0057
1.0124
1.02704
1.05913
1.13018
1.29075
1.66997
2.65597
5.86774
20.1221
17.7298
14.8619
13.1477
12.5974
12.668
12.7934
13.079
12.9481
1
1
1
1
1.00001
1.00002
1.00005
1.00012
1.00025
1.00055
1.0012
1.00262
1.0057
1.0124
1.02704
1.05913
1.13018
1.29075
1.66998
2.65607
5.86948
19.9639
17.588
14.7248
13.0207
12.5056
12.5851
12.7079
12.9831
12.8599
1
1
1
1
1.00001
1.00002
1.00005
1.00012
1.00025
1.00055
1.0012
1.00262
1.00569
1.0124
1.02703
1.05912
1.13016
1.29071
1.66989
2.65589
5.86956
19.7942
17.4376
14.5809
12.8889
12.4095
12.497
12.6131
12.8749
12.7608
1
1
1
1
1.00001
1.00002
1.00005
1.00012
1.00025
1.00055
1.0012
1.00262
1.00569
1.0124
1.02703
1.0591
1.13012
1.29062
1.66968
2.65539
5.86778
19.6129
17.2791
14.4305
12.7525
12.3076
12.4021
12.5082
12.7543
12.6533
1
1
1
1
1.00001
1.00002
1.00005
1.00012
1.00025
1.00055
1.0012
1.00261
1.00569
1.01239
1.02701
1.05907
1.13005
1.29046
1.66931
2.65447
5.86376
19.4203
17.1122
14.2742
12.6125
12.2003
12.3002
12.3937
12.621
12.53
1
1
1
1
1.00001
1.00002
1.00005
1.00012
1.00025
1.00055
1.0012
1.00261
1.00568
1.01238
1.02699
1.05902
1.12994
1.29022
1.66874
2.65301
5.85711
19.2161
16.9376
14.1119
12.4691
12.0866
12.1904
12.2684
12.4735
12.396
1
1
1
1
1.00001
1.00002
1.00005
1.00012
1.00025
1.00055
1.0012
1.00261
1.00568
1.01236
1.02696
1.05895
1.12979
1.28988
1.66792
2.65089
5.84744
19
16.7536
13.9443
12.3238
11.9674
12.0725
12.1326
12.3095
12.241
1
1
1
1
1.00001
1.00002
1.00005
1.00012
1.00025
1.00055
1.0012
1.0026
1.00567
1.01234
1.02691
1.05886
1.12958
1.28941
1.66681
2.64796
5.83416
18.7707
16.5618
13.7706
12.1769
11.8417
11.9453
11.9846
12.1262
12.0666
1
1
1
1
1.00001
1.00002
1.00005
1.00012
1.00025
1.00055
1.00119
1.0026
1.00566
1.01232
1.02686
1.05874
1.12931
1.2888
1.66535
2.64407
5.8167
18.5277
16.3596
13.592
12.0305
11.7102
11.8081
11.8245
11.921
11.8592
1
1
1
1
1.00001
1.00002
1.00005
1.00012
1.00025
1.00055
1.00119
1.00259
1.00564
1.01228
1.02679
1.05858
1.12897
1.28801
1.66347
2.63904
5.79438
18.2694
16.1485
13.4071
11.886
11.5712
11.6577
11.6502
11.6913
11.6142
1
1
1
1
1.00001
1.00002
1.00005
1.00012
1.00025
1.00055
1.00119
1.00258
1.00562
1.01224
1.0267
1.05839
1.12854
1.28703
1.6611
2.63268
5.76644
17.9947
15.9284
13.2168
11.7467
11.4258
11.494
11.4637
11.4305
11.3047
1
1
1
1
1.00001
1.00002
1.00005
1.00011
1.00025
1.00054
1.00118
1.00257
1.0056
1.0122
1.02659
1.05815
1.12801
1.28582
1.65818
2.62475
5.73216
17.702
15.6974
13.0282
11.6124
11.2734
11.317
11.2573
11.1228
10.919
1
1
1
1
1.00001
1.00002
1.00005
1.00011
1.00025
1.00054
1.00118
1.00256
1.00557
1.01214
1.02646
1.05787
1.12737
1.28436
1.65465
2.61501
5.69069
17.3891
15.4541
12.8502
11.485
11.1153
11.1227
11.0162
10.7518
10.4325
1
1
1
1
1.00001
1.00002
1.00005
1.00011
1.00025
1.00054
1.00117
1.00255
1.00554
1.01207
1.02631
1.05753
1.12662
1.28262
1.65042
2.60327
5.64114
17.0525
15.2036
12.6881
11.3667
10.9573
10.9108
10.7243
10.3016
9.79451
1
1
1
1
1.00001
1.00002
1.00005
1.00011
1.00025
1.00054
1.00116
1.00253
1.00551
1.01199
1.02614
1.05714
1.12575
1.2806
1.64547
2.5894
5.58232
16.6798
14.9662
12.55
11.2551
10.7897
10.6721
10.3752
9.7586
8.89936
1
1
1
1
1.00001
1.00002
1.00005
1.00011
1.00024
1.00053
1.00114
1.00249
1.00541
1.01177
1.02565
1.05605
1.12328
1.27487
1.63127
2.54867
5.41039
15.5994
14.475
12.2933
11
10.3616
10.0489
9.49984
8.39923
6.12659
1
1
1
1
1.00001
1.00002
1.00005
1.00011
1.00023
1.00051
1.0011
1.0024
1.00521
1.01134
1.02472
1.054
1.11872
1.26445
1.60616
2.47986
5.14509
14.1463
13.3881
11.7151
10.4511
9.70898
9.22707
8.56886
7.47999
5.29364
1
1
1
1
1.00001
1.00002
1.00005
1.0001
1.00022
1.00048
1.00104
1.00227
1.00493
1.01073
1.02338
1.05106
1.11214
1.24941
1.56994
2.38205
4.80048
12.5297
12.1206
11.0509
9.89879
9.1169
8.5363
7.86239
6.9946
5.35341
1
1
1
1
1.00001
1.00002
1.00004
1.00009
1.0002
1.00044
1.00096
1.00208
1.00451
1.00981
1.02134
1.04654
1.10205
1.22635
1.51475
2.23604
4.32789
10.7907
10.7472
10.3676
9.54036
8.7046
8.04262
7.38599
6.6942
5.54108
1
1
1
1
1.00001
1.00002
1.00004
1.00008
1.00017
1.00037
1.00081
1.00175
1.0038
1.00826
1.01795
1.03914
1.08576
1.18992
1.42993
2.02049
3.6806
8.82928
10.3367
10.075
9.41108
8.49637
7.78146
7.1504
6.53632
5.64382
1
1
1
1
1.00001
1.00001
1.00003
1.00006
1.00012
1.00026
1.00056
1.0012
1.00258
1.00554
1.01196
1.0259
1.05634
1.12343
1.2741
1.62561
2.52892
4.98057
10.1207
9.89074
9.29021
8.41794
7.66818
7.0129
6.41951
5.63691
1
1
1
1
1
1.00001
1.00002
1.00004
1.0001
1.00021
1.00045
1.00097
1.00209
1.00451
1.00974
1.02105
1.04564
1.09949
1.21944
1.49605
2.1823
4.08874
9.35658
9.3468
9.07534
8.41142
7.62052
6.94308
6.34566
5.61646
1
1
1
1
1
1.00001
1.00002
1.00003
1.00008
1.00016
1.00035
1.00077
1.00167
1.00362
1.00787
1.01707
1.03709
1.08087
1.17794
1.39963
1.93808
3.41615
7.68819
8.80774
8.66743
8.28372
7.60409
6.88818
6.26961
5.587
1
1
1
1
1
1
1.00001
1.00002
1.00005
1.0001
1.00023
1.00049
1.00106
1.0023
1.00499
1.01083
1.02351
1.05099
1.11081
1.24289
1.5446
2.29174
4.21351
8.23352
8.20595
8.04712
7.64765
6.88674
6.19475
5.54898
1
1
1
1
1
1
1.00001
1.00002
1.00003
1.00008
1.00016
1.00035
1.00077
1.00166
1.00359
1.00779
1.01689
1.0367
1.08001
1.17571
1.39245
1.91115
3.27692
6.87427
7.84425
7.76709
7.52085
6.94272
6.17565
5.52032
1
1
1
1
1
1
1.00001
1.00001
1.00002
1.00005
1.00011
1.00024
1.00051
1.00108
1.00233
1.00499
1.0107
1.02302
1.04972
1.10818
1.2383
1.53768
2.27631
4.11055
7.30435
7.29084
7.17934
6.86345
6.19156
5.5304
1
1
1
1
1
1
1
1.00001
1.00001
1.00003
1.00007
1.00014
1.00031
1.00068
1.00146
1.00315
1.0068
1.01472
1.03191
1.06951
1.15265
1.34089
1.78916
2.93894
5.94359
6.79632
6.76426
6.62544
6.25342
5.57471
1
1
1
1
1
1
1
1
1.00001
1.00002
1.00004
1.00008
1.00016
1.00036
1.00077
1.00166
1.00357
1.0077
1.01663
1.03598
1.07818
1.17135
1.38227
1.88357
3.10262
5.7183
6.47417
6.41511
6.20177
5.71423
1
1
1
1
1
1
1
1
1
1.00001
1.00002
1.00004
1.00008
1.00018
1.00038
1.00083
1.00178
1.00384
1.00827
1.01781
1.03841
1.08314
1.18149
1.40329
1.92644
3.21471
5.83943
6.07024
5.99364
5.70615
1
1
1
1
1
1
1
1
1
1
1.00001
1.00002
1.00005
1.0001
1.00023
1.00049
1.00106
1.0023
1.00499
1.01082
1.0235
1.05115
1.11182
1.24713
1.55951
2.32771
4.26855
5.51665
5.52823
5.45636
1
1
1
1
1
1
1
1
1
1
1.00001
1.00001
1.00002
1.00005
1.00011
1.00025
1.00053
1.00115
1.00249
1.00539
1.01165
1.02522
1.05475
1.11946
1.26361
1.59551
2.39118
4.28616
4.96938
4.94703
1
1
1
1
1
1
1
1
1
1
1
1.00001
1.00001
1.00002
1.00005
1.00011
1.00024
1.00051
1.00109
1.00233
1.005
1.01073
1.02307
1.04971
1.10765
1.23543
1.52446
2.19816
3.76036
4.48327
1
1
1
1
1
1
1
1
1
1
1
1
1
1.00001
1.00002
1.00005
1.0001
1.00022
1.00047
1.001
1.00215
1.0046
1.00986
1.02114
1.04544
1.09809
1.21356
1.47264
2.07261
3.46017
1
1
1
1
1
1
1
1
1
1
1
1
1
1
1.00001
1.00001
1.00003
1.00006
1.00013
1.00028
1.0006
1.00127
1.00267
1.00562
1.01185
1.02495
1.05255
1.11076
1.23359
1.49546
1
1
1
1
1
1
1
1
1
1
1
1
1
1
1
1.00001
1.00002
1.00003
1.00007
1.00014
1.0003
1.00064
1.00134
1.00283
1.00596
1.01256
1.02655
1.05645
1.12113
1.26434
1
1
1
1
1
1
1
1
1
1
1
1
1
1
1
1
1.00001
1.00002
1.00004
1.00009
1.00019
1.00038
1.00078
1.0016
1.00332
1.00704
1.01513
1.03292
1.07175
1.15733
1
1
1
1
1
1
1
1
1
1
1
1
1
1
1
1
1.00001
1.00001
1.00003
1.00006
1.00013
1.00027
1.0006
1.00129
1.0028
1.00609
1.01321
1.02861
1.06195
1.13464
1
1
1
1
1
1
1
1
1
1
1
1
1
1
1
1
1
1.00001
1.00002
1.00004
1.00009
1.00021
1.00046
1.00102
1.00227
1.00504
1.0111
1.02426
1.05258
1.11308
1
1
1
1
1
1
1
1
1
1
1
1
1
1
1
1
1
1.00001
1.00001
1.00002
1.00005
1.00011
1.00024
1.00052
1.00113
1.00248
1.00554
1.01254
1.02881
1.0667
1
1
1
1
1
1
1
1
1
1
1
1
1
1
1
1
1
1
1.00001
1.00002
1.00004
1.00009
1.00019
1.0004
1.00087
1.0019
1.00412
1.00895
1.0195
1.04267
1
1
1
1
1
1
1
1
1
1
1
1
1
1
1
1
1
1
1.00001
1.00001
1.00003
1.00006
1.00012
1.00026
1.00056
1.0012
1.00259
1.00561
1.01222
1.02671
1
1
1
1
1
1
1
1
1
1
1
1
1
1
1
1
1
1
1
1.00001
1.00002
1.00005
1.0001
1.00022
1.00048
1.00105
1.0023
1.005
1.01086
1.0236
1
1
1
1
1
1
1
1
1
1
1
1
1
1
1
1
1
1
1
1.00001
1.00002
1.00004
1.00008
1.00018
1.00039
1.00086
1.00191
1.00421
1.00927
1.02034
1
1
1
1
1
1
1
1
1
1
1
1
1
1
1
1
1
1
1
1
1.00001
1.00002
1.00004
1.00009
1.00019
1.00043
1.00096
1.00215
1.00487
1.0111
1
1
1
1
1
1
1
1
1
1
1
1
1
1
1
1
1
1
1
1
1.00001
1.00002
1.00003
1.00008
1.00017
1.00036
1.00079
1.00172
1.00376
1.00822
2.41515
1.52687
1.16534
1.17241
1.32714
1.36031
1.357
1.34802
1.32904
1.29476
1.24974
1.19021
1.10661
1.04942
1.01485
0.986187
1.00841
0.983982
0.882509
0.851541
0.81798
0.7909
0.780435
0.767525
0.763545
0.758338
0.756307
0.756828
0.790705
0.802273
2.63878
1.74155
1.43815
1.44739
1.41983
1.35955
1.32904
1.32064
1.30818
1.2833
1.24308
1.15463
1.1147
1.10445
1.08555
1.02268
0.941662
0.892031
0.858754
0.827913
0.801865
0.787514
0.780628
0.77581
0.776773
0.773975
0.77009
0.775753
0.772137
0.752678
3.16085
2.31693
2.07568
1.66986
1.45052
1.35218
1.32399
1.31826
1.31063
1.29274
1.25394
1.17894
1.10485
1.06482
1.04774
1.04982
1.04662
0.923823
0.875718
0.845092
0.82624
0.820054
0.81593
0.809509
0.803221
0.79262
0.775722
0.765482
0.767995
0.77549
4.2095
2.93244
2.19519
1.75581
1.49923
1.38174
1.3439
1.32678
1.31685
1.30003
1.26526
1.19974
1.11743
1.0633
1.02412
0.998216
0.986579
1.02193
0.972654
0.892321
0.857653
0.832075
0.819186
0.805033
0.792754
0.788919
0.793844
0.805603
0.826463
0.846358
4.34277
3.16649
2.45278
1.9663
1.64266
1.46359
1.38837
1.33846
1.31846
1.29159
1.25742
1.17871
1.11982
1.08863
1.07006
1.03294
0.982173
0.933626
0.906762
0.886995
0.864937
0.846736
0.840055
0.840689
0.841325
0.843252
0.84846
0.850067
0.83934
0.828004
4.40868
3.40627
2.73124
2.18928
1.78558
1.53378
1.42774
1.36101
1.33327
1.30369
1.26468
1.19121
1.15643
1.10737
1.06574
1.01169
0.958264
0.919222
0.892205
0.87548
0.87789
0.876539
0.874851
0.870274
0.864902
0.857027
0.843212
0.837527
0.835257
0.833733
4.52942
3.61936
2.96406
2.39132
1.94346
1.6301
1.49689
1.41317
1.36664
1.33682
1.27704
1.20136
1.15287
1.09896
1.05894
1.01321
0.967578
0.928808
0.892791
0.884316
0.868684
0.859542
0.851949
0.848282
0.848648
0.850728
0.849746
0.846411
0.845099
0.843389
4.62008
3.77016
3.12282
2.5586
2.09415
1.73172
1.5733
1.47536
1.40336
1.34742
1.27085
1.18627
1.14191
1.10172
1.06537
1.03323
0.990577
0.946603
0.908564
0.885802
0.870475
0.859016
0.850944
0.848768
0.847578
0.845052
0.838729
0.83708
0.837383
0.83812
4.63587
3.85915
3.22667
2.68401
2.22579
1.82971
1.64832
1.54018
1.44798
1.36404
1.27407
1.18384
1.14213
1.11935
1.08801
1.06033
1.01944
0.972726
0.92408
0.891339
0.87123
0.858485
0.849171
0.844885
0.841065
0.837808
0.834275
0.834136
0.834611
0.835051
4.64159
3.92653
3.31249
2.7919
2.34986
1.93837
1.7287
1.60721
1.50148
1.39014
1.28476
1.19555
1.15548
1.1369
1.12108
1.09512
1.04891
0.99548
0.939844
0.900499
0.875023
0.858199
0.848694
0.843388
0.839396
0.835402
0.83253
0.832636
0.832659
0.83383
4.64505
3.98412
3.40102
2.89042
2.46769
2.05698
1.81155
1.68088
1.5633
1.4382
1.31716
1.2049
1.15692
1.14375
1.13631
1.10941
1.07255
1.03128
0.968046
0.922283
0.892045
0.871125
0.857265
0.847312
0.843287
0.839491
0.835446
0.833159
0.832828
0.833108
4.65531
4.03903
3.48099
2.98545
2.57426
2.17819
1.89235
1.75915
1.63457
1.4931
1.34576
1.21525
1.17374
1.14386
1.11214
1.09556
1.07109
1.04135
1.00904
0.945508
0.912464
0.886719
0.868622
0.855943
0.849965
0.846519
0.844623
0.846584
0.847276
0.846969
4.68248
4.07943
3.5647
3.06764
2.66759
2.29139
1.97482
1.82989
1.70046
1.54598
1.4007
1.25057
1.18688
1.13599
1.10549
1.08992
1.0599
1.02779
1.00521
0.972786
0.928332
0.91165
0.900501
0.899146
0.89322
0.892296
0.894159
0.901365
0.902614
0.906885
4.73257
4.12958
3.64647
3.15391
2.755
2.39685
2.06351
1.90663
1.7646
1.59538
1.44453
1.28475
1.1998
1.13959
1.10719
1.08951
1.06107
1.03726
0.999586
0.971082
0.956992
0.949007
0.93938
0.926606
0.911453
0.911324
0.909922
0.90487
0.905556
0.908804
4.72954
4.15384
3.71808
3.25615
2.836
2.48372
2.14405
1.97822
1.82783
1.64248
1.4825
1.31919
1.2271
1.15651
1.1182
1.09365
1.06553
1.03123
1.00032
0.982211
0.961914
0.951586
0.939237
0.930983
0.934198
0.935029
0.93371
0.926059
0.91927
0.912817
4.66777
4.18244
3.77351
3.38876
2.94387
2.55932
2.20482
2.02967
1.88153
1.68835
1.52175
1.35606
1.25987
1.18551
1.13936
1.10576
1.07146
1.03452
1.00674
0.982735
0.973669
0.97134
0.971544
0.967764
0.957744
0.955857
0.956748
0.958121
0.945223
0.920399
4.46317
4.25462
3.8426
3.47619
3.07124
2.65643
2.27346
2.06893
1.92542
1.73822
1.56614
1.40322
1.30391
1.22411
1.17512
1.12794
1.08501
1.04949
1.02875
1.00797
1.00688
1.00458
0.997613
0.98092
0.96404
0.960025
0.956098
0.946883
0.945721
0.952938
4.17181
4.15845
3.99109
3.62527
3.22234
2.77288
2.35178
2.12203
1.95097
1.78698
1.61914
1.4631
1.35802
1.28269
1.24052
1.17254
1.12175
1.09191
1.09157
1.095
1.08935
1.07819
1.05789
1.01121
0.9758
0.963004
0.950554
0.946519
0.948779
0.951634
3.56559
3.96569
3.93298
3.76759
3.40727
2.86482
2.43858
2.1884
1.98465
1.83425
1.68143
1.53909
1.41981
1.35306
1.30767
1.25047
1.20675
1.20118
1.18648
1.14889
1.10085
1.08004
1.06301
1.0231
0.983707
0.961678
0.944161
0.943628
0.944001
0.952581
2.33883
3.92182
3.86999
3.73814
3.49244
2.9558
2.54108
2.27626
2.0466
1.88927
1.76019
1.62997
1.52401
1.45049
1.42002
1.37754
1.34331
1.28033
1.19979
1.14915
1.11731
1.09137
1.04374
1.00847
0.984
0.961893
0.962075
0.955853
0.933625
0.938869
1.73101
3.76985
3.73291
3.6462
3.48234
3.14419
2.6599
2.36729
2.12912
1.9661
1.84779
1.76366
1.65054
1.56605
1.51828
1.45414
1.36909
1.28888
1.22339
1.17755
1.13267
1.07872
1.02425
0.975171
0.959126
0.965736
0.955349
0.922766
0.856918
0.736092
1.60626
3.41919
3.64276
3.6038
3.4893
3.26519
2.81158
2.49769
2.26314
2.07258
1.93127
1.84269
1.79199
1.69242
1.63834
1.55914
1.44223
1.33624
1.26007
1.18299
1.11873
1.07017
0.998717
0.902663
0.773538
0.704045
0.751398
1.62767
3.17646
3.38946
1.4754
2.87408
3.51828
3.51315
3.47859
3.36768
3.05623
2.68496
2.39011
2.20195
2.07269
1.98128
1.86603
1.76054
1.68933
1.61648
1.5168
1.413
1.26876
1.14155
1.01236
0.980678
1.04826
1.66219
3.32986
3.38775
3.26651
2.67375
2.75458
2.54588
1.30003
2.16056
3.31534
3.48388
3.46245
3.3916
3.2312
2.91
2.58259
2.37722
2.22409
2.12653
2.00297
1.88584
1.79354
1.70065
1.51245
1.41639
1.45304
1.63703
2.54842
3.27393
2.93791
2.47614
2.6563
2.72012
2.63944
2.61711
2.58064
2.35448
1.17437
1.65616
2.78781
3.43735
3.42749
3.39406
3.3037
3.1176
2.78508
2.60225
2.49873
2.43081
2.33313
2.29078
2.45585
3.28786
3.70551
3.88753
3.69573
3.45437
2.82482
2.63267
2.51142
2.40687
2.34692
2.3524
2.34687
2.40404
2.40232
2.28412
1.1067
1.3816
1.99531
3.31412
3.39266
3.40842
3.39296
3.3363
3.19715
3.08669
3.12387
3.25517
3.57452
4.28837
4.17153
3.84713
3.38328
3.25053
3.14829
3.07135
2.88468
2.45424
2.34836
2.28221
2.2318
2.23881
2.26028
2.30688
2.28654
2.24725
1.09304
1.32853
1.85933
3.04402
3.31545
3.43798
3.58228
3.79454
4.10072
4.25501
4.67145
5.26289
5.09342
4.60724
4.32868
4.09329
3.63449
3.21041
3.04136
2.91137
2.66642
2.41028
2.30135
2.22858
2.19927
2.2058
2.22384
2.2604
2.23784
2.21386
1.08062
1.28344
1.74128
3.00012
3.15489
3.46007
3.98338
4.85461
6.31469
6.51365
6.38786
6.0353
5.34626
4.69036
4.26981
4.05141
3.84018
3.53902
3.18598
2.8721
2.58342
2.40407
2.2802
2.2062
2.19109
2.19624
2.21304
2.23675
2.22038
2.20542
1.04658
1.16933
1.44275
1.83552
2.79833
3.56449
4.99905
7.14038
7.11751
7.01938
6.77645
6.36116
5.67379
5.10802
4.62084
4.21008
4.02749
3.66797
3.28687
2.90183
2.5767
2.39073
2.27408
2.20758
2.20091
2.20444
2.20948
2.22134
2.23746
2.22543
1.03219
1.1111
1.2764
1.63137
2.44526
4.14315
7.72829
7.74533
7.65738
7.46744
7.1752
6.70401
6.01836
5.41625
4.9878
4.56733
4.18501
3.73002
3.37869
2.95549
2.594
2.42319
2.31836
2.24069
2.21749
2.22087
2.22947
2.24798
2.28794
2.28579
)
;

boundaryField
{
    inlet
    {
        type            fixedValue;
        value           uniform 1;
    }
    outlet
    {
        type            waveTransmissive;
        gamma           1.4;
        fieldInf        1;
        lInf            3;
        value           nonuniform List<scalar> 
30
(
0.768834
0.766325
0.777571
0.817993
0.841424
0.842451
0.848244
0.842203
0.839334
0.838884
0.841076
0.851314
0.886756
0.920306
0.932035
0.938354
0.953406
0.965134
0.964528
0.957015
0.850774
3.01476
2.67389
2.50294
2.38237
2.34305
2.30955
2.29993
2.32605
2.39069
)
;
    }
    top
    {
        type            symmetryPlane;
    }
    bottom
    {
        type            symmetryPlane;
    }
    step
    {
        type            zeroGradient;
    }
    defaultFaces
    {
        type            empty;
    }
}


// ************************************************************************* //
