/*--------------------------------*- C++ -*----------------------------------*\
  =========                 |
  \\      /  F ield         | OpenFOAM: The Open Source CFD Toolbox
   \\    /   O peration     | Website:  https://openfoam.org
    \\  /    A nd           | Version:  6.0
     \\/     M anipulation  |
\*---------------------------------------------------------------------------*/
FoamFile
{
    version     2.0;
    format      ascii;
    class       surfaceScalarField;
    location    "1";
    object      phi;
}
// * * * * * * * * * * * * * * * * * * * * * * * * * * * * * * * * * * * * * //

dimensions      [1 0 -1 0 0 0 0];

internalField   nonuniform List<scalar> 
5280
(
0.00279994
-2.72912e-14
0.00279994
-1.70171e-13
0.00279994
-5.70924e-13
0.00279994
-1.5483e-12
0.00279994
-3.80544e-12
0.00279994
-8.89545e-12
0.00279994
-2.02652e-11
0.00279994
-4.55944e-11
0.00279994
-1.02036e-10
0.00279994
-2.2796e-10
0.00279994
-5.09295e-10
0.00279994
-1.13881e-09
0.00279994
-2.55046e-09
0.00279994
-5.72903e-09
0.00279995
-1.29489e-08
0.00279998
-2.96568e-08
0.00280004
-6.98444e-08
0.00280022
-1.73882e-07
0.00280071
-4.79275e-07
0.00280271
-1.60272e-06
0.00281027
-7.82721e-06
0.00268543
7.96052e-05
0.00246849
0.00019484
0.00219312
0.000256036
0.00182815
0.000335349
0.00137891
0.000412982
0.000877872
0.000398424
0.000644626
0.000241159
0.000300688
0.000360219
0.000303813
0.00279994
-5.41631e-14
0.00279994
-3.3735e-13
0.00279994
-1.13005e-12
0.00279994
-3.05806e-12
0.00279994
-7.49807e-12
0.00279994
-1.74828e-11
0.00279994
-3.9724e-11
0.00279994
-8.91335e-11
0.00279994
-1.98925e-10
0.00279994
-4.43199e-10
0.00279994
-9.87483e-10
0.00279994
-2.2022e-09
0.00279994
-4.91916e-09
0.00279994
-1.10208e-08
0.00279995
-2.48396e-08
0.00279997
-5.66997e-08
0.00280003
-1.32913e-07
0.00280019
-3.28289e-07
0.00280061
-8.90093e-07
0.00280233
-2.90618e-06
0.0028093
-1.50661e-05
0.00266858
0.00017578
0.00244767
0.000393444
0.00216783
0.000516556
0.00180527
0.000668264
0.00138
0.000803622
0.000873857
0.000803952
0.000631984
0.000490489
0.000339783
0.00066983
0.000647784
0.00279994
-8.01937e-14
0.00279994
-4.98776e-13
0.00279994
-1.66689e-12
0.00279994
-4.49618e-12
0.00279994
-1.09839e-11
0.00279994
-2.55125e-11
0.00279994
-5.77412e-11
0.00279994
-1.29043e-10
0.00279994
-2.8684e-10
0.00279994
-6.36556e-10
0.00279994
-1.41296e-09
0.00279994
-3.13993e-09
0.00279994
-6.99108e-09
0.00279994
-1.56164e-08
0.00279995
-3.51016e-08
0.00279997
-7.99129e-08
0.00280002
-1.86791e-07
0.00280015
-4.59582e-07
0.00280052
-1.23749e-06
0.00280205
-4.00623e-06
0.0028081
-2.13592e-05
0.00265222
0.000287847
0.00243158
0.000592617
0.00214613
0.000782557
0.00179082
0.000993129
0.00138561
0.00117552
0.000913541
0.00117952
0.000640117
0.000771174
0.000361277
0.000969276
0.00101459
0.00279994
-1.0494e-13
0.00279994
-6.51568e-13
0.00279994
-2.1713e-12
0.00279994
-5.83321e-12
0.00279994
-1.41853e-11
0.00279994
-3.27913e-11
0.00279994
-7.38531e-11
0.00279994
-1.64237e-10
0.00279994
-3.63278e-10
0.00279994
-8.02351e-10
0.00279994
-1.77299e-09
0.00279994
-3.92398e-09
0.00279994
-8.70564e-09
0.00279994
-1.9388e-08
0.00279994
-4.34738e-08
0.00279996
-9.8787e-08
0.0028
-2.30565e-07
0.00280011
-5.66463e-07
0.00280042
-1.52173e-06
0.00280178
-4.91394e-06
0.00280676
-2.65603e-05
0.00263819
0.000413301
0.00241694
0.000793623
0.00212898
0.00105146
0.0017841
0.00130744
0.00139799
0.00152773
0.000972292
0.00151521
0.000654844
0.0010983
0.000374321
0.00127813
0.00139773
0.00279994
-1.27787e-13
0.00279994
-7.91996e-13
0.00279994
-2.63117e-12
0.00279994
-7.03749e-12
0.00279994
-1.70272e-11
0.00279994
-3.9151e-11
0.00279994
-8.76942e-11
0.00279994
-1.93935e-10
0.00279994
-4.26594e-10
0.00279994
-9.37119e-10
0.00279994
-2.0603e-09
0.00279994
-4.53892e-09
0.00279994
-1.00298e-08
0.00279994
-2.22639e-08
0.00279994
-4.97967e-08
0.00279995
-1.12954e-07
0.00279997
-2.63337e-07
0.00280006
-6.46518e-07
0.0028003
-1.73493e-06
0.00280147
-5.60255e-06
0.00280542
-3.07555e-05
0.00262823
0.000548018
0.00240018
0.00100229
0.00211574
0.00131859
0.00178483
0.00160878
0.00140963
0.00186556
0.0010139
0.00182902
0.000672085
0.00145079
0.000374751
0.00160878
0.00178194
0.00279994
-1.47923e-13
0.00279994
-9.15187e-13
0.00279994
-3.03133e-12
0.00279994
-8.07206e-12
0.00279994
-1.94306e-11
0.00279994
-4.44349e-11
0.00279994
-9.89731e-11
0.00279994
-2.1763e-10
0.00279994
-4.7597e-10
0.00279994
-1.0397e-09
0.00279994
-2.27362e-09
0.00279994
-4.98441e-09
0.00279994
-1.09672e-08
0.00279993
-2.42588e-08
0.00279993
-5.41121e-08
0.00279993
-1.22517e-07
0.00279995
-2.85345e-07
0.0028
-7.00337e-07
0.00280016
-1.87911e-06
0.00280113
-6.08178e-06
0.00280405
-3.39722e-05
0.0026208
0.000689119
0.00238276
0.00122226
0.00210729
0.00157905
0.00178595
0.00189987
0.00142022
0.00218865
0.00102912
0.00214834
0.000671226
0.00181815
0.000357125
0.00195849
0.00214879
0.00279994
-1.64319e-13
0.00279994
-1.01502e-12
0.00279994
-3.35298e-12
0.00279994
-8.89302e-12
0.00279994
-2.13069e-11
0.00279994
-4.84832e-11
0.00279994
-1.07432e-10
0.00279994
-2.34974e-10
0.00279994
-5.11126e-10
0.00279994
-1.11049e-09
0.00279994
-2.41576e-09
0.00279994
-5.27025e-09
0.00279993
-1.15456e-08
0.00279993
-2.54433e-08
0.00279993
-5.65865e-08
0.00279992
-1.27847e-07
0.00279991
-2.9739e-07
0.00279993
-7.29606e-07
0.0028
-1.95762e-06
0.00280077
-6.35744e-06
0.00280257
-3.62104e-05
0.00261235
0.000837352
0.002369
0.0014489
0.00210085
0.00183263
0.00178504
0.00218486
0.00143216
0.00249503
0.00104039
0.00247714
0.00066816
0.00219842
0.000345574
0.00232084
0.0025052
0.00279994
-1.7579e-13
0.00279994
-1.08451e-12
0.00279994
-3.57484e-12
0.00279994
-9.45129e-12
0.00279994
-2.256e-11
0.00279994
-5.11287e-11
0.00279994
-1.12819e-10
0.00279994
-2.45678e-10
0.00279994
-5.3199e-10
0.00279994
-1.15048e-09
0.00279994
-2.49124e-09
0.00279994
-5.41068e-09
0.00279993
-1.18038e-08
0.00279993
-2.59146e-08
0.00279992
-5.74501e-08
0.0027999
-1.29471e-07
0.00279987
-3.00644e-07
0.00279984
-7.36939e-07
0.00279982
-1.97662e-06
0.00280039
-6.44301e-06
0.00280095
-3.74227e-05
0.00260335
0.000992803
0.0023587
0.00167778
0.00209473
0.00208119
0.00178243
0.0024659
0.00144061
0.00278997
0.00104113
0.00281579
0.000668101
0.00257871
0.00033792
0.00269358
0.00285493
0.00279994
-1.81175e-13
0.00279994
-1.11673e-12
0.00279994
-3.67575e-12
0.00279994
-9.6981e-12
0.00279994
-2.30936e-11
0.00279994
-5.22029e-11
0.00279994
-1.14872e-10
0.00279994
-2.49409e-10
0.00279994
-5.38348e-10
0.00279994
-1.16025e-09
0.00279994
-2.50334e-09
0.00279993
-5.41674e-09
0.00279993
-1.17729e-08
0.00279992
-2.57534e-08
0.00279991
-5.69005e-08
0.00279988
-1.27853e-07
0.00279983
-2.96185e-07
0.00279976
-7.24858e-07
0.00279963
-1.94237e-06
0.00279999
-6.35337e-06
0.00279916
-3.75434e-05
0.00259411
0.00115512
0.00235176
0.0019048
0.00208849
0.00232688
0.00177949
0.00274312
0.0014481
0.0030737
0.00105189
0.00314889
0.000679546
0.00295999
0.000338301
0.00308291
0.00320457
0.00279994
-1.79529e-13
0.00279994
-1.10609e-12
0.00279994
-3.63851e-12
0.00279994
-9.59299e-12
0.00279994
-2.28253e-11
0.00279994
-5.15511e-11
0.00279994
-1.13321e-10
0.00279994
-2.45727e-10
0.00279994
-5.29548e-10
0.00279994
-1.13901e-09
0.00279994
-2.45159e-09
0.00279993
-5.28988e-09
0.00279993
-1.1461e-08
0.00279992
-2.49861e-08
0.0027999
-5.50121e-08
0.00279986
-1.23186e-07
0.00279979
-2.84488e-07
0.00279967
-6.94476e-07
0.00279943
-1.85722e-06
0.00279956
-6.09313e-06
0.00279728
-3.65613e-05
0.00258509
0.00132366
0.00234796
0.00212635
0.00208219
0.00257321
0.00177625
0.00301729
0.00145257
0.00335086
0.00107061
0.00346975
0.000699586
0.00334267
0.000347085
0.00348599
0.00355836
0.00279994
-1.70367e-13
0.00279994
-1.04964e-12
0.00279994
-3.4536e-12
0.00279994
-9.11155e-12
0.00279994
-2.16985e-11
0.00279994
-4.90483e-11
0.00279994
-1.07894e-10
0.00279994
-2.34053e-10
0.00279994
-5.04374e-10
0.00279994
-1.08423e-09
0.00279994
-2.33088e-09
0.00279993
-5.02004e-09
0.00279993
-1.0849e-08
0.00279992
-2.35784e-08
0.00279989
-5.17274e-08
0.00279985
-1.15384e-07
0.00279975
-2.65437e-07
0.00279958
-6.4566e-07
0.00279923
-1.72093e-06
0.00279912
-5.66333e-06
0.00279545
-3.45528e-05
0.0025785
0.00149575
0.00234333
0.00234508
0.00207688
0.00281879
0.00177467
0.00328795
0.0014566
0.00362415
0.00108365
0.00378278
0.000715503
0.00371564
0.000357575
0.00389032
0.00391915
0.00279994
-1.53716e-13
0.00279994
-9.47359e-13
0.00279994
-3.12001e-12
0.00279994
-8.2468e-12
0.00279994
-1.96841e-11
0.00279994
-4.45984e-11
0.00279994
-9.83166e-11
0.00279994
-2.13663e-10
0.00279994
-4.61044e-10
0.00279994
-9.91776e-10
0.00279994
-2.13197e-09
0.00279993
-4.58739e-09
0.00279993
-9.89586e-09
0.00279992
-2.14482e-08
0.00279989
-4.68872e-08
0.00279983
-1.04148e-07
0.00279972
-2.38492e-07
0.0027995
-5.77474e-07
0.00279904
-1.53205e-06
0.00279869
-5.06477e-06
0.00279372
-3.15837e-05
0.00257368
0.00166961
0.0023386
0.00256284
0.00207274
0.00306285
0.00177488
0.0035543
0.00146128
0.00389391
0.00109472
0.00408953
0.000729918
0.00407777
0.000367633
0.00429585
0.00429146
0.00279994
-1.2983e-13
0.00279994
-8.00693e-13
0.00279994
-2.6413e-12
0.00279994
-7.00162e-12
0.00279994
-1.67686e-11
0.00279994
-3.81227e-11
0.00279994
-8.43125e-11
0.00279994
-1.83763e-10
0.00279994
-3.97501e-10
0.00279994
-8.56649e-10
0.00279994
-1.84333e-09
0.00279993
-3.96622e-09
0.00279993
-8.54559e-09
0.00279991
-1.84762e-08
0.00279988
-4.02415e-08
0.00279982
-8.89632e-08
0.00279969
-2.02617e-07
0.00279943
-4.87863e-07
0.00279888
-1.28659e-06
0.00279826
-4.29181e-06
0.0027921
-2.76853e-05
0.00256992
0.0018445
0.00233471
0.00277985
0.00206929
0.00330573
0.00177654
0.0038154
0.00146685
0.00416002
0.00110561
0.00438996
0.000744227
0.00443117
0.000377825
0.00470496
0.00467731
0.00279994
-9.8881e-14
0.00279994
-6.10805e-13
0.00279994
-2.02114e-12
0.00279994
-5.38107e-12
0.00279994
-1.2948e-11
0.00279994
-2.95711e-11
0.00279994
-6.5681e-11
0.00279994
-1.43726e-10
0.00279994
-3.11998e-10
0.00279994
-6.74299e-10
0.00279994
-1.45361e-09
0.00279993
-3.12916e-09
0.00279993
-6.73457e-09
0.00279991
-1.45197e-08
0.00279988
-3.14839e-08
0.00279981
-6.9197e-08
0.00279967
-1.56517e-07
0.00279938
-3.73997e-07
0.00279873
-9.75222e-07
0.00279784
-3.3062e-06
0.00279061
-2.28982e-05
0.00256754
0.0020196
0.00233037
0.00299805
0.00206757
0.00354563
0.0017796
0.0040717
0.00147318
0.00442287
0.00111742
0.00468439
0.000759252
0.00477781
0.000388635
0.0051181
0.0050815
0.00279994
-6.09849e-14
0.00279994
-3.78677e-13
0.00279994
-1.26316e-12
0.00279994
-3.393e-12
0.00279994
-8.23164e-12
0.00279994
-1.89361e-11
0.00279994
-4.23307e-11
0.00279994
-9.31698e-11
0.00279994
-2.03297e-10
0.00279994
-4.41229e-10
0.00279994
-9.53946e-10
0.00279993
-2.05616e-09
0.00279993
-4.4226e-09
0.00279991
-9.5108e-09
0.00279988
-2.05284e-08
0.00279981
-4.48273e-08
0.00279966
-1.00497e-07
0.00279935
-2.38304e-07
0.00279868
-6.11057e-07
0.00279725
-2.14746e-06
0.00278923
-1.71955e-05
0.00256626
0.00219443
0.00232628
0.00321866
0.00206576
0.00378278
0.00178404
0.00432165
0.00148096
0.00468191
0.00112964
0.00497167
0.000772921
0.0051198
0.000398611
0.00553724
0.00550383
0.00279994
-1.62649e-14
0.00279994
-1.04807e-13
0.00279994
-3.67934e-13
0.00279994
-1.03507e-12
0.00279994
-2.60233e-12
0.00279994
-6.14869e-12
0.00279994
-1.40421e-11
0.00279994
-3.15008e-11
0.00279994
-7.0014e-11
0.00279994
-1.54787e-10
0.00279994
-3.40851e-10
0.00279993
-7.47753e-10
0.00279993
-1.63429e-09
0.00279991
-3.56185e-09
0.00279988
-7.7671e-09
0.00279981
-1.70964e-08
0.00279966
-3.86798e-08
0.00279933
-9.32276e-08
0.00279866
-2.47939e-07
0.00279673
-9.59861e-07
0.00278757
-1.0334e-05
0.00256417
0.00237026
0.00232423
0.00343931
0.00206528
0.0040181
0.00178904
0.00456608
0.00148871
0.00493765
0.00114267
0.00525182
0.000788565
0.00545811
0.000410195
0.0059632
0.0059434
0.00279994
3.60425e-14
0.00279994
2.15745e-13
0.00279994
6.8182e-13
0.00279994
1.74121e-12
0.00279994
4.0632e-12
0.00279994
9.0905e-12
0.00279994
1.99024e-11
0.00279994
4.30337e-11
0.00279994
9.23239e-11
0.00279994
1.97091e-10
0.00279994
4.19556e-10
0.00279993
8.92245e-10
0.00279993
1.8991e-09
0.00279991
4.05476e-09
0.00279988
8.71204e-09
0.0027998
1.89339e-08
0.00279964
4.194e-08
0.00279928
9.57728e-08
0.00279851
2.27891e-07
0.00279641
4.22297e-07
0.00278622
-2.41532e-06
0.00256301
0.00254713
0.00232146
0.003662
0.00206547
0.00425045
0.00179561
0.004804
0.00149837
0.00519001
0.00115195
0.00552982
0.000798421
0.00579241
0.000419967
0.00639044
0.00640435
0.00279994
9.78447e-14
0.00279994
5.94406e-13
0.00279994
1.9223e-12
0.00279994
5.02766e-12
0.00279994
1.19751e-11
0.00279994
2.72393e-11
0.00279994
6.04766e-11
0.00279994
1.32474e-10
0.00279994
2.87911e-10
0.00279994
6.22759e-10
0.00279994
1.34315e-09
0.00279993
2.89231e-09
0.00279992
6.22611e-09
0.00279991
1.3421e-08
0.00279987
2.90582e-08
0.00279979
6.35649e-08
0.00279962
1.42034e-07
0.00279923
3.30297e-07
0.00279837
8.19467e-07
0.00279602
2.08136e-06
0.0027845
6.98107e-06
0.00256139
0.00272565
0.0023206
0.00388443
0.00206671
0.00448074
0.00180251
0.00503643
0.00150637
0.00544196
0.00116389
0.00580284
0.000810973
0.00612345
0.000430832
0.00682261
0.00687217
0.00279994
1.71346e-13
0.00279994
1.04467e-12
0.00279994
3.3973e-12
0.00279994
8.93664e-12
0.00279994
2.13912e-11
0.00279994
4.88567e-11
0.00279994
1.08858e-10
0.00279994
2.39263e-10
0.00279994
5.21801e-10
0.00279994
1.1327e-09
0.00279993
2.45184e-09
0.00279993
5.2985e-09
0.00279992
1.14445e-08
0.00279991
2.47481e-08
0.00279987
5.37451e-08
0.00279978
1.17944e-07
0.00279959
2.64683e-07
0.00279916
6.20201e-07
0.00279816
1.56286e-06
0.00279537
4.21995e-06
0.00278207
1.83506e-05
0.00256017
0.00290506
0.00231852
0.00410881
0.00206846
0.00470762
0.00181183
0.00526132
0.00151833
0.00569205
0.00117102
0.00608037
0.000819606
0.00644864
0.000440856
0.00725099
0.00735639
0.00279994
2.58686e-13
0.00279994
1.57969e-12
0.00279994
5.14948e-12
0.00279994
1.35763e-11
0.00279994
3.25565e-11
0.00279994
7.44689e-11
0.00279994
1.66154e-10
0.00279994
3.65731e-10
0.00279994
7.98921e-10
0.00279994
1.73747e-09
0.00279993
3.76859e-09
0.00279993
8.16192e-09
0.00279992
1.76702e-08
0.0027999
3.83043e-08
0.00279986
8.34024e-08
0.00279976
1.83568e-07
0.00279955
4.135e-07
0.00279906
9.74336e-07
0.0027979
2.48e-06
0.00279462
6.88906e-06
0.00277938
3.18545e-05
0.00255819
0.00308646
0.00231894
0.0043312
0.00207174
0.00493165
0.00182161
0.00547945
0.00153021
0.00594011
0.0011835
0.0063574
0.000831011
0.00677074
0.000452724
0.00767532
0.00785194
0.00279994
3.61716e-13
0.00279994
2.21091e-12
0.00279994
7.216e-12
0.00279994
1.90402e-11
0.00279994
4.56779e-11
0.00279994
1.04506e-10
0.00279994
2.33229e-10
0.00279994
5.13591e-10
0.00279994
1.12268e-09
0.00279994
2.44391e-09
0.00279993
5.30743e-09
0.00279993
1.15119e-08
0.00279992
2.49664e-08
0.0027999
5.42279e-08
0.00279985
1.18339e-07
0.00279974
2.61139e-07
0.0027995
5.90095e-07
0.00279894
1.39641e-06
0.00279761
3.57853e-06
0.00279383
1.00947e-05
0.00277671
4.74519e-05
0.0025585
0.00326745
0.0023157
0.00455864
0.00207477
0.00515054
0.00183505
0.00568786
0.0015486
0.00618391
0.00119425
0.0066411
0.000842437
0.00708635
0.000465653
0.00809337
0.00835796
0.00279994
4.8191e-13
0.00279994
2.94744e-12
0.00279994
9.62664e-12
0.00279994
2.5404e-11
0.00279994
6.0926e-11
0.00279994
1.39328e-10
0.00279994
3.10824e-10
0.00279994
6.84339e-10
0.00279994
1.49607e-09
0.00279994
3.25808e-09
0.00279993
7.08069e-09
0.00279993
1.53742e-08
0.00279992
3.33872e-08
0.00279989
7.26363e-08
0.00279984
1.58814e-07
0.00279972
3.5123e-07
0.00279944
7.95745e-07
0.00279881
1.88917e-06
0.0027973
4.86333e-06
0.00279302
1.38441e-05
0.00277349
6.56408e-05
0.00255245
0.00345414
0.00231814
0.00477911
0.00207938
0.00536846
0.00184962
0.00588724
0.00156812
0.00642367
0.00121477
0.00692357
0.000861091
0.00740076
0.000484851
0.00850942
0.0088823
0.00279994
6.2031e-13
0.00279994
3.79553e-12
0.00279994
1.24013e-11
0.00279994
3.27193e-11
0.00279994
7.84227e-11
0.00279994
1.79213e-10
0.00279994
3.99559e-10
0.00279994
8.79372e-10
0.00279994
1.92227e-09
0.00279994
4.18719e-09
0.00279993
9.10503e-09
0.00279993
1.97873e-08
0.00279991
4.30236e-08
0.00279989
9.37456e-08
0.00279983
2.05349e-07
0.00279969
4.55133e-07
0.00279938
1.03376e-06
0.00279868
2.46176e-06
0.00279695
6.36347e-06
0.00279206
1.82367e-05
0.0027702
8.6376e-05
0.00255269
0.00364014
0.00231245
0.0050069
0.0020844
0.00557738
0.00186946
0.00607277
0.00159732
0.00665458
0.00123736
0.00721247
0.000882653
0.00771268
0.000508059
0.00892094
0.00943113
0.00279994
7.76988e-13
0.00279994
4.7555e-12
0.00279994
1.55412e-11
0.00279994
4.09918e-11
0.00279994
9.81941e-11
0.00279994
2.24256e-10
0.00279994
4.99743e-10
0.00279994
1.09959e-09
0.00279994
2.40374e-09
0.00279994
5.23773e-09
0.00279993
1.13968e-08
0.00279993
2.47914e-08
0.00279991
5.39718e-08
0.00279988
1.17783e-07
0.00279981
2.58473e-07
0.00279966
5.74072e-07
0.00279933
1.30699e-06
0.00279854
3.12084e-06
0.00279659
8.09434e-06
0.00279107
2.33135e-05
0.00276633
0.000110235
0.00254456
0.00383319
0.00231479
0.00522648
0.00208832
0.00578547
0.0018909
0.00624224
0.00162918
0.00687621
0.00127099
0.00749988
0.000914633
0.00802462
0.000545084
0.00932763
0.0100149
0.00279994
9.50707e-13
0.00279994
5.81967e-12
0.00279994
1.90218e-11
0.00279994
5.01648e-11
0.00279994
1.20132e-10
0.00279994
2.74287e-10
0.00279994
6.11178e-10
0.00279994
1.34497e-09
0.00279994
2.94131e-09
0.00279994
6.41334e-09
0.00279993
1.39677e-08
0.00279993
3.04199e-08
0.00279991
6.63202e-08
0.00279988
1.44973e-07
0.00279981
3.18742e-07
0.00279964
7.09414e-07
0.00279927
1.61885e-06
0.0027984
3.8754e-06
0.00279622
1.00827e-05
0.00279
2.91665e-05
0.0027621
0.000137541
0.00253798
0.00403164
0.0023091
0.00544658
0.00209216
0.00598823
0.00192002
0.00638909
0.00167656
0.00708131
0.00131772
0.00778951
0.000963812
0.00833077
0.000595073
0.00973142
0.010648
0.00279994
1.13883e-12
0.00279994
6.97158e-12
0.00279994
2.27894e-11
0.00279994
6.01038e-11
0.00279994
1.43943e-10
0.00279994
3.28721e-10
0.00279994
7.32771e-10
0.00279994
1.61358e-09
0.00279994
3.53182e-09
0.00279994
7.70932e-09
0.00279993
1.68121e-08
0.00279993
3.66697e-08
0.00279991
8.00801e-08
0.00279988
1.75375e-07
0.0027998
3.86359e-07
0.00279963
8.61739e-07
0.00279923
1.9709e-06
0.00279829
4.72956e-06
0.00279587
1.23399e-05
0.00278886
3.59246e-05
0.00275777
0.000168427
0.00252811
0.00423879
0.00229777
0.00567064
0.00210214
0.00617084
0.00195209
0.00651525
0.00173319
0.0072629
0.00139573
0.00805473
0.00104924
0.00863108
0.000666537
0.0101494
0.0113506
0.00279994
1.33686e-12
0.00279994
8.18338e-12
0.00279994
2.67526e-11
0.00279994
7.05732e-11
0.00279994
1.69089e-10
0.00279994
3.86397e-10
0.00279994
8.62106e-10
0.00279994
1.90051e-09
0.00279994
4.16535e-09
0.00279994
9.10591e-09
0.00279993
1.98909e-08
0.00279993
4.34637e-08
0.00279991
9.51021e-08
0.00279988
2.08704e-07
0.0027998
4.6078e-07
0.00279962
1.03003e-06
0.00279921
2.36124e-06
0.00279821
5.67947e-06
0.00279561
1.48505e-05
0.0027878
4.36295e-05
0.00275293
0.000203537
0.0025131
0.00445954
0.0022733
0.0059059
0.00211741
0.0063171
0.00199293
0.00661938
0.00180794
0.00741368
0.00148791
0.00831112
0.00111103
0.00896295
0.000704256
0.0105897
0.0120817
0.00279994
1.53868e-12
0.00279994
9.41699e-12
0.00279994
3.07849e-11
0.00279994
8.12376e-11
0.00279994
1.94766e-10
0.00279994
4.45492e-10
0.00279994
9.9515e-10
0.00279994
2.19693e-09
0.00279994
4.8228e-09
0.00279994
1.05619e-08
0.00279993
2.31156e-08
0.00279993
5.06136e-08
0.00279991
1.10989e-07
0.00279988
2.44134e-07
0.0027998
5.40339e-07
0.00279963
1.21108e-06
0.00279921
2.78424e-06
0.00279818
6.71862e-06
0.00279539
1.764e-05
0.00278677
5.21902e-05
0.00274851
0.000242661
0.00248522
0.00470725
0.00224884
0.00613941
0.00213577
0.00642383
0.00204045
0.00669563
0.00189968
0.00752348
0.00161101
0.00854264
0.00120647
0.00932056
0.00079701
0.0110299
0.0128975
0.00279994
1.73532e-12
0.00279994
1.06201e-11
0.00279994
3.47198e-11
0.00279994
9.16527e-11
0.00279994
2.19883e-10
0.00279994
5.03421e-10
0.00279994
1.12588e-09
0.00279994
2.48891e-09
0.00279994
5.47186e-09
0.00279994
1.20022e-08
0.00279993
2.63116e-08
0.00279993
5.77123e-08
0.00279992
1.26791e-07
0.00279989
2.7945e-07
0.00279982
6.19856e-07
0.00279966
1.39267e-06
0.00279928
3.2106e-06
0.00279829
7.7738e-06
0.00279554
2.05076e-05
0.00278651
6.12414e-05
0.00274398
0.000286767
0.0024125
0.00502711
0.00222354
0.00632824
0.00216415
0.00648081
0.00209856
0.0067439
0.00196705
0.00762686
0.00168703
0.00877325
0.00128191
0.00967874
0.000898323
0.0114397
0.013807
0.00279994
1.93194e-12
0.00279994
1.17923e-11
0.00279994
3.8469e-11
0.00279994
1.01478e-10
0.00279994
2.43482e-10
0.00279994
5.57762e-10
0.00279994
1.24838e-09
0.00279994
2.76202e-09
0.00279994
6.07738e-09
0.00279994
1.33408e-08
0.00279993
2.92667e-08
0.00279993
6.42344e-08
0.00279992
1.41198e-07
0.0027999
3.11368e-07
0.00279985
6.91037e-07
0.00279973
1.55375e-06
0.00279944
3.58659e-06
0.00279866
8.70822e-06
0.00279629
2.31248e-05
0.00278744
7.02297e-05
0.0027467
0.000329887
0.00226708
0.00549957
0.0022051
0.00639147
0.00221533
0.0064709
0.00216401
0.00678056
0.0020378
0.00772747
0.00175969
0.00900637
0.00137485
0.0100138
0.00104137
0.0118029
0.0148519
0.0111998
2.43507e-12
0.0111998
1.50034e-11
0.0111998
4.93059e-11
0.0111998
1.30499e-10
0.0111998
3.13623e-10
0.0111998
7.18929e-10
0.0111998
1.60896e-09
0.0111998
3.5568e-09
0.0111998
7.8132e-09
0.0111998
1.71085e-08
0.0111998
3.74069e-08
0.0111998
8.17564e-08
0.0111998
1.78805e-07
0.0111998
3.91949e-07
0.0111998
8.6382e-07
0.0111998
1.92627e-06
0.0111998
4.40156e-06
0.0111994
1.05439e-05
0.0111977
2.74417e-05
0.0111894
8.05284e-05
0.0111902
0.000348293
0.0118222
0.00489195
0.0108974
0.00734329
0.0102986
0.00708965
0.00973194
0.00730965
0.00931844
0.00805122
0.00890682
0.00928745
0.00849656
0.0102241
0.00995893
0.0103097
0.00859408
0.0163042
0.0111998
3.47837e-12
0.0111998
2.13722e-11
0.0111998
7.00316e-11
0.0111998
1.84918e-10
0.0111998
4.43525e-10
0.0111998
1.01503e-09
0.0111998
2.2686e-09
0.0111998
5.00975e-09
0.0111998
1.09964e-08
0.0111998
2.40666e-08
0.0111997
5.26079e-08
0.0111997
1.14984e-07
0.0111997
2.51551e-07
0.0111997
5.517e-07
0.0111996
1.21669e-06
0.0111994
2.71481e-06
0.0111987
6.20481e-06
0.0111967
1.48558e-05
0.0111897
3.85967e-05
0.0111619
0.000112686
0.0110893
0.00045312
0.0108375
0.00522091
0.0107226
0.00751227
0.0104344
0.00742227
0.0103102
0.0074299
0.0104248
0.00790693
0.0108099
0.00876793
0.011376
0.00949615
0.012116
0.00942319
0.00713459
0.0135323
0.0111998
5.13174e-12
0.0111998
3.16825e-11
0.0111998
1.04236e-10
0.0111998
2.75754e-10
0.0111998
6.62151e-10
0.0111998
1.51707e-09
0.0111998
3.39551e-09
0.0111998
7.51213e-09
0.0111998
1.65259e-08
0.0111997
3.62602e-08
0.0111997
7.94802e-08
0.0111997
1.74216e-07
0.0111997
3.82231e-07
0.0111997
8.40646e-07
0.0111995
1.85862e-06
0.0111992
4.15558e-06
0.0111981
9.50839e-06
0.0111947
2.2759e-05
0.0111825
5.89911e-05
0.0111331
0.000171611
0.0109949
0.000641608
0.0104871
0.00586507
0.0105027
0.00759711
0.010522
0.00748419
0.010762
0.00720792
0.011144
0.00746102
0.0117658
0.00797879
0.0125265
0.00848
0.0130191
0.0086885
0.00665377
0.0133112
0.0111998
8.42095e-12
0.0111998
5.11792e-11
0.0111998
1.66156e-10
0.0111998
4.37227e-10
0.0111998
1.04921e-09
0.0111998
2.40896e-09
0.0111998
5.41183e-09
0.0111998
1.20277e-08
0.0111998
2.65905e-08
0.0111997
5.86365e-08
0.0111997
1.29158e-07
0.0111997
2.84413e-07
0.0111997
6.26602e-07
0.0111997
1.38288e-06
0.0111995
3.06509e-06
0.0111991
6.86048e-06
0.0111975
1.56853e-05
0.0111914
3.74386e-05
0.0111687
9.66684e-05
0.0110745
0.000281802
0.0107699
0.00102184
0.00930228
0.00753158
0.0103628
0.00668371
0.0108778
0.00705248
0.0111985
0.0069106
0.0115845
0.00702968
0.0120731
0.00733845
0.0127466
0.00765577
0.0133373
0.00789258
0.00704474
0.0127678
0.0111998
1.12891e-11
0.0111998
6.82759e-11
0.0111998
2.21087e-10
0.0111998
5.83232e-10
0.0111998
1.40722e-09
0.0111998
3.25504e-09
0.0111998
7.37883e-09
0.0111998
1.65712e-08
0.0111998
3.70657e-08
0.0111998
8.27806e-08
0.0111998
1.84781e-07
0.0111998
4.12346e-07
0.0111998
9.19892e-07
0.0111996
2.05212e-06
0.0111991
4.58383e-06
0.0111972
1.0289e-05
0.0111913
2.33991e-05
0.0111745
5.48818e-05
0.0111285
0.000137874
0.0109733
0.000411801
0.0105943
0.00142295
0.0114639
0.00624098
0.0115026
0.00668541
0.0116717
0.00694798
0.0116929
0.00698285
0.0119553
0.00683817
0.0123628
0.00695738
0.0128964
0.00708278
0.0134062
0.00724058
0.00672852
0.013556
0.0111998
1.06753e-11
0.0111998
6.44603e-11
0.0111998
2.07934e-10
0.0111998
5.42378e-10
0.0111998
1.28451e-09
0.0111998
2.89705e-09
0.0111998
6.36545e-09
0.0111998
1.37826e-08
0.0111998
2.95816e-08
0.0112
6.31334e-08
0.0112002
1.34233e-07
0.0112006
2.84759e-07
0.0112014
6.03697e-07
0.0112028
1.28157e-06
0.011205
2.7311e-06
0.0112088
5.86211e-06
0.0112162
1.27391e-05
0.011234
2.82925e-05
0.0112853
6.55479e-05
0.0115076
0.000162845
0.0120147
0.000633163
0.0178282
0.000878289
0.0148496
0.00998431
0.0126837
0.00914809
0.0122
0.00734106
0.0125343
0.00671466
0.0127379
0.00670309
0.0130991
0.00662348
0.0135073
0.00663518
0.00625668
0.0137628
0.0111998
7.36045e-12
0.0111998
4.59837e-11
0.0111998
1.52788e-10
0.0111998
4.05055e-10
0.0111998
9.68591e-10
0.0111998
2.19883e-09
0.0111998
4.85676e-09
0.0111998
1.05695e-08
0.0111998
2.28115e-08
0.0111998
4.89914e-08
0.0111999
1.04891e-07
0.0112001
2.2411e-07
0.0112005
4.78204e-07
0.0112013
1.01993e-06
0.0112032
2.17753e-06
0.011207
4.66664e-06
0.0112149
1.00947e-05
0.0112298
2.2281e-05
0.0112568
5.1226e-05
0.0113035
0.000127139
0.0115486
0.000373
0.0114811
0.00110063
0.0129731
0.00867386
0.0148595
0.00738809
0.0142609
0.00790203
0.0131226
0.00752976
0.013182
0.00659471
0.0133563
0.0063332
0.0137097
0.0061763
0.00586079
0.0139075
0.0111998
7.71298e-12
0.0111998
4.64575e-11
0.0111998
1.49763e-10
0.0111998
3.92795e-10
0.0111998
9.39749e-10
0.0111998
2.14891e-09
0.0111998
4.80136e-09
0.0111998
1.05984e-08
0.0111998
2.3244e-08
0.0111998
5.07993e-08
0.0111998
1.10807e-07
0.0111998
2.41448e-07
0.0111998
5.25844e-07
0.0111999
1.14514e-06
0.0112002
2.49517e-06
0.0112011
5.44762e-06
0.0112038
1.19579e-05
0.0112095
2.65931e-05
0.0112177
6.09383e-05
0.0112196
0.000149436
0.0111633
0.000439632
0.0106208
0.00170703
0.0136662
0.00578229
0.0140037
0.00703531
0.014319
0.00753648
0.0136481
0.00801826
0.0136484
0.00658865
0.0136098
0.00624225
0.013861
0.00588473
0.00561007
0.0140302
0.0111998
4.70993e-12
0.0111998
2.9272e-11
0.0111998
9.67961e-11
0.0111998
2.55521e-10
0.0111998
6.08509e-10
0.0111998
1.3763e-09
0.0111998
3.03169e-09
0.0111998
6.59035e-09
0.0111998
1.42386e-08
0.0111998
3.06914e-08
0.0111998
6.61353e-08
0.0111999
1.42613e-07
0.0112
3.07912e-07
0.0112003
6.65847e-07
0.0112009
1.44256e-06
0.0112027
3.13247e-06
0.0112081
6.82375e-06
0.0112245
1.49455e-05
0.0112709
3.30972e-05
0.0113888
7.52514e-05
0.0117273
0.000180886
0.0126931
0.000643869
0.0174891
0.00113348
0.0149121
0.0100789
0.015405
0.00734569
0.0160179
0.00766865
0.0142954
0.00851628
0.0139491
0.00623822
0.0139526
0.00583182
0.00546604
0.0141634
0.0111998
3.74931e-12
0.0111998
2.30446e-11
0.0111998
7.55851e-11
0.0111998
1.99325e-10
0.0111998
4.75732e-10
0.0111998
1.07975e-09
0.0111998
2.3873e-09
0.0111998
5.20692e-09
0.0111998
1.128e-08
0.0111998
2.4364e-08
0.0111998
5.25843e-08
0.0111999
1.13557e-07
0.0112
2.45579e-07
0.0112002
5.32155e-07
0.0112006
1.156e-06
0.0112015
2.51887e-06
0.0112034
5.51144e-06
0.0112082
1.21402e-05
0.0112206
2.70781e-05
0.0112529
6.19952e-05
0.0113349
0.000150485
0.0116398
0.000434601
0.0116265
0.0014193
0.0151633
0.00734534
0.0156444
0.00692782
0.0157247
0.00747926
0.0160085
0.0081228
0.014431
0.00730772
0.0141648
0.00593392
0.00551711
0.0143165
0.0111998
2.86656e-12
0.0111998
1.75891e-11
0.0111998
5.7617e-11
0.0111998
1.52033e-10
0.0111998
3.63767e-10
0.0111998
8.28955e-10
0.0111998
1.84201e-09
0.0111998
4.03926e-09
0.0111998
8.79461e-09
0.0111998
1.90706e-08
0.0111998
4.12456e-08
0.0111999
8.90303e-08
0.0112001
1.91857e-07
0.0112005
4.12846e-07
0.0112014
8.87365e-07
0.0112034
1.90614e-06
0.0112074
4.09632e-06
0.0112154
8.82469e-06
0.0112304
1.9135e-05
0.0112601
4.21208e-05
0.0113303
9.59395e-05
0.0115592
0.000237785
0.0123877
0.000831769
0.0194069
0.0015279
0.0162241
0.0100688
0.0162432
0.00740755
0.0165248
0.00767053
0.0149648
0.00848192
0.014638
0.0060883
0.00566081
0.0147087
0.0111998
2.05856e-12
0.0111998
1.25734e-11
0.0111998
4.10145e-11
0.0111998
1.07997e-10
0.0111998
2.58225e-10
0.0111998
5.88621e-10
0.0111998
1.3093e-09
0.0111998
2.87576e-09
0.0111998
6.2753e-09
0.0111998
1.36473e-08
0.0111998
2.9626e-08
0.0111998
6.4244e-08
0.0111999
1.39213e-07
0.0112001
3.01503e-07
0.0112004
6.52734e-07
0.0112012
1.4129e-06
0.0112029
3.05918e-06
0.0112061
6.63088e-06
0.0112125
1.44132e-05
0.0112253
3.154e-05
0.0112533
7.01771e-05
0.0113303
0.00016329
0.0116898
0.000462296
0.011487
0.00182718
0.016453
0.00520525
0.0160871
0.00782178
0.0161896
0.00762937
0.0170555
0.00763361
0.0152886
0.00793827
0.0058557
0.0152145
0.0111998
1.14605e-12
0.0111998
7.07502e-12
0.0111998
2.32808e-11
0.0111998
6.15508e-11
0.0111998
1.47433e-10
0.0111998
3.36251e-10
0.0111998
7.47764e-10
0.0111998
1.64119e-09
0.0111998
3.57758e-09
0.0111998
7.77119e-09
0.0111998
1.68497e-08
0.0111998
3.64987e-08
0.0111999
7.90164e-08
0.0112
1.70996e-07
0.0112003
3.69925e-07
0.011201
8.00036e-07
0.0112025
1.72976e-06
0.0112058
3.73913e-06
0.0112128
8.08173e-06
0.0112278
1.74691e-05
0.0112607
3.77902e-05
0.011339
8.21202e-05
0.0115995
0.000184283
0.0128276
0.000566012
0.0165359
0.00147084
0.0171993
0.00717259
0.0177656
0.00716372
0.0179423
0.00745152
0.0174476
0.00841302
0.00707333
0.0162213
0.0111998
4.99952e-13
0.0111998
3.17832e-12
0.0111998
1.07182e-11
0.0111998
2.8685e-11
0.0111998
6.91121e-11
0.0111998
1.57969e-10
0.0111998
3.51232e-10
0.0111998
7.69457e-10
0.0111998
1.67209e-09
0.0111998
3.61723e-09
0.0111998
7.8049e-09
0.0111998
1.68147e-08
0.0111998
3.61909e-08
0.0111999
7.78447e-08
0.0112001
1.67356e-07
0.0112006
3.59627e-07
0.0112015
7.72412e-07
0.0112037
1.65817e-06
0.0112084
3.55831e-06
0.0112189
7.63656e-06
0.0112417
1.64107e-05
0.0112909
3.5426e-05
0.0114005
7.74864e-05
0.0117795
0.000183449
0.0126444
0.000571439
0.0184132
0.0013368
0.0178009