/*--------------------------------*- C++ -*----------------------------------*\
  =========                 |
  \\      /  F ield         | OpenFOAM: The Open Source CFD Toolbox
   \\    /   O peration     | Website:  https://openfoam.org
    \\  /    A nd           | Version:  6.0
     \\/     M anipulation  |
\*---------------------------------------------------------------------------*/
FoamFile
{
    version     2.0;
    format      ascii;
    class       volScalarField;
    location    "1";
    object      T;
}
// * * * * * * * * * * * * * * * * * * * * * * * * * * * * * * * * * * * * * //

dimensions      [0 0 0 1 0 0 0];

internalField   nonuniform List<scalar> 
2700
(
1
1
1
1
1.00001
1.00001
1.00002
1.00005
1.00012
1.00025
1.00055
1.00119
1.00259
1.00565
1.01233
1.027
1.05967
1.13438
1.31401
1.8072
3.27518
2.28412
2.69048
2.80856
2.8175
2.82677
2.99876
3.12713
2.96552
2.88857
1
1
1
1
1.00001
1.00001
1.00002
1.00005
1.00012
1.00025
1.00055
1.00119
1.00259
1.00565
1.01233
1.02701
1.05967
1.1344
1.31406
1.80754
3.2746
2.28459
2.69219
2.81065
2.81764
2.82533
2.99497
3.12469
2.96282
2.88778
1
1
1
1
1.00001
1.00001
1.00002
1.00005
1.00012
1.00025
1.00055
1.00119
1.00259
1.00565
1.01233
1.02701
1.05969
1.13444
1.31416
1.80821
3.27325
2.28643
2.69257
2.81301
2.81791
2.82557
2.99172
3.11867
2.95738
2.88488
1
1
1
1
1.00001
1.00001
1.00002
1.00005
1.00012
1.00025
1.00055
1.00119
1.0026
1.00565
1.01234
1.02702
1.05972
1.1345
1.31428
1.80916
3.2712
2.2895
2.69311
2.81476
2.81794
2.82667
2.98671
3.1017
2.94048
2.87608
1
1
1
1
1.00001
1.00001
1.00002
1.00005
1.00012
1.00025
1.00055
1.00119
1.0026
1.00566
1.01234
1.02704
1.05975
1.13458
1.31444
1.81035
3.26861
2.29351
2.69501
2.8148
2.81604
2.82832
2.98405
3.08313
2.91597
2.86291
1
1
1
1
1.00001
1.00001
1.00002
1.00005
1.00012
1.00025
1.00055
1.00119
1.0026
1.00566
1.01235
1.02705
1.05978
1.13466
1.31461
1.81174
3.26542
2.29866
2.69768
2.81392
2.8133
2.83051
2.98045
3.06741
2.89692
2.85084
1
1
1
1
1.00001
1.00001
1.00002
1.00005
1.00012
1.00025
1.00055
1.00119
1.0026
1.00566
1.01235
1.02707
1.05982
1.13475
1.3148
1.81329
3.26162
2.30495
2.7
2.81322
2.81147
2.83193
2.97435
3.05264
2.87974
2.83806
1
1
1
1
1.00001
1.00001
1.00002
1.00005
1.00012
1.00025
1.00055
1.0012
1.0026
1.00567
1.01236
1.02708
1.05985
1.13485
1.31499
1.81497
3.2572
2.31237
2.70204
2.81321
2.80999
2.83174
2.96759
3.03885
2.86399
2.82376
1
1
1
1
1.00001
1.00001
1.00002
1.00005
1.00012
1.00025
1.00055
1.0012
1.0026
1.00567
1.01237
1.0271
1.05989
1.13494
1.31517
1.81675
3.25215
2.32091
2.70382
2.81377
2.80849
2.83082
2.96119
3.02499
2.85008
2.80903
1
1
1
1
1.00001
1.00001
1.00002
1.00005
1.00012
1.00025
1.00055
1.0012
1.0026
1.00567
1.01238
1.02712
1.05993
1.13504
1.31535
1.81856
3.24651
2.33047
2.70533
2.81493
2.80721
2.82889
2.95373
3.01217
2.83802
2.79823
1
1
1
1
1.00001
1.00001
1.00002
1.00005
1.00012
1.00025
1.00055
1.0012
1.00261
1.00567
1.01238
1.02713
1.05996
1.13513
1.31552
1.82036
3.2403
2.34093
2.70744
2.81537
2.80498
2.82561
2.94584
3.0015
2.82732
2.79095
1
1
1
1
1.00001
1.00001
1.00002
1.00005
1.00012
1.00025
1.00055
1.0012
1.00261
1.00568
1.01239
1.02715
1.06
1.13521
1.31566
1.82211
3.23349
2.35227
2.71007
2.81507
2.80186
2.82169
2.9382
2.99358
2.81792
2.78285
1
1
1
1
1.00001
1.00001
1.00002
1.00005
1.00012
1.00025
1.00055
1.0012
1.00261
1.00568
1.0124
1.02716
1.06002
1.13528
1.31578
1.82378
3.22607
2.36444
2.71301
2.81426
2.79809
2.81721
2.93072
2.98781
2.80933
2.77114
1
1
1
1
1.00001
1.00001
1.00002
1.00005
1.00012
1.00025
1.00055
1.0012
1.00261
1.00568
1.0124
1.02717
1.06005
1.13534
1.31586
1.82534
3.21804
2.37738
2.71635
2.81253
2.79368
2.81283
2.92421
2.98343
2.80062
2.75755
1
1
1
1
1.00001
1.00001
1.00002
1.00005
1.00012
1.00025
1.00055
1.0012
1.00261
1.00568
1.0124
1.02718
1.06006
1.13539
1.3159
1.82669
3.20943
2.39102
2.7201
2.81034
2.78808
2.80716
2.91663
2.97947
2.7936
2.73717
1
1
1
1
1.00001
1.00001
1.00002
1.00005
1.00012
1.00025
1.00055
1.0012
1.00261
1.00568
1.01241
1.02718
1.06007
1.13541
1.31593
1.82738
3.20035
2.40548
2.72356
2.80807
2.78272
2.80203
2.91106
2.97632
2.78493
2.71631
1
1
1
1
1.00001
1.00001
1.00002
1.00005
1.00012
1.00025
1.00055
1.0012
1.00261
1.00569
1.01241
1.02718
1.06008
1.13542
1.31594
1.82782
3.19045
2.4206
2.72716
2.80496
2.77605
2.79503
2.90157
2.97222
2.77878
2.693
1
1
1
1
1.00001
1.00001
1.00002
1.00005
1.00012
1.00025
1.00055
1.0012
1.00261
1.00568
1.0124
1.02718
1.06007
1.13541
1.3159
1.82813
3.17975
2.43634
2.73058
2.80207
2.77026
2.78934
2.89624
2.96937
2.77108
2.66482
1
1
1
1
1.00001
1.00001
1.00002
1.00005
1.00012
1.00025
1.00055
1.0012
1.00261
1.00568
1.0124
1.02717
1.06005
1.13537
1.3158
1.82827
3.16834
2.45256
2.73406
2.79815
2.76262
2.78066
2.88499
2.96534
2.7644
2.64794
1
1
1
1
1.00001
1.00001
1.00002
1.00005
1.00012
1.00025
1.00055
1.0012
1.00261
1.00568
1.01239
1.02716
1.06002
1.13531
1.31563
1.82821
3.1563
2.46909
2.73708
2.79468
2.75685
2.77456
2.87803
2.96268
2.75856
2.61762
1
1
1
1
1.00001
1.00001
1.00002
1.00005
1.00012
1.00025
1.00055
1.0012
1.00261
1.00568
1.01238
1.02714
1.05997
1.1352
1.31536
1.82789
3.1436
2.4859
2.74094
2.79033
2.74891
2.76548
2.86368
2.95892
2.75508
2.60283
1
1
1
1
1.00001
1.00001
1.00002
1.00005
1.00012
1.00025
1.00055
1.0012
1.0026
1.00567
1.01237
1.02711
1.0599
1.13505
1.31496
1.82727
3.13005
2.50335
2.74273
2.78632
2.74293
2.7589
2.85509
2.95621
2.75131
2.57601
1
1
1
1
1.00001
1.00001
1.00002
1.00005
1.00012
1.00025
1.00055
1.00119
1.0026
1.00566
1.01235
1.02706
1.05981
1.13484
1.31443
1.82629
3.11582
2.52063
2.74623
2.78042
2.73404
2.74862
2.83742
2.9501
2.74807
2.56181
1
1
1
1
1.00001
1.00001
1.00002
1.00005
1.00012
1.00025
1.00055
1.00119
1.00259
1.00565
1.01233
1.02701
1.05969
1.13456
1.31373
1.82489
3.10061
2.53825
2.74747
2.7763
2.72819
2.74166
2.82728
2.94493
2.74354
2.53399
1
1
1
1
1.00001
1.00001
1.00002
1.00005
1.00012
1.00025
1.00055
1.00119
1.00259
1.00563
1.01229
1.02694
1.05953
1.1342
1.31282
1.82299
3.08444
2.55587
2.74941
2.76986
2.71906
2.73028
2.80697
2.93458
2.73848
2.51828
1
1
1
1
1.00001
1.00001
1.00002
1.00005
1.00012
1.00025
1.00054
1.00118
1.00258
1.00562
1.01225
1.02685
1.05934
1.13375
1.31169
1.82049
3.06732
2.57297
2.75183
2.76031
2.71495
2.72274
2.79357
2.92512
2.73159
2.48623
1
1
1
1
1.00001
1.00001
1.00002
1.00005
1.00011
1.00025
1.00054
1.00118
1.00257
1.00559
1.01221
1.02674
1.0591
1.1332
1.3103
1.81692
3.04888
2.59021
2.75569
2.74802
2.70771
2.71229
2.77212
2.90709
2.72418
2.46529
1
1
1
1
1.00001
1.00001
1.00002
1.00005
1.00011
1.00025
1.00054
1.00117
1.00256
1.00557
1.01215
1.02662
1.05881
1.13253
1.30868
1.8115
3.02944
2.60591
2.75861
2.73941
2.70006
2.70416
2.75318
2.8889
2.7081
2.41918
1
1
1
1
1.00001
1.00001
1.00002
1.00005
1.00011
1.00025
1.00054
1.00117
1.00254
1.00554
1.01208
1.02646
1.05846
1.13172
1.30672
1.80482
3.00764
2.62315
2.75965
2.7313
2.69072
2.69108
2.72924
2.85968
2.69566
2.38477
1
1
1
1
1
1.00001
1.00002
1.00005
1.00011
1.00025
1.00053
1.00116
1.00253
1.0055
1.012
1.02629
1.05806
1.13078
1.30441
1.7966
2.98372
2.63701
2.76176
2.72174
2.68546
2.68267
2.70644
2.82977
2.66064
2.29557
1
1
1
1
1
1.00001
1.00002
1.00005
1.00011
1.00024
1.00052
1.00114
1.00248
1.0054
1.01178
1.02579
1.05693
1.12807
1.29773
1.77086
2.93068
2.69759
2.75495
2.71336
2.65708
2.63961
2.64167
2.72286
2.62698
2.24384
1
1
1
1
1
1.00001
1.00002
1.00005
1.00011
1.00023
1.00051
1.0011
1.00239
1.00521
1.01136
1.02486
1.05485
1.12323
1.28631
1.72974
2.87261
2.73751
2.73056
2.69986
2.64067
2.58721
2.55443
2.57103
2.5506
2.36174
1
1
1
1
1
1.00001
1.00002
1.00005
1.0001
1.00022
1.00048
1.00104
1.00227
1.00493
1.01076
1.02353
1.05188
1.11631
1.26971
1.67668
2.77995
2.76034
2.7028
2.67508
2.61594
2.55487
2.50936
2.46936
2.45674
2.41939
1
1
1
1
1
1.00001
1.00002
1.00004
1.00009
1.0002
1.00044
1.00096
1.00208
1.00452
1.00985
1.02151
1.04735
1.10583
1.24438
1.6044
2.6228
2.70422
2.6547
2.63979
2.61178
2.55109
2.5063
2.45258
2.38519
2.38779
1
1
1
1
1
1.00001
1.00002
1.00004
1.00008
1.00017
1.00037
1.00081
1.00176
1.00382
1.00832
1.01817
1.03992
1.08893
1.20416
1.49506
2.37438
2.62393
2.65344
2.63524
2.60697
2.54111
2.48647
2.43591
2.36577
2.35717
1
1
1
1
1
1.00001
1.00001
1.00003
1.00006
1.00012
1.00027
1.00057
1.00123
1.00264
1.0057
1.01233
1.02681
1.05878
1.13224
1.29936
1.90963
2.48689
2.54049
2.55648
2.54614
2.51247
2.45107
2.4118
2.34194
2.32786
1
1
1
1
1
1
1.00001
1.00002
1.00004
1.0001
1.00021
1.00045
1.00097
1.0021
1.00454
1.00983
1.02134
1.04667
1.10372
1.23742
1.59333
2.41849
2.52954
2.50885
2.48876
2.4775
2.44066
2.40389
2.34435
2.30037
1
1
1
1
1
1
1.00001
1.00002
1.00003
1.00008
1.00016
1.00036
1.00077
1.00168
1.00364
1.0079
1.0172
1.03763
1.08338
1.19011
1.4555
2.26299
2.42847
2.47297
2.46091
2.45371
2.4382
2.41229
2.35403
2.28494
1
1
1
1
1
1
1
1.00001
1.00002
1.00005
1.00011
1.00023
1.00049
1.00107
1.00231
1.00501
1.01087
1.02362
1.05153
1.11463
1.25938
1.72093
2.35324
2.41363
2.40087
2.40039
2.41347
2.40433
2.36758
2.276
1
1
1
1
1
1
1
1.00001
1.00002
1.00004
1.00008
1.00016
1.00036
1.00077
1.00166
1.00361
1.00782
1.01701
1.03718
1.08223
1.18599
1.45059
2.15336
2.31574
2.36156
2.37159
2.38027
2.38015
2.35612
2.26635
1
1
1
1
1
1
1
1.00001
1.00001
1.00002
1.00005
1.00011
1.00023
1.0005
1.00108
1.00233
1.005
1.01079
1.02337
1.05105
1.11391
1.25788
1.74033
2.14413
2.26372
2.3181
2.32576
2.31969
2.29887
2.22847
1
1
1
1
1
1
1
1
1.00001
1.00001
1.00003
1.00007
1.00014
1.00031
1.00067
1.00145
1.00313
1.00679
1.01474
1.03218
1.07116
1.16024
1.39535
1.947
2.21691
2.23755
2.26413
2.26172
2.24158
2.19353
1
1
1
1
1
1
1
1
1
1.00001
1.00002
1.00003
1.00008
1.00016
1.00035
1.00076
1.00163
1.00352
1.00761
1.0165
1.03598
1.07959
1.18105
1.47314
1.97443
2.15184
2.16729
2.18026
2.16686
2.1536
1
1
1
1
1
1
1
1
1
1
1.00001
1.00002
1.00004
1.00008
1.00018
1.00038
1.00081
1.00175
1.00377
1.00812
1.01755
1.0382
1.08399
1.19562
1.4948
1.97918
2.11067
2.12072
2.11673
2.10255
1
1
1
1
1
1
1
1
1
1
1
1.00001
1.00002
1.00005
1.0001
1.00022
1.00049
1.00105
1.00228
1.00495
1.01075
1.02342
1.05145
1.11472
1.27004
1.66261
2.0139
2.07158
2.06855
2.05836
1
1
1
1
1
1
1
1
1
1
1
1.00001
1.00001
1.00002
1.00005
1.00011
1.00025
1.00053
1.00114
1.00247
1.00534
1.01156
1.02515
1.05529
1.12325
1.30372
1.6832
1.94132
1.95898
1.95399
1
1
1
1
1
1
1
1
1
1
1
1
1.00001
1.00001
1.00002
1.00005
1.00011
1.00023
1.0005
1.00107
1.00229
1.00492
1.01059
1.0229
1.04993
1.11226
1.27012
1.60075
1.81913
1.84127
1
1
1
1
1
1
1
1
1
1
1
1
1
1
1.00001
1.00002
1.00005
1.0001
1.00021
1.00045
1.00097
1.00209
1.00448
1.00964
1.0208
1.04524
1.10147
1.23872
1.52344
1.68844
1
1
1
1
1
1
1
1
1
1
1
1
1
1
1
1.00001
1.00001
1.00003
1.00006
1.00013
1.00027
1.00057
1.00119
1.00252
1.00531
1.01124
1.02396
1.05343
1.1201
1.26078
1
1
1
1
1
1
1
1
1
1
1
1
1
1
1
1
1.00001
1.00001
1.00003
1.00007
1.00014
1.0003
1.00063
1.00132
1.00279
1.00591
1.01245
1.0271
1.05645
1.14638
1
1
1
1
1
1
1
1
1
1
1
1
1
1
1
1
1
1.00001
1.00002
1.00004
1.00009
1.00019
1.00039
1.00081
1.00171
1.00363
1.00772
1.01695
1.03597
1.08529
1
1
1
1
1
1
1
1
1
1
1
1
1
1
1
1
1
1.00001
1.00001
1.00003
1.00006
1.00012
1.00027
1.00058
1.00126
1.00274
1.00594
1.01293
1.02788
1.06342
1
1
1
1
1
1
1
1
1
1
1
1
1
1
1
1
1
1
1.00001
1.00002
1.00004
1.00009
1.0002
1.00045
1.00099
1.00219
1.00484
1.01062
1.02302
1.05151
1
1
1
1
1
1
1
1
1
1
1
1
1
1
1
1
1
1
1
1.00001
1.00002
1.00005
1.00011
1.00023
1.00051
1.00112
1.0025
1.00559
1.0128
1.0286
1
1
1
1
1
1
1
1
1
1
1
1
1
1
1
1
1
1
1
1.00001
1.00002
1.00004
1.00009
1.00018
1.0004
1.00087
1.00189
1.00411
1.00905
1.01889
1
1
1
1
1
1
1
1
1
1
1
1
1
1
1
1
1
1
1
1.00001
1.00001
1.00003
1.00005
1.00012
1.00025
1.00055
1.00118
1.00256
1.00573
1.01161
1
1
1
1
1
1
1
1
1
1
1
1
1
1
1
1
1
1
1
1
1.00001
1.00002
1.00004
1.0001
1.00021
1.00047
1.00102
1.00223
1.00491
1.01019
1
1
1
1
1
1
1
1
1
1
1
1
1
1
1
1
1
1
1
1
1.00001
1.00002
1.00003
1.00008
1.00017
1.00038
1.00084
1.00185
1.0041
1.00872
1
1
1
1
1
1
1
1
1
1
1
1
1
1
1
1
1
1
1
1
1
1.00001
1.00002
1.00004
1.00008
1.00019
1.00042
1.00093
1.00214
1.00457
1
1
1
1
1
1
1
1
1
1
1
1
1
1
1
1
1
1
1
1
1
1.00001
1.00002
1.00003
1.00007
1.00016
1.00035
1.00077
1.00175
1.00351
2.06643
2.00484
2.07844
2.30749
2.23576
2.16972
2.13501
2.13288
2.13777
2.16536
2.25071
2.31972
2.35344
2.41217
2.50275
2.60627
2.77046
2.89686
2.90204
2.95027
2.97505
2.98726
3.00526
3.0045
2.99937
2.93611
2.81415
2.43569
2.29265
1.89587
2.10617
2.11546
2.17471
2.17756
2.14866
2.06706
1.99407
1.98022
1.99433
2.0664
2.14535
2.14804
2.1535
2.17992
2.22135
2.29025
2.37869
2.4629
2.54353
2.60763
2.65412
2.70296
2.7543
2.78686
2.80929
2.77606
2.70385
2.46375
2.3294
1.99633
2.20386
2.19183
2.15583
2.0321
2.00102
1.95029
1.91136
1.90487
1.91021
1.95577
2.03107
2.05385
2.05229
2.06139
2.09407
2.16966
2.28663
2.31972
2.38031
2.42901
2.46635
2.49659
2.52847
2.54543
2.5564
2.54818
2.51903
2.37655
2.27347
1.98071
2.28858
2.19611
2.03695
1.95592
1.94439
1.92986
1.88024
1.84702
1.8468
1.87478
1.95343
1.98858
1.98632
1.98304
1.98627
2.00528
2.04978
2.15142
2.21208
2.21958
2.23581
2.23915
2.23652
2.22183
2.20752
2.20172
2.20019
2.16096
2.12435
1.95135
2.26725
2.19676
2.04081
1.9635
1.94911
1.92167
1.8543
1.81439
1.81351
1.83368
1.9
1.93032
1.94137
1.9534
1.96766
1.97538
1.97865
1.99223
2.03064
2.05498
2.06148
2.06192
2.05423
2.05201
2.05362
2.05677
2.05929
2.04629
2.01542
1.88602
2.29049
2.21648
2.06141
1.99726
1.98768
1.95711
1.88607
1.82155
1.8139
1.82612
1.86953
1.90534
1.93169
1.93302
1.92047
1.89131
1.87042
1.86324
1.86332
1.86863
1.88135
1.89091
1.89656
1.90053
1.91026
1.91085
1.90589
1.90027
1.88904
1.80594
2.2906
2.25751
2.14066
2.0967
2.09709
2.07246
1.98954
1.87501
1.82813
1.83335
1.85356
1.88634
1.9156
1.91604
1.89796
1.86202
1.83036
1.80363
1.7775
1.77465
1.77067
1.77457
1.78304
1.79387
1.80262
1.80904
1.81242
1.80523
1.78913
1.711
2.27778
2.27347
2.21958
2.18956
2.19378
2.17401
2.08283
1.92202
1.83272
1.82406
1.83344
1.85837
1.9011
1.91356
1.90063
1.86311
1.81385
1.76768
1.72628
1.70278
1.69228
1.68951
1.68917
1.69428
1.70437
1.70986
1.70913
1.6991
1.68125
1.61802
2.25147
2.26721
2.24354
2.22763
2.23706
2.22062
2.12651
1.94295
1.83506
1.81388
1.82064
1.84427
1.89725
1.92504
1.92128
1.87964
1.81408
1.75554
1.70676
1.67785
1.66146
1.64365
1.62466
1.61148
1.60616
1.60192
1.59816
1.58495
1.57298
1.54145
2.19465
2.22622
2.22786
2.22692
2.24631
2.23603
2.14456
1.96091
1.84492
1.81225
1.8157
1.84049
1.90714
1.95052
1.95127
1.89916
1.81727
1.76409
1.72023
1.67947
1.63507
1.58938
1.55196
1.5303
1.52306
1.52042
1.51765
1.5078
1.49875
1.48424
2.13844
2.14889
2.1734
2.20352
2.24057
2.23812
2.17183
2.00524
1.8749
1.82227
1.82191
1.84112
1.92242
1.98206
1.9847
1.9159
1.83359
1.7813
1.73593
1.6956
1.62891
1.55288
1.48959
1.4497
1.43449
1.42367
1.41726
1.40596
1.39879
1.40807
2.09418
2.0953
2.12829
2.185
2.23197
2.24263
2.20746
2.07444
1.9141
1.8401
1.83004
1.85119
1.95647
2.01258
1.99575
1.9121
1.83937
1.80217
1.77484
1.71217
1.62136
1.52214
1.44414
1.3958
1.37373
1.36558
1.36318
1.36195
1.36307
1.37155
2.07633
2.05995
2.08199
2.14607
2.21549
2.24337
2.22137
2.10674
1.93699
1.85809
1.85255
1.87481
1.97149
2.01404
1.9936
1.91823
1.84537
1.79702
1.77677
1.74264
1.64527
1.53534
1.4393
1.37784
1.34372
1.33239
1.33214
1.33745
1.34419
1.34329
2.04669
2.03769
2.052
2.1105
2.19249
2.23813
2.22029
2.11332
1.95124
1.87402
1.86875
1.88953
1.96953
2.00245
1.98857
1.93557
1.86468
1.80502
1.769
1.74264
1.67613
1.5626
1.44564
1.36599
1.31916
1.3037
1.30011
1.29768
1.29848
1.29207
2.00833
1.99949
2.0073
2.05893
2.16203
2.22265
2.20887
2.10985
1.95909
1.88206
1.87491
1.89579
1.96377
1.9858
1.97836
1.93851
1.86298
1.78613
1.7368
1.71076
1.67137
1.56061
1.41445
1.32273
1.27814
1.26224
1.25984
1.26093
1.26094
1.25945
1.95622
1.96522
1.97766
2.02657
2.12587
2.18873
2.17471
2.08665
1.95506
1.88205
1.87603
1.89696
1.95087
1.96498
1.9555
1.90607
1.81295
1.73853
1.70588
1.67682
1.60587
1.45223
1.33268
1.26026
1.22556
1.2172
1.21965
1.22855
1.22877
1.22823
1.89446
1.9217
1.91517
1.95861
2.08072
2.13667
2.122
2.03937
1.93111
1.8725
1.8714
1.89659
1.93914
1.9379
1.8874
1.78257
1.70942
1.67332
1.65851
1.62534
1.52015
1.38243
1.28657
1.22904
1.19992
1.19262
1.19088
1.19149
1.19279
1.20412
1.81054
1.8607
1.87888
1.93116
2.05385
2.10562
2.08232
1.98804
1.89436
1.86362
1.8698
1.89342
1.90862
1.88143
1.7862
1.68781
1.6426
1.62788
1.6282
1.58956
1.46884
1.35899
1.28566
1.2329
1.20074
1.18724
1.17509
1.171
1.16379
1.16965
1.75193
1.83003
1.8494
1.87034
1.97071
2.03329
2.02578
1.95633
1.86989
1.8557
1.86713
1.88182
1.86179
1.77606
1.69316
1.6454
1.62678
1.62288
1.59634
1.50953
1.40152
1.32783
1.28169
1.24313
1.20924
1.18539
1.16225
1.15446
1.14227
1.15267
1.61326
1.72148
1.7648
1.78888
1.89408
1.94371
1.93644
1.89439
1.841
1.83669
1.8489
1.83981
1.77307
1.69924
1.66996
1.6496
1.63411
1.60413
1.53934
1.45149
1.38281
1.33238
1.29108
1.26281
1.23286
1.19594
1.16951
1.15224
1.13176
1.14025
1.42206
1.63494
1.7165
1.74661
1.79737
1.85677
1.84204
1.82454
1.79452
1.7895
1.78471
1.76729
1.71373
1.68092
1.65959
1.62383
1.58678
1.53678
1.46928
1.41055
1.36302
1.31764
1.28341
1.25724
1.23229
1.19828
1.15933
1.13282
1.0865
1.01316
1.38157
1.6293
1.6942
1.71296
1.75064
1.79652
1.77911
1.76548
1.74642
1.73344
1.72182
1.70941
1.70099
1.67612
1.64745
1.58993
1.52745
1.46934
1.41889
1.36867
1.32649
1.29564
1.25823
1.21272
1.13318
1.01222
0.93828
1.26598
1.447
1.31659
1.26659
1.61487
1.69504
1.70572
1.73673
1.76173
1.74905
1.73422
1.71039
1.70422
1.70352
1.70116
1.68179
1.64237
1.57701
1.51459
1.46863
1.42506
1.36774
1.31225
1.25051
1.20772
1.18213
1.36402
1.52761
1.41804
1.36379
1.24861
1.29493
1.27809
1.16594
1.56612
1.66232
1.66555
1.69756
1.72842
1.73803
1.72816
1.70664
1.70939
1.71374
1.70466
1.65942
1.5968
1.53244
1.47954
1.41177
1.3558
1.33136
1.35873
1.52253
1.54692
1.43931
1.31845
1.34629
1.36571
1.34523
1.33504
1.32907
1.30281
1.11239
1.33496
1.5429
1.62185
1.67768
1.71394
1.72596
1.72339
1.70733
1.70844
1.70926
1.69635
1.66266
1.62088
1.59695
1.70526
1.71424
1.69465
1.64045
1.5829
1.46306
1.41723
1.37627
1.34413
1.31869
1.31617
1.31233
1.31821
1.31332
1.30352
1.06878
1.19208
1.43111
1.60255
1.64582
1.66166
1.67836
1.68615
1.7017
1.73257
1.75555
1.76039
1.76976
1.80377
1.74679
1.70678
1.63221
1.57092
1.54622
1.53088
1.48658
1.38559
1.35077
1.32509
1.3123
1.31377
1.31584
1.31648
1.30202
1.29361
1.05483
1.15065
1.38325
1.55947
1.59065
1.61281
1.64158
1.7061
1.76367
1.79324
1.84181
1.89275
1.86181
1.80505
1.76597
1.725
1.63063
1.54599
1.52277
1.50021
1.44443
1.37903
1.342
1.32139
1.31554
1.31749
1.3179
1.31692
1.3003
1.29333
1.04252
1.122
1.29056
1.54833
1.5948
1.61799
1.6559
1.76771
1.92632
1.94178
1.93489
1.91687
1.86191
1.76949
1.71689
1.67752
1.63641
1.59409
1.54536
1.49273
1.43294
1.38305
1.33784
1.30439
1.29361
1.29467
1.30113
1.3103
1.30537
1.30774
1.02456
1.07293
1.17848
1.29614
1.6107
1.64469
1.63454
1.79014
1.88536
1.90609
1.90646
1.88335
1.82718
1.78396
1.73358
1.6714
1.64859
1.61768
1.56769
1.50185
1.43881
1.38143
1.32835
1.29156
1.28058
1.28233
1.28836
1.30857
1.32889
1.34486
1.0192
1.05087
1.11722
1.23468
1.53539
1.59489
1.81586
1.84531
1.90708
1.90606
1.888
1.83985
1.77482
1.72243
1.6965
1.64738
1.59953
1.55102
1.50713
1.44668
1.38879
1.35078
1.31648
1.28937
1.28064
1.28325
1.2954
1.32941
1.36641
1.37337
)
;

boundaryField
{
    inlet
    {
        type            fixedValue;
        value           uniform 1;
    }
    outlet
    {
        type            inletOutlet;
        inletValue      uniform 1;
        value           nonuniform List<scalar> 
30
(
1.89602
1.99611
1.98066
1.95148
1.88597
1.80592
1.71101
1.61802
1.54145
1.48425
1.40807
1.37147
1.34337
1.29206
1.25943
1.22818
1.20418
1.16964
1.1527
1.14024
1.01308
1.31667
1.2775
1.30235
1.30336
1.29363
1.29331
1.30773
1.34481
1.37336
)
;
    }
    top
    {
        type            symmetryPlane;
    }
    bottom
    {
        type            symmetryPlane;
    }
    step
    {
        type            zeroGradient;
    }
    defaultFaces
    {
        type            empty;
    }
}


// ************************************************************************* //
