/*--------------------------------*- C++ -*----------------------------------*\
  =========                 |
  \\      /  F ield         | OpenFOAM: The Open Source CFD Toolbox
   \\    /   O peration     | Website:  https://openfoam.org
    \\  /    A nd           | Version:  6.0
     \\/     M anipulation  |
\*---------------------------------------------------------------------------*/
FoamFile
{
    version     2.0;
    format      ascii;
    class       volVectorField;
    location    "1";
    object      U;
}
// * * * * * * * * * * * * * * * * * * * * * * * * * * * * * * * * * * * * * //

dimensions      [0 1 -1 0 0 0 0];

internalField   nonuniform List<vector> 
2700
(
(3 -4.87355e-12 0)
(3 -3.04109e-11 0)
(3 -1.0212e-10 0)
(3 -2.7715e-10 0)
(3 -6.81583e-10 0)
(2.99999 -1.59394e-09 0)
(2.99998 -3.6325e-09 0)
(2.99996 -8.1752e-09 0)
(2.9999 -1.83005e-08 0)
(2.99979 -4.08952e-08 0)
(2.99955 -9.13749e-08 0)
(2.99902 -2.04265e-07 0)
(2.99786 -4.56966e-07 0)
(2.99534 -1.02343e-06 0)
(2.98981 -2.29702e-06 0)
(2.97763 -5.18005e-06 0)
(2.95027 -1.18105e-05 0)
(2.88655 -2.76094e-05 0)
(2.72584 -6.83245e-05 0)
(2.23734 -0.000198458 0)
(0.037659 -0.000805778 0)
(-1.47574 0.00107485 0)
(-0.808923 0.0039176 0)
(-0.187498 0.00663869 0)
(0.17789 0.0104871 0)
(0.322486 0.0152195 0)
(0.353786 0.0177354 0)
(0.136007 0.0137461 0)
(-0.0816008 0.018534 0)
(0.185772 0.00445152 0)
(3 -1.45457e-11 0)
(3 -9.06961e-11 0)
(3 -3.04228e-10 0)
(3 -8.24449e-10 0)
(3 -2.02421e-09 0)
(2.99999 -4.72568e-09 0)
(2.99998 -1.07505e-08 0)
(2.99996 -2.41504e-08 0)
(2.9999 -5.3961e-08 0)
(2.99979 -1.20357e-07 0)
(2.99955 -2.6842e-07 0)
(2.99902 -5.9894e-07 0)
(2.99786 -1.33745e-06 0)
(2.99534 -2.9898e-06 0)
(2.98981 -6.69688e-06 0)
(2.97762 -1.50655e-05 0)
(2.95026 -3.42327e-05 0)
(2.88653 -7.95706e-05 0)
(2.72578 -0.000194633 0)
(2.23708 -0.000555797 0)
(0.037905 -0.00233933 0)
(-1.47463 0.00458938 0)
(-0.804052 0.01456 0)
(-0.178086 0.023907 0)
(0.190278 0.0353088 0)
(0.333833 0.0460661 0)
(0.360189 0.0499389 0)
(0.140812 0.0355703 0)
(-0.0786481 0.0430782 0)
(0.148921 0.0356394 0)
(3 -2.39928e-11 0)
(3 -1.49416e-10 0)
(3 -5.00203e-10 0)
(3 -1.35185e-09 0)
(3 -3.30902e-09 0)
(2.99999 -7.7006e-09 0)
(2.99998 -1.74609e-08 0)
(2.99996 -3.90943e-08 0)
(2.9999 -8.7057e-08 0)
(2.99979 -1.93529e-07 0)
(2.99955 -4.30211e-07 0)
(2.99902 -9.56985e-07 0)
(2.99786 -2.13074e-06 0)
(2.99534 -4.74988e-06 0)
(2.98981 -1.06102e-05 0)
(2.97762 -2.37994e-05 0)
(2.95025 -5.38857e-05 0)
(2.8865 -0.000124579 0)
(2.72567 -0.000301589 0)
(2.23658 -0.000849264 0)
(0.0389042 -0.00370408 0)
(-1.47168 0.00863173 0)
(-0.797241 0.0249118 0)
(-0.168313 0.040418 0)
(0.202425 0.0580009 0)
(0.344463 0.0737182 0)
(0.364557 0.0804835 0)
(0.149453 0.0582127 0)
(-0.0713115 0.0678225 0)
(0.116111 0.0665234 0)
(3 -3.30605e-11 0)
(3 -2.0557e-10 0)
(3 -6.86417e-10 0)
(3 -1.84836e-09 0)
(3 -4.50576e-09 0)
(2.99999 -1.04406e-08 0)
(2.99998 -2.35699e-08 0)
(2.99996 -5.25375e-08 0)
(2.9999 -1.16473e-07 0)
(2.99979 -2.57798e-07 0)
(2.99955 -5.7072e-07 0)
(2.99902 -1.26472e-06 0)
(2.99786 -2.80633e-06 0)
(2.99533 -6.23733e-06 0)
(2.98981 -1.38972e-05 0)
(2.97761 -3.11029e-05 0)
(2.95023 -7.02738e-05 0)
(2.88645 -0.000162061 0)
(2.72553 -0.000390664 0)
(2.23589 -0.00109505 0)
(0.0406902 -0.00486078 0)
(-1.46691 0.013151 0)
(-0.788996 0.0351121 0)
(-0.157541 0.0572718 0)
(0.214498 0.0805831 0)
(0.354385 0.100574 0)
(0.367309 0.108949 0)
(0.157648 0.0829998 0)
(-0.0615803 0.0918462 0)
(0.0924279 0.0959022 0)
(3 -4.15592e-11 0)
(3 -2.57993e-10 0)
(3 -8.58986e-10 0)
(3 -2.30335e-09 0)
(3 -5.58793e-09 0)
(2.99999 -1.28829e-08 0)
(2.99998 -2.89335e-08 0)
(2.99996 -6.41558e-08 0)
(2.9999 -1.41489e-07 0)
(2.99979 -3.11578e-07 0)
(2.99955 -6.8648e-07 0)
(2.99902 -1.51463e-06 0)
(2.99786 -3.34813e-06 0)
(2.99533 -7.418e-06 0)
(2.9898 -1.64866e-05 0)
(2.9776 -3.68301e-05 0)
(2.9502 -8.31047e-05 0)
(2.88639 -0.000191448 0)
(2.72535 -0.00046074 0)
(2.23504 -0.00129063 0)
(0.0433188 -0.00579926 0)
(-1.46025 0.0181127 0)
(-0.779826 0.045619 0)
(-0.145069 0.0744469 0)
(0.226627 0.102828 0)
(0.363245 0.12694 0)
(0.368715 0.134876 0)
(0.16304 0.109303 0)
(-0.0512309 0.11492 0)
(0.0778213 0.123992 0)
(3 -4.92349e-11 0)
(3 -3.05161e-10 0)
(3 -1.0131e-09 0)
(3 -2.70477e-09 0)
(3 -6.52854e-09 0)
(2.99999 -1.49708e-08 0)
(2.99998 -3.34371e-08 0)
(2.99996 -7.37256e-08 0)
(2.9999 -1.61678e-07 0)
(2.99979 -3.54074e-07 0)
(2.99955 -7.76029e-07 0)
(2.99902 -1.70404e-06 0)
(2.99786 -3.75111e-06 0)
(2.99533 -8.28218e-06 0)
(2.9898 -1.83582e-05 0)
(2.97759 -4.0935e-05 0)
(2.95018 -9.22651e-05 0)
(2.88632 -0.000212436 0)
(2.72515 -0.00051093 0)
(2.23405 -0.00143366 0)
(0.0469079 -0.0065309 0)
(-1.4517 0.0234359 0)
(-0.769275 0.0567488 0)
(-0.131503 0.0914796 0)
(0.238577 0.124311 0)
(0.37133 0.152705 0)
(0.369245 0.16016 0)
(0.165774 0.137427 0)
(-0.0420583 0.139106 0)
(0.0704091 0.151483 0)
(3 -5.57588e-11 0)
(3 -3.45108e-10 0)
(3 -1.14269e-09 0)
(3 -3.03821e-09 0)
(3 -7.29779e-09 0)
(2.99999 -1.66481e-08 0)
(2.99998 -3.69839e-08 0)
(2.99996 -8.10972e-08 0)
(2.9999 -1.76853e-07 0)
(2.99979 -3.85168e-07 0)
(2.99955 -8.39699e-07 0)
(2.99902 -1.83478e-06 0)
(2.99786 -4.02127e-06 0)
(2.99533 -8.84601e-06 0)
(2.98979 -1.95513e-05 0)
(2.97757 -4.35064e-05 0)
(2.95015 -9.79454e-05 0)
(2.88625 -0.000225425 0)
(2.72494 -0.000542106 0)
(2.23297 -0.00152631 0)
(0.0515003 -0.00706014 0)
(-1.44122 0.0290924 0)
(-0.757123 0.0684806 0)
(-0.117732 0.10816 0)
(0.250606 0.145367 0)
(0.379009 0.177639 0)
(0.369335 0.185899 0)
(0.168257 0.166654 0)
(-0.0331442 0.164916 0)
(0.0671167 0.178162 0)
(3 -6.0735e-11 0)
(3 -3.7548e-10 0)
(3 -1.24053e-09 0)
(3 -3.28684e-09 0)
(3 -7.86219e-09 0)
(2.99999 -1.78555e-08 0)
(2.99998 -3.9481e-08 0)
(2.99996 -8.6154e-08 0)
(2.9999 -1.86947e-07 0)
(2.99979 -4.05108e-07 0)
(2.99955 -8.78809e-07 0)
(2.99901 -1.9112e-06 0)
(2.99785 -4.17067e-06 0)
(2.99532 -9.13984e-06 0)
(2.98979 -2.01373e-05 0)
(2.97756 -4.47035e-05 0)
(2.95011 -0.000100484 0)
(2.88617 -0.000231108 0)
(2.72471 -0.00055563 0)
(2.23182 -0.00157085 0)
(0.0571673 -0.0073828 0)
(-1.4288 0.0351122 0)
(-0.743566 0.0805793 0)
(-0.103857 0.12461 0)
(0.26287 0.16636 0)
(0.386473 0.201654 0)
(0.369266 0.212492 0)
(0.171075 0.196705 0)
(-0.0241051 0.191685 0)
(0.0663774 0.203871 0)
(3 -6.37451e-11 0)
(3 -3.93766e-10 0)
(3 -1.29887e-09 0)
(3 -3.43275e-09 0)
(3 -8.18638e-09 0)
(2.99999 -1.85309e-08 0)
(2.99998 -4.08326e-08 0)
(2.99996 -8.87779e-08 0)
(2.9999 -1.91897e-07 0)
(2.99979 -4.14161e-07 0)
(2.99955 -8.94742e-07 0)
(2.99901 -1.93784e-06 0)
(2.99785 -4.21194e-06 0)
(2.99532 -9.19592e-06 0)
(2.98978 -2.01935e-05 0)
(2.97755 -4.47034e-05 0)
(2.95008 -0.000100274 0)
(2.88609 -0.000230328 0)
(2.72448 -0.00055335 0)
(2.23064 -0.00157096 0)
(0.0639823 -0.00749016 0)
(-1.41444 0.0415252 0)
(-0.728736 0.09283 0)
(-0.089768 0.141042 0)
(0.275326 0.187359 0)
(0.393888 0.224917 0)
(0.369412 0.239575 0)
(0.174039 0.227503 0)
(-0.0150955 0.219501 0)
(0.0670951 0.229025 0)
(3 -6.44129e-11 0)
(3 -3.97699e-10 0)
(3 -1.31071e-09 0)
(3 -3.45948e-09 0)
(3 -8.23726e-09 0)
(2.99999 -1.86141e-08 0)
(2.99998 -4.09389e-08 0)
(2.99996 -8.88216e-08 0)
(2.9999 -1.91533e-07 0)
(2.99979 -4.12259e-07 0)
(2.99955 -8.87959e-07 0)
(2.99901 -1.91688e-06 0)
(2.99785 -4.15205e-06 0)
(2.99532 -9.03333e-06 0)
(2.98977 -1.97682e-05 0)
(2.97753 -4.36215e-05 0)
(2.95005 -9.75768e-05 0)
(2.88602 -0.000223667 0)
(2.72426 -0.000536506 0)
(2.22945 -0.00152898 0)
(0.0720177 -0.00737703 0)
(-1.39816 0.0483448 0)
(-0.712755 0.105037 0)
(-0.0753436 0.157675 0)
(0.287927 0.208432 0)
(0.401288 0.247645 0)
(0.369924 0.266277 0)
(0.176993 0.258307 0)
(-0.00616882 0.248565 0)
(0.0686011 0.254566 0)
(3 -6.24827e-11 0)
(3 -3.85732e-10 0)
(3 -1.27114e-09 0)
(3 -3.35508e-09 0)
(3 -7.98911e-09 0)
(2.99999 -1.80534e-08 0)
(2.99998 -3.96996e-08 0)
(2.99996 -8.60966e-08 0)
(2.9999 -1.85509e-07 0)
(2.99979 -3.98791e-07 0)
(2.99955 -8.57427e-07 0)
(2.99901 -1.8467e-06 0)
(2.99785 -3.98884e-06 0)
(2.99532 -8.6503e-06 0)
(2.98977 -1.88635e-05 0)
(2.97752 -4.14741e-05 0)
(2.95002 -9.2449e-05 0)
(2.88595 -0.000211264 0)
(2.72404 -0.000505357 0)
(2.22831 -0.00144539 0)
(0.0813632 -0.00705237 0)
(-1.37996 0.0555316 0)
(-0.695851 0.117185 0)
(-0.0600443 0.174604 0)
(0.300632 0.229584 0)
(0.408513 0.270057 0)
(0.370825 0.292386 0)
(0.179929 0.28872 0)
(0.00277801 0.278378 0)
(0.0707598 0.281231 0)
(3 -5.78732e-11 0)
(3 -3.57337e-10 0)
(3 -1.17827e-09 0)
(3 -3.11394e-09 0)
(3 -7.42666e-09 0)
(2.99999 -1.68094e-08 0)
(2.99998 -3.70172e-08 0)
(2.99996 -8.03702e-08 0)
(2.9999 -1.73289e-07 0)
(2.99979 -3.72561e-07 0)
(2.99955 -8.00564e-07 0)
(2.99901 -1.72193e-06 0)
(2.99785 -3.71148e-06 0)
(2.99531 -8.02585e-06 0)
(2.98976 -1.74404e-05 0)
(2.97751 -3.81927e-05 0)
(2.95 -8.47774e-05 0)
(2.88588 -0.000192947 0)
(2.72384 -0.000459666 0)
(2.22724 -0.00132034 0)
(0.0920855 -0.00653302 0)
(-1.35987 0.0630187 0)
(-0.67792 0.12944 0)
(-0.0438048 0.191746 0)
(0.313362 0.250724 0)
(0.415473 0.292333 0)
(0.372069 0.318113 0)
(0.182849 0.318752 0)
(0.0118268 0.308569 0)
(0.0736449 0.309024 0)
(3 -5.06344e-11 0)
(3 -3.12798e-10 0)
(3 -1.03274e-09 0)
(3 -2.73581e-09 0)
(3 -6.54337e-09 0)
(2.99999 -1.48529e-08 0)
(2.99998 -3.27971e-08 0)
(2.99996 -7.13774e-08 0)
(2.9999 -1.54195e-07 0)
(2.99979 -3.31942e-07 0)
(2.99955 -7.13655e-07 0)
(2.99901 -1.53439e-06 0)
(2.99785 -3.30254e-06 0)
(2.99531 -7.12382e-06 0)
(2.98976 -1.54263e-05 0)
(2.9775 -3.36352e-05 0)
(2.94997 -7.42962e-05 0)
(2.88582 -0.000168246 0)
(2.72367 -0.000398685 0)
(2.22626 -0.00115327 0)
(0.104222 -0.00583129 0)
(-1.33788 0.0707754 0)
(-0.658879 0.141902 0)
(-0.0267338 0.209072 0)
(0.326111 0.271835 0)
(0.422153 0.314577 0)
(0.373647 0.343586 0)
(0.185867 0.348618 0)
(0.0208643 0.3393 0)
(0.0771604 0.337658 0)
(3 -4.08421e-11 0)
(3 -2.52622e-10 0)
(3 -8.36081e-10 0)
(3 -2.2228e-09 0)
(3 -5.33763e-09 0)
(2.99999 -1.21638e-08 0)
(2.99998 -2.69593e-08 0)
(2.99996 -5.88723e-08 0)
(2.9999 -1.27559e-07 0)
(2.99979 -2.75242e-07 0)
(2.99955 -5.92609e-07 0)
(2.99901 -1.27453e-06 0)
(2.99785 -2.74044e-06 0)
(2.99531 -5.8969e-06 0)
(2.98975 -1.27206e-05 0)
(2.97749 -2.75964e-05 0)
(2.94995 -6.05986e-05 0)
(2.88577 -0.00013636 0)
(2.72352 -0.000320469 0)
(2.22542 -0.00093865 0)
(0.117791 -0.00495697 0)
(-1.31398 0.0787949 0)
(-0.638738 0.154647 0)
(-0.00877832 0.226557 0)
(0.338847 0.292913 0)
(0.428571 0.336844 0)
(0.375579 0.368878 0)
(0.189136 0.378422 0)
(0.0297426 0.370714 0)
(0.0810856 0.367217 0)
(3 -2.85481e-11 0)
(3 -1.77224e-10 0)
(3 -5.89769e-10 0)
(3 -1.57777e-09 0)
(3 -3.81174e-09 0)
(2.99999 -8.73475e-09 0)
(2.99998 -1.94572e-08 0)
(2.99996 -4.26862e-08 0)
(2.9999 -9.28683e-08 0)
(2.99979 -2.01059e-07 0)
(2.99955 -4.33868e-07 0)
(2.99901 -9.33896e-07 0)
(2.99785 -2.00632e-06 0)
(2.99531 -4.30578e-06 0)
(2.98975 -9.24673e-06 0)
(2.97748 -1.99371e-05 0)
(2.94994 -4.34374e-05 0)
(2.88574 -9.69671e-05 0)
(2.7234 -0.000224785 0)
(2.22472 -0.000673571 0)
(0.132777 -0.00390629 0)
(-1.28817 0.0870685 0)
(-0.617486 0.16779 0)
(0.00993339 0.244183 0)
(0.351653 0.313914 0)
(0.434784 0.359091 0)
(0.377902 0.393944 0)
(0.192791 0.408298 0)
(0.0384097 0.403033 0)
(0.0852463 0.397647 0)
(3 -1.3795e-11 0)
(3 -8.68933e-11 0)
(3 -2.94724e-10 0)
(3 -8.02286e-10 0)
(3 -1.96595e-09 0)
(2.99999 -4.55633e-09 0)
(2.99998 -1.0246e-08 0)
(2.99996 -2.26699e-08 0)
(2.9999 -4.97158e-08 0)
(2.99979 -1.08442e-07 0)
(2.99955 -2.35591e-07 0)
(2.99901 -5.09982e-07 0)
(2.99785 -1.1002e-06 0)
(2.99531 -2.36675e-06 0)
(2.98975 -5.08416e-06 0)
(2.97748 -1.09451e-05 0)
(2.94993 -2.37761e-05 0)
(2.88572 -5.30304e-05 0)
(2.72333 -0.000122759 0)
(2.22422 -0.000385384 0)
(0.149141 -0.00265855 0)
(-1.26046 0.0956408 0)
(-0.594939 0.181341 0)
(0.0291778 0.262011 0)
(0.364424 0.334845 0)
(0.440818 0.381324 0)
(0.380698 0.418751 0)
(0.197097 0.438413 0)
(0.046854 0.436398 0)
(0.0893358 0.429052 0)
(3 3.53177e-12 0)
(3 1.91283e-11 0)
(3 5.18237e-11 0)
(3 1.12029e-10 0)
(3 2.22975e-10 0)
(2.99999 4.32689e-10 0)
(2.99998 8.30906e-10 0)
(2.99996 1.57026e-09 0)
(2.9999 2.88738e-09 0)
(2.99979 5.10945e-09 0)
(2.99955 8.61383e-09 0)
(2.99901 1.36909e-08 0)
(2.99785 2.02859e-08 0)
(2.99531 2.76461e-08 0)
(2.98975 3.31621e-08 0)
(2.97748 2.17033e-08 0)
(2.94992 -1.13066e-07 0)
(2.88571 -1.05956e-06 0)
(2.72329 -6.02377e-06 0)
(2.2239 -7.3383e-05 0)
(0.167112 -0.00121484 0)
(-1.23078 0.10457 0)
(-0.571233 0.195276 0)
(0.0490691 0.280075 0)
(0.377174 0.355724 0)
(0.446679 0.403557 0)
(0.384061 0.443403 0)
(0.202196 0.468828 0)
(0.0550546 0.47085 0)
(0.0932241 0.461683 0)
(3 2.39089e-11 0)
(3 1.43779e-10 0)
(3 4.59525e-10 0)
(3 1.19059e-09 0)
(3 2.81557e-09 0)
(2.99999 6.37011e-09 0)
(2.99998 1.40821e-08 0)
(2.99996 3.07282e-08 0)
(2.9999 6.65302e-08 0)
(2.99979 1.43348e-07 0)
(2.99955 3.07918e-07 0)
(2.99901 6.60199e-07 0)
(2.99785 1.41417e-06 0)
(2.99531 3.02879e-06 0)
(2.98975 6.49175e-06 0)
(2.97748 1.39416e-05 0)
(2.94993 3.00492e-05 0)
(2.88571 6.52167e-05 0)
(2.7233 0.000143485 0)
(2.2238 0.000297909 0)
(0.186628 0.000456486 0)
(-1.19911 0.113892 0)
(-0.546334 0.209616 0)
(0.0693857 0.298371 0)
(0.389852 0.376579 0)
(0.452413 0.425945 0)
(0.388051 0.468135 0)
(0.208381 0.499647 0)
(0.0632016 0.506401 0)
(0.0967662 0.495303 0)
(3 4.80709e-11 0)
(3 2.91558e-10 0)
(3 9.42963e-10 0)
(3 2.4708e-09 0)
(3 5.89792e-09 0)
(2.99999 1.34436e-08 0)
(2.99998 2.9906e-08 0)
(2.99996 6.56365e-08 0)
(2.9999 1.42934e-07 0)
(2.99979 3.09783e-07 0)
(2.99955 6.69344e-07 0)
(2.99901 1.44328e-06 0)
(2.99785 3.10784e-06 0)
(2.99531 6.68743e-06 0)
(2.98975 1.43925e-05 0)
(2.97749 3.10305e-05 0)
(2.94994 6.72253e-05 0)
(2.88574 0.000147283 0)
(2.72337 0.000330536 0)
(2.22397 0.000762517 0)
(0.207556 0.00245024 0)
(-1.16564 0.12364 0)
(-0.520357 0.224391 0)
(0.0902405 0.316923 0)
(0.402519 0.397377 0)
(0.458077 0.448562 0)
(0.392752 0.493138 0)
(0.215669 0.530932 0)
(0.0712293 0.54298 0)
(0.0998323 0.530548 0)
(3 7.6793e-11 0)
(3 4.6726e-10 0)
(3 1.51778e-09 0)
(3 3.99272e-09 0)
(3 9.5615e-09 0)
(2.99999 2.18508e-08 0)
(2.99998 4.8719e-08 0)
(2.99996 1.07166e-07 0)
(2.9999 2.3392e-07 0)
(2.99979 5.08255e-07 0)
(2.99955 1.10109e-06 0)
(2.99901 2.3807e-06 0)
(2.99785 5.14049e-06 0)
(2.99531 1.10916e-05 0)
(2.98976 2.39377e-05 0)
(2.9775 5.17683e-05 0)
(2.94996 0.000112597 0)
(2.8858 0.000248241 0)
(2.7235 0.000563747 0)
(2.22445 0.00135289 0)
(0.229973 0.00483611 0)
(-1.1304 0.133859 0)
(-0.493431 0.239582 0)
(0.111305 0.335697 0)
(0.41513 0.418105 0)
(0.463788 0.471484 0)
(0.398194 0.518625 0)
(0.224334 0.562773 0)
(0.0795558 0.580677 0)
(0.102579 0.567282 0)
(3 1.10789e-10 0)
(3 6.75313e-10 0)
(3 2.19846e-09 0)
(3 5.79302e-09 0)
(3 1.38885e-08 0)
(2.99999 3.17656e-08 0)
(2.99998 7.0879e-08 0)
(2.99996 1.56048e-07 0)
(2.9999 3.40995e-07 0)
(2.99979 7.41902e-07 0)
(2.99955 1.60983e-06 0)
(2.99901 3.48697e-06 0)
(2.99785 7.54435e-06 0)
(2.99532 1.63144e-05 0)
(2.98977 3.52956e-05 0)
(2.97751 7.65447e-05 0)
(2.95 0.000167063 0)
(2.88589 0.000370116 0)
(2.72373 0.000847334 0)
(2.22531 0.00207576 0)
(0.254125 0.00761809 0)
(-1.0932 0.144526 0)
(-0.465629 0.255284 0)
(0.132875 0.354733 0)
(0.427843 0.438684 0)
(0.469693 0.494665 0)
(0.40448 0.544739 0)
(0.234451 0.595295 0)
(0.0882278 0.6197 0)
(0.104895 0.605873 0)
(3 1.50651e-10 0)
(3 9.1942e-10 0)
(3 2.99712e-09 0)
(3 7.90242e-09 0)
(3 1.89476e-08 0)
(2.99999 4.33313e-08 0)
(2.99998 9.66763e-08 0)
(2.99996 2.1286e-07 0)
(2.9999 4.653e-07 0)
(2.99979 1.013e-06 0)
(2.99955 2.20012e-06 0)
(2.99901 4.7714e-06 0)
(2.99785 1.03388e-05 0)
(2.99532 2.2397e-05 0)
(2.98978 4.85544e-05 0)
(2.97754 0.000105549 0)
(2.95006 0.000231022 0)
(2.88603 0.0005137 0)
(2.72406 0.00118246 0)
(2.22662 0.00293107 0)
(0.280036 0.0108251 0)
(-1.05399 0.155773 0)
(-0.436447 0.271458 0)
(0.154402 0.373978 0)
(0.440563 0.458964 0)
(0.475984 0.518036 0)
(0.411681 0.571564 0)
(0.246395 0.628563 0)
(0.0978389 0.660262 0)
(0.107045 0.646954 0)
(3 1.96829e-10 0)
(3 1.20236e-09 0)
(3 3.92285e-09 0)
(3 1.03443e-08 0)
(3 2.47925e-08 0)
(2.99999 5.66655e-08 0)
(2.99998 1.26361e-07 0)
(2.99996 2.78134e-07 0)
(2.9999 6.07964e-07 0)
(2.99979 1.32396e-06 0)
(2.99955 2.87723e-06 0)
(2.99902 6.24563e-06 0)
(2.99786 1.35501e-05 0)
(2.99533 2.93991e-05 0)
(2.98979 6.3853e-05 0)
(2.97758 0.000139108 0)
(2.95014 0.000305263 0)
(2.88621 0.000680937 0)
(2.72452 0.00157419 0)
(2.22844 0.00393319 0)
(0.307819 0.0145064 0)
(-1.01276 0.167646 0)
(-0.406604 0.288066 0)
(0.176455 0.393438 0)
(0.453448 0.478751 0)
(0.48289 0.541439 0)
(0.419976 0.599111 0)
(0.260313 0.662702 0)
(0.108659 0.702611 0)
(0.109138 0.691239 0)
(3 2.49523e-10 0)
(3 1.52533e-09 0)
(3 4.9796e-09 0)
(3 1.31296e-08 0)
(3 3.14516e-08 0)
(2.99999 7.18392e-08 0)
(2.99998 1.6011e-07 0)
(2.99996 3.52301e-07 0)
(2.9999 7.70042e-07 0)
(2.99979 1.67733e-06 0)
(2.99955 3.64725e-06 0)
(2.99902 7.92417e-06 0)
(2.99786 1.72124e-05 0)
(2.99534 3.74017e-05 0)
(2.98981 8.13817e-05 0)
(2.97762 0.000177672 0)
(2.95024 0.000390849 0)
(2.88645 0.000874406 0)
(2.72513 0.00202905 0)
(2.23085 0.00510039 0)
(0.33759 0.018715 0)
(-0.969459 0.180217 0)
(-0.375409 0.305245 0)
(0.198183 0.413068 0)
(0.466486 0.49776 0)
(0.490715 0.56474 0)
(0.42953 0.627549 0)
(0.276567 0.697846 0)
(0.121479 0.746968 0)
(0.111665 0.739864 0)
(3 3.08524e-10 0)
(3 1.88705e-09 0)
(3 6.1634e-09 0)
(3 1.62498e-08 0)
(3 3.89118e-08 0)
(2.99999 8.88431e-08 0)
(2.99998 1.97952e-07 0)
(2.99996 4.35542e-07 0)
(2.9999 9.52179e-07 0)
(2.99979 2.07506e-06 0)
(2.99955 4.51552e-06 0)
(2.99902 9.82083e-06 0)
(2.99787 2.13603e-05 0)
(2.99535 4.64882e-05 0)
(2.98984 0.000101339 0)
(2.97768 0.000221705 0)
(2.95037 0.00048887 0)
(2.88675 0.00109667 0)
(2.72592 0.00255322 0)
(2.23393 0.00644982 0)
(0.369515 0.0235347 0)
(-0.924159 0.193691 0)
(-0.343238 0.322779 0)
(0.220177 0.432965 0)
(0.479762 0.51563 0)
(0.49987 0.587636 0)
(0.440674 0.656828 0)
(0.295475 0.733959 0)
(0.13713 0.793785 0)
(0.11516 0.794774 0)
(3 3.7314e-10 0)
(3 2.28321e-09 0)
(3 7.46036e-09 0)
(3 1.96711e-08 0)
(3 4.71026e-08 0)
(2.99999 1.07546e-07 0)
(2.99998 2.39667e-07 0)
(2.99996 5.27537e-07 0)
(2.99991 1.15403e-06 0)
(2.99979 2.51716e-06 0)
(2.99955 5.48362e-06 0)
(2.99902 1.19422e-05 0)
(2.99787 2.60145e-05 0)
(2.99536 5.6717e-05 0)
(2.98987 0.000123878 0)
(2.97775 0.000271595 0)
(2.95053 0.000600291 0)
(2.88714 0.00135015 0)
(2.72691 0.00315314 0)
(2.23779 0.0080128 0)
(0.403785 0.0290245 0)
(-0.876782 0.208191 0)
(-0.310066 0.341075 0)
(0.242331 0.452233 0)
(0.493176 0.532063 0)
(0.510806 0.6097 0)
(0.453713 0.686293 0)
(0.317782 0.770685 0)
(0.157524 0.844333 0)
(0.120805 0.858727 0)
(3 4.42098e-10 0)
(3 2.70589e-09 0)
(3 8.84441e-09 0)
(3 2.33269e-08 0)
(3 5.58747e-08 0)
(2.99999 1.27635e-07 0)
(2.99998 2.84628e-07 0)
(2.99996 6.27064e-07 0)
(2.99991 1.37328e-06 0)
(2.99979 2.99928e-06 0)
(2.99955 6.54365e-06 0)
(2.99903 1.42743e-05 0)
(2.99788 3.11511e-05 0)
(2.99538 6.80483e-05 0)
(2.98991 0.000148937 0)
(2.97784 0.000327258 0)
(2.95073 0.000725016 0)
(2.88761 0.00163473 0)
(2.72814 0.00382761 0)
(2.24255 0.00980696 0)
(0.440704 0.0352647 0)
(-0.827266 0.223994 0)
(-0.276106 0.360654 0)
(0.265146 0.469743 0)
(0.507072 0.546745 0)
(0.523853 0.63036 0)
(0.469104 0.715413 0)
(0.344287 0.809577 0)
(0.183801 0.901086 0)
(0.12955 0.933566 0)
(3 5.13501e-10 0)
(3 3.14332e-09 0)
(3 1.02768e-08 0)
(3 2.71164e-08 0)
(3 6.49926e-08 0)
(2.99999 1.48591e-07 0)
(2.99998 3.31727e-07 0)
(2.99996 7.31791e-07 0)
(2.99991 1.60506e-06 0)
(2.9998 3.51139e-06 0)
(2.99955 7.67497e-06 0)
(2.99903 1.67752e-05 0)
(2.99789 3.6686e-05 0)
(2.9954 8.0319e-05 0)
(2.98996 0.000176214 0)
(2.97794 0.000388175 0)
(2.95097 0.00086233 0)
(2.88817 0.00195023 0)
(2.72964 0.00458207 0)
(2.24832 0.0118332 0)
(0.480604 0.0423285 0)
(-0.775295 0.241553 0)
(-0.241409 0.381384 0)
(0.287899 0.484678 0)
(0.52183 0.559037 0)
(0.539468 0.648494 0)
(0.487821 0.743812 0)
(0.376143 0.852731 0)
(0.217688 0.96575 0)
(0.142676 1.02303 0)
(3 5.84655e-10 0)
(3 3.57862e-09 0)
(3 1.17005e-08 0)
(3 3.08832e-08 0)
(3 7.40683e-08 0)
(2.99999 1.69498e-07 0)
(2.99998 3.78848e-07 0)
(2.99996 8.36905e-07 0)
(2.99991 1.83847e-06 0)
(2.9998 4.02889e-06 0)
(2.99956 8.8222e-06 0)
(2.99904 1.93204e-05 0)
(2.9979 4.23406e-05 0)
(2.99543 9.29089e-05 0)
(2.99001 0.000204338 0)
(2.97807 0.000451364 0)
(2.95125 0.00100583 0)
(2.88885 0.00228327 0)
(2.73146 0.00539089 0)
(2.2553 0.0140321 0)
(0.524425 0.0502823 0)
(-0.720828 0.262502 0)
(-0.204458 0.401686 0)
(0.310651 0.496149 0)
(0.537582 0.568787 0)
(0.558121 0.664695 0)
(0.511192 0.772555 0)
(0.414008 0.90136 0)
(0.260962 1.03956 0)
(0.16203 1.13543 0)
(3 6.54881e-10 0)
(3 4.00807e-09 0)
(3 1.31054e-08 0)
(3 3.46066e-08 0)
(3 8.30613e-08 0)
(2.99999 1.90268e-07 0)
(2.99998 4.25762e-07 0)
(2.99996 9.41719e-07 0)
(2.99991 2.07141e-06 0)
(2.9998 4.54535e-06 0)
(2.99956 9.96634e-06 0)
(2.99904 2.18554e-05 0)
(2.99792 4.79617e-05 0)
(2.99546 0.000105395 0)
(2.99008 0.000232167 0)
(2.97821 0.000513785 0)
(2.95158 0.0011477 0)
(2.88965 0.00261479 0)
(2.73361 0.00621359 0)
(2.26369 0.0163888 0)
(0.573922 0.0590284 0)
(-0.663301 0.289869 0)
(-0.163414 0.41919 0)
(0.334373 0.502187 0)
(0.555112 0.57524 0)
(0.580517 0.679234 0)
(0.540211 0.800626 0)
(0.459172 0.949526 0)
(0.318341 1.11438 0)
(0.191725 1.26871 0)
(3 7.7984e-10 0)
(3 4.76625e-09 0)
(3 1.55616e-08 0)
(3 4.10654e-08 0)
(3 9.8556e-08 0)
(2.99999 2.25792e-07 0)
(2.99998 5.05279e-07 0)
(2.99996 1.11732e-06 0)
(2.99991 2.45601e-06 0)
(2.9998 5.38306e-06 0)
(2.99957 1.17833e-05 0)
(2.99906 2.57827e-05 0)
(2.99795 5.64244e-05 0)
(2.99554 0.000123583 0)
(2.99026 0.000271187 0)
(2.97862 0.000597485 0)
(2.95252 0.00132788 0)
(2.89193 0.00300711 0)
(2.73993 0.00709225 0)
(2.28857 0.0185077 0)
(0.7256 0.0645725 0)
(-0.458269 0.321706 0)
(-0.110053 0.452482 0)
(0.326367 0.523082 0)
(0.573096 0.598172 0)
(0.655847 0.711407 0)
(0.670319 0.857008 0)
(0.677234 1.03339 0)
(0.683707 1.23511 0)
(0.587663 1.46656 0)
(3 1.056e-09 0)
(3 6.44119e-09 0)
(3 2.09763e-08 0)
(3 5.52336e-08 0)
(3 1.3234e-07 0)
(2.99999 3.02811e-07 0)
(2.99998 6.76898e-07 0)
(2.99996 1.49517e-06 0)
(2.99991 3.28248e-06 0)
(2.99981 7.18398e-06 0)
(2.99958 1.56987e-05 0)
(2.99909 3.42828e-05 0)
(2.99802 7.48612e-05 0)
(2.9957 0.000163557 0)
(2.9906 0.000357884 0)
(2.97938 0.000785835 0)
(2.95425 0.00173889 0)
(2.89601 0.00391299 0)
(2.7507 0.00913127 0)
(2.32678 0.023263 0)
(0.921001 0.0750284 0)
(-0.195748 0.332425 0)
(0.0178485 0.501971 0)
(0.36409 0.57417 0)
(0.606907 0.644892 0)
(0.723676 0.74427 0)
(0.781997 0.878932 0)
(0.846538 1.03664 0)
(0.970167 1.1998 0)
(1.01661 1.3504 0)
(3 1.53756e-09 0)
(3 9.382e-09 0)
(3 3.05578e-08 0)
(3 8.04333e-08 0)
(3 1.92593e-07 0)
(2.99999 4.40398e-07 0)
(2.99998 9.84062e-07 0)
(2.99996 2.17348e-06 0)
(2.99992 4.7729e-06 0)
(2.99982 1.04521e-05 0)
(2.9996 2.2861e-05 0)
(2.99914 4.99823e-05 0)
(2.99812 0.000109297 0)
(2.99592 0.000239174 0)
(2.99109 0.000524225 0)
(2.98046 0.00115291 0)
(2.9567 0.002554 0)
(2.90182 0.0057467 0)
(2.76584 0.0133752 0)
(2.37665 0.0336326 0)
(1.14117 0.101338 0)
(0.0947241 0.36643 0)
(0.170927 0.553794 0)
(0.420903 0.62635 0)
(0.649061 0.682033 0)
(0.785387 0.765338 0)
(0.874053 0.881046 0)
(0.963197 1.01253 0)
(1.12033 1.13361 0)
(1.24795 1.20212 0)
(3 2.42018e-09 0)
(3 1.47605e-08 0)
(3 4.8065e-08 0)
(3 1.266e-07 0)
(3 3.03613e-07 0)
(2.99999 6.95903e-07 0)
(2.99998 1.55959e-06 0)
(2.99996 3.45615e-06 0)
(2.99992 7.61631e-06 0)
(2.99983 1.67371e-05 0)
(2.99964 3.67284e-05 0)
(2.99921 8.05397e-05 0)
(2.99828 0.000176555 0)
(2.99625 0.000387065 0)
(2.99182 0.000849209 0)
(2.98209 0.00186732 0)
(2.96039 0.00412907 0)
(2.91053 0.00925078 0)
(2.78819 0.0213507 0)
(2.44514 0.0527015 0)
(1.38244 0.149909 0)
(0.392377 0.446393 0)
(0.325723 0.589015 0)
(0.466255 0.653222 0)
(0.675821 0.691737 0)
(0.836502 0.759518 0)
(0.946803 0.854787 0)
(1.04393 0.961883 0)
(1.19127 1.05885 0)
(1.32192 1.09731 0)
(3 3.51973e-09 0)
(3 2.14381e-08 0)
(3 6.97765e-08 0)
(3 1.84199e-07 0)
(3 4.43946e-07 0)
(2.99999 1.02502e-06 0)
(2.99999 2.31847e-06 0)
(2.99997 5.19377e-06 0)
(2.99993 1.1585e-05 0)
(2.99986 2.57954e-05 0)
(2.99969 5.73969e-05 0)
(2.99932 0.000127664 0)
(2.99853 0.000283831 0)
(2.99681 0.000630696 0)
(2.99306 0.00140098 0)
(2.98484 0.00311407 0)
(2.96657 0.00694478 0)
(2.9249 0.0156349 0)
(2.82422 0.0360202 0)
(2.5496 0.087551 0)
(1.69908 0.236826 0)
(0.672201 0.623018 0)
(0.444795 0.621468 0)
(0.521396 0.650665 0)
(0.697163 0.681975 0)
(0.869067 0.735097 0)
(0.992626 0.81153 0)
(1.09571 0.897494 0)
(1.2291 0.979305 0)
(1.35297 1.02078 0)
(3 3.92229e-09 0)
(3 2.39794e-08 0)
(3 7.83049e-08 0)
(3 2.0656e-07 0)
(3 4.95426e-07 0)
(3 1.13428e-06 0)
(2.99999 2.53684e-06 0)
(2.99998 5.60677e-06 0)
(2.99995 1.23179e-05 0)
(2.99989 2.69814e-05 0)
(2.99977 5.90131e-05 0)
(2.99951 0.000128983 0)
(2.99895 0.00028186 0)
(2.99774 0.000616104 0)
(2.99514 0.00134804 0)
(2.98951 0.00295623 0)
(2.97721 0.00651464 0)
(2.94983 0.014506 0)
(2.8865 0.0330246 0)
(2.72445 0.078906 0)
(2.25505 0.209 0)
(1.13448 0.595191 0)
(0.655956 0.62494 0)
(0.645465 0.661445 0)
(0.75457 0.692858 0)
(0.905832 0.725371 0)
(1.02946 0.777244 0)
(1.13268 0.840582 0)
(1.25585 0.90494 0)
(1.37258 0.947885 0)
(3 3.22073e-09 0)
(3 1.97584e-08 0)
(3 6.46662e-08 0)
(3 1.70083e-07 0)
(3 4.04575e-07 0)
(3 9.14192e-07 0)
(2.99999 2.00934e-06 0)
(2.99998 4.34798e-06 0)
(2.99996 9.32104e-06 0)
(2.99992 1.98615e-05 0)
(2.99982 4.21429e-05 0)
(2.99962 8.91515e-05 0)
(2.99918 0.000188234 0)
(2.99824 0.000397155 0)
(2.99619 0.000838612 0)
(2.99174 0.00177563 0)
(2.98203 0.00378091 0)
(2.96052 0.00813774 0)
(2.91142 0.0178832 0)
(2.79159 0.0409706 0)
(2.46034 0.105226 0)
(1.56515 0.287321 0)
(0.796095 0.573792 0)
(0.742449 0.672954 0)
(0.804594 0.719464 0)
(0.936156 0.736501 0)
(1.06843 0.759888 0)
(1.17519 0.798343 0)
(1.29077 0.842639 0)
(1.39711 0.877132 0)
(3 2.69174e-09 0)
(3 1.64502e-08 0)
(3 5.36556e-08 0)
(3 1.41193e-07 0)
(3 3.37385e-07 0)
(3 7.68623e-07 0)
(2.99999 1.70852e-06 0)
(2.99999 3.74886e-06 0)
(2.99997 8.16852e-06 0)
(2.99994 1.77295e-05 0)
(2.99986 3.83943e-05 0)
(2.9997 8.30301e-05 0)
(2.99936 0.000179402 0)
(2.99861 0.000387431 0)
(2.99697 0.000836599 0)
(2.99342 0.0018077 0)
(2.98564 0.00391493 0)
(2.96842 0.00852699 0)
(2.92935 0.0188109 0)
(2.83578 0.0426395 0)
(2.58434 0.102806 0)
(1.85487 0.274547 0)
(0.996575 0.681656 0)
(0.845298 0.736074 0)
(0.868524 0.768848 0)
(0.965708 0.770272 0)
(1.1004 0.764604 0)
(1.21738 0.777853 0)
(1.32941 0.802778 0)
(1.42579 0.824221 0)
(3 2.21843e-09 0)
(3 1.35717e-08 0)
(3 4.43208e-08 0)
(3 1.16719e-07 0)
(3 2.79014e-07 0)
(3 6.35821e-07 0)
(3 1.41401e-06 0)
(2.99999 3.10579e-06 0)
(2.99998 6.77946e-06 0)
(2.99996 1.47551e-05 0)
(2.99991 3.20743e-05 0)
(2.99981 6.9698e-05 0)
(2.99959 0.00015147 0)
(2.99911 0.000329282 0)
(2.99808 0.000716164 0)
(2.99584 0.00155882 0)
(2.99098 0.00339854 0)
(2.98034 0.0074378 0)
(2.9567 0.0164229 0)
(2.90244 0.0369919 0)
(2.76602 0.0872084 0)
(2.3713 0.227052 0)
(1.47347 0.617143 0)
(1.06043 0.727823 0)
(1.00675 0.775172 0)
(1.03348 0.792849 0)
(1.13272 0.785694 0)
(1.25486 0.779215 0)
(1.36449 0.787615 0)
(1.45292 0.797973 0)
(3 1.51061e-09 0)
(3 9.277e-09 0)
(3 3.03956e-08 0)
(3 7.99931e-08 0)
(3 1.90333e-07 0)
(3 4.30311e-07 0)
(3 9.47254e-07 0)
(2.99999 2.05672e-06 0)
(2.99999 4.43584e-06 0)
(2.99997 9.54046e-06 0)
(2.99994 2.05074e-05 0)
(2.99986 4.41102e-05 0)
(2.9997 9.50102e-05 0)
(2.99936 0.000205018 0)
(2.99861 0.000443322 0)
(2.997 0.000960804 0)
(2.99348 0.00208762 0)
(2.9858 0.00455084 0)
(2.96883 0.00997615 0)
(2.93043 0.0221336 0)
(2.83868 0.0504909 0)
(2.59212 0.125678 0)
(1.93918 0.330466 0)
(1.22975 0.705339 0)
(1.10893 0.771292 0)
(1.10652 0.814888 0)
(1.16667 0.824129 0)
(1.27342 0.810793 0)
(1.38794 0.802656 0)
(1.47366 0.801154 0)
(3 1.18143e-09 0)
(3 7.2404e-09 0)
(3 2.36861e-08 0)
(3 6.24046e-08 0)
(3 1.49028e-07 0)
(3 3.38844e-07 0)
(3 7.51123e-07 0)
(3 1.64324e-06 0)
(2.99999 3.57071e-06 0)
(2.99998 7.73303e-06 0)
(2.99996 1.67214e-05 0)
(2.99991 3.61364e-05 0)
(2.9998 7.80928e-05 0)
(2.99958 0.000168817 0)
(2.99909 0.000365148 0)
(2.99804 0.000790481 0)
(2.99576 0.00171345 0)
(2.99085 0.00372213 0)
(2.98014 0.00811888 0)
(2.95638 0.0178612 0)
(2.90182 0.0400344 0)
(2.765 0.0939422 0)
(2.38746 0.241129 0)
(1.5873 0.629095 0)
(1.29402 0.751126 0)
(1.23609 0.82426 0)
(1.23402 0.861238 0)
(1.29802 0.859393 0)
(1.40384 0.839383 0)
(1.48914 0.826985 0)
(3 8.79505e-10 0)
(3 5.38632e-09 0)
(3 1.76143e-08 0)
(3 4.64442e-08 0)
(3 1.1112e-07 0)
(3 2.53329e-07 0)
(3 5.63361e-07 0)
(3 1.2367e-06 0)
(2.99999 2.69631e-06 0)
(2.99999 5.85652e-06 0)
(2.99997 1.26916e-05 0)
(2.99994 2.74592e-05 0)
(2.99988 5.93297e-05 0)
(2.99974 0.000128035 0)
(2.99944 0.000276005 0)
(2.99879 0.000594495 0)
(2.99739 0.00128005 0)
(2.99434 0.0027577 0)
(2.9877 0.00595461 0)
(2.97305 0.0129311 0)
(2.94 0.0284383 0)
(2.8613 0.06436 0)
(2.64909 0.157158 0)
(2.09817 0.403045 0)
(1.48452 0.777202 0)
(1.36165 0.871148 0)
(1.32854 0.905442 0)
(1.34305 0.909901 0)
(1.41841 0.892797 0)
(1.50591 0.867643 0)
(3 5.72264e-10 0)
(3 3.49922e-09 0)
(3 1.14216e-08 0)
(3 3.00746e-08 0)
(3 7.18994e-08 0)
(3 1.63871e-07 0)
(3 3.64463e-07 0)
(3 8.00423e-07 0)
(3 1.74644e-06 0)
(2.99999 3.79775e-06 0)
(2.99999 8.24379e-06 0)
(2.99997 1.7877e-05 0)
(2.99994 3.87433e-05 0)
(2.99987 8.39292e-05 0)
(2.99971 0.000181763 0)
(2.99937 0.000393592 0)
(2.99865 0.000852431 0)
(2.99708 0.00184742 0)
(2.99368 0.00401047 0)
(2.98628 0.0087378 0)
(2.96993 0.0191858 0)
(2.93276 0.0428473 0)
(2.84102 0.0999574 0)
(2.56937 0.259283 0)
(1.97983 0.63478 0)
(1.5967 0.86432 0)
(1.47579 0.919209 0)
(1.44998 0.941254 0)
(1.47682 0.938611 0)
(1.53781 0.916079 0)
(3 2.93935e-10 0)
(3 1.79628e-09 0)
(3 5.85862e-09 0)
(3 1.54175e-08 0)
(3 3.68322e-08 0)
(3 8.38552e-08 0)
(3 1.86205e-07 0)
(3 4.08075e-07 0)
(3 8.88077e-07 0)
(3 1.92545e-06 0)
(2.99999 4.16606e-06 0)
(2.99999 9.00356e-06 0)
(2.99997 1.94445e-05 0)
(2.99993 4.19729e-05 0)
(2.99986 9.05688e-05 0)
(2.99969 0.00019537 0)
(2.99933 0.000421357 0)
(2.99855 0.00090878 0)
(2.99688 0.00196116 0)
(2.99327 0.00423951 0)
(2.98542 0.00920329 0)
(2.9681 0.0201703 0)
(2.92867 0.0452017 0)