/*--------------------------------*- C++ -*----------------------------------*\
  =========                 |
  \\      /  F ield         | OpenFOAM: The Open Source CFD Toolbox
   \\    /   O peration     | Website:  https://openfoam.org
    \\  /    A nd           | Version:  6.0
     \\/     M anipulation  |
\*---------------------------------------------------------------------------*/
FoamFile
{
    version     2.0;
    format      ascii;
    class       volScalarField;
    location    "4";
    object      p;
}
// * * * * * * * * * * * * * * * * * * * * * * * * * * * * * * * * * * * * * //

dimensions      [1 -1 -2 0 0 0 0];

internalField   nonuniform List<scalar> 
24000
(
0.704505
0.583282
0.535256
0.501137
0.477797
0.465258
0.465444
0.467675
0.476383
0.501961
0.56962
0.74722
1.26448
2.83045
3.55119
3.62988
3.76997
4.07075
4.75263
6.1857
0.704506
0.583281
0.535257
0.501132
0.477798
0.465238
0.465422
0.467648
0.476342
0.501887
0.569475
0.746938
1.26396
2.82917
3.5528
3.6309
3.77108
4.07215
4.75476
6.18632
0.704507
0.583278
0.535259
0.501123
0.477799
0.465194
0.465375
0.467589
0.47625
0.501718
0.569133
0.746218
1.26233
2.82463
3.5549
3.63263
3.77297
4.07446
4.75802
6.18826
0.704509
0.583273
0.535262
0.501108
0.477801
0.465126
0.4653
0.467494
0.476103
0.501442
0.568558
0.744957
1.25925
2.81584
3.55736
3.63509
3.7756
4.0775
4.76188
6.19156
0.704512
0.583267
0.535265
0.501087
0.477804
0.465031
0.465196
0.467362
0.475893
0.501045
0.56772
0.743076
1.25446
2.80202
3.55997
3.63793
3.7786
4.08086
4.76559
6.19545
0.704517
0.583258
0.53527
0.501059
0.477808
0.464906
0.46506
0.467187
0.475616
0.500515
0.56659
0.740498
1.24772
2.78237
3.56282
3.64088
3.78164
4.08413
4.76842
6.19877
0.704522
0.583248
0.535277
0.501025
0.477814
0.464749
0.464889
0.466967
0.475265
0.499839
0.565139
0.737147
1.23881
2.75605
3.56565
3.64386
3.78458
4.08697
4.76959
6.20009
0.70453
0.583235
0.535285
0.500984
0.477822
0.464559
0.46468
0.466699
0.474834
0.499005
0.563337
0.732942
1.22743
2.72206
3.56848
3.64701
3.78741
4.08902
4.76828
6.19808
0.704538
0.58322
0.535295
0.500935
0.477833
0.464333
0.464432
0.466379
0.474317
0.498
0.561151
0.727797
1.2133
2.6792
3.57168
3.65053
3.79004
4.08976
4.76337
6.19124
0.704549
0.583203
0.535308
0.500879
0.477847
0.46407
0.464144
0.466005
0.473711
0.496813
0.558552
0.721626
1.19612
2.62605
3.5758
3.65474
3.79238
4.08849
4.75309
6.17701
0.704562
0.583184
0.535322
0.500816
0.477864
0.463771
0.463815
0.465576
0.473007
0.495428
0.555509
0.714363
1.17595
2.5611
3.5815
3.66
3.79424
4.08448
4.73658
6.15375
0.704579
0.583164
0.535339
0.500749
0.477882
0.463441
0.463446
0.465084
0.472194
0.493824
0.551979
0.705841
1.15214
2.4824
3.58948
3.66637
3.79541
4.07693
4.71281
6.11967
0.704605
0.583139
0.535358
0.50068
0.477892
0.463171
0.462912
0.464463
0.471254
0.492013
0.547957
0.695957
1.124
2.38834
3.60047
3.6735
3.7954
4.06531
4.68039
6.07222
0.70464
0.583107
0.535379
0.500606
0.477917
0.462906
0.462266
0.463727
0.470174
0.489963
0.543381
0.684491
1.0902
2.27815
3.61448
3.68055
3.79374
4.0489
4.63799
6.00739
0.704679
0.583071
0.535404
0.500524
0.477972
0.462621
0.461529
0.462893
0.468964
0.48769
0.5383
0.671621
1.05167
2.15197
3.62894
3.68508
3.78827
4.02634
4.58504
5.92078
0.704701
0.583052
0.535428
0.500443
0.478059
0.46229
0.460741
0.461995
0.467656
0.485231
0.532795
0.657617
1.00988
2.01434
3.63992
3.68507
3.77604
3.99374
4.51659
5.80884
0.704683
0.583074
0.535447
0.500372
0.47816
0.461918
0.459924
0.461058
0.466279
0.482619
0.52689
0.642261
0.957486
1.8704
3.63381
3.67833
3.75585
3.94978
4.42878
5.66144
0.704656
0.5831
0.535464
0.500308
0.478267
0.461537
0.459095
0.46011
0.464902
0.480061
0.521277
0.628371
0.916695
1.76719
3.57986
3.65653
3.72034
3.88912
4.31619
5.46253
0.704623
0.583126
0.535476
0.500253
0.478365
0.461164
0.458265
0.45916
0.46352
0.477514
0.515787
0.615203
0.880949
1.67068
3.46849
3.61395
3.66497
3.80428
4.16389
5.17859
0.704587
0.583154
0.535479
0.500217
0.478425
0.460846
0.457412
0.458182
0.462103
0.474921
0.510224
0.601915
0.845134
1.5703
3.33507
3.55665
3.59282
3.69253
3.95224
4.73996
1.04748
1.03834
1.01434
0.976917
0.950802
0.940995
0.943273
0.953774
0.98535
1.0671
1.26953
1.78069
3.1426
6.71142
7.66008
7.77953
8.03222
8.62097
10.0834
12.0662
1.04748
1.03834
1.01434
0.976908
0.950796
0.940957
0.943227
0.953704
0.985218
1.06682
1.26891
1.77924
3.13936
6.70544
7.65865
7.77844
8.03166
8.6206
10.0797
12.0609
1.04748
1.03834
1.01434
0.976889
0.950783
0.940879
0.943134
0.953561
0.984947
1.06624
1.26761
1.77612
3.13208
6.69144
7.65527
7.77567
8.02976
8.6191
10.0708
12.0512
1.04748
1.03834
1.01433
0.976858
0.950764
0.940758
0.94299
0.953339
0.984525
1.06535
1.26556
1.77115
3.12023
6.66794
7.65012
7.77145
8.02661
8.61624
10.0561
12.0385
1.04748
1.03833
1.01432
0.976817
0.950737
0.94059
0.942791
0.953032
0.983937
1.06409
1.26268
1.76411
3.10332
6.63367
7.64312
7.76559
8.02188
8.61136
10.0346
12.0218
1.04748
1.03833
1.01432
0.976762
0.950704
0.940372
0.942532
0.95263
0.983168
1.06244
1.25888
1.75481
3.08075
6.58754
7.63444
7.758
8.01526
8.60374
10.0058
11.9998
1.04748
1.03833
1.0143
0.976695
0.950664
0.940099
0.942208
0.952127
0.982201
1.06035
1.25408
1.743
3.05197
6.52805
7.62389
7.74866
8.00664
8.59276
9.96904
11.9706
1.04748
1.03832
1.01429
0.976614
0.950617
0.939769
0.941814
0.951515
0.98102
1.0578
1.24818
1.72848
3.01642
6.45342
7.61175
7.7378
7.99596
8.57769
9.92281
11.9323
1.04747
1.03832
1.01428
0.976519
0.950564
0.939378
0.941348
0.950787
0.97961
1.05474
1.24111
1.71103
2.97353
6.36157
7.59878
7.72591
7.98311
8.55749
9.86513
11.8826
1.04747
1.03831
1.01427
0.976411
0.950506
0.938926
0.940808
0.94994
0.977963
1.05116
1.23279
1.69052
2.92282
6.24994
7.58601
7.71369
7.96773
8.53092
9.79323
11.8192
1.04747
1.0383
1.01425
0.976292
0.950444
0.938414
0.940195
0.948972
0.97607
1.04703
1.22323
1.66692
2.86365
6.11553
7.57443
7.70201
7.94914
8.49671
9.70372
11.7393
1.04748
1.0383
1.01424
0.976165
0.95038
0.937847
0.939509
0.947877
0.973921
1.04236
1.21245
1.64042
2.79593
5.95513
7.56463
7.69007
7.92684
8.4533
9.59584
11.6389
1.04749
1.0383
1.01423
0.976034
0.950317
0.937239
0.938739
0.94662
0.97148
1.03714
1.20053
1.61116
2.71969
5.76449
7.55746
7.67709
7.89975
8.39915
9.47024
11.5107
1.0475
1.03831
1.01423
0.975908
0.950319
0.936494
0.937814
0.945178
0.968789
1.0315
1.18773
1.57976
2.63612
5.54086
7.55208
7.66115
7.8659
8.33236
9.32834
11.3428
1.04752
1.03832
1.01424
0.975793
0.95042
0.935561
0.936701
0.943547
0.96588
1.02551
1.17418
1.5465
2.54617
5.28693
7.54614
7.63951
7.8223
8.25021
9.17007
11.1237
1.04754
1.03833
1.01426
0.975702
0.950574
0.934519
0.935469
0.941773
0.962772
1.01918
1.15991
1.51153
2.45069
5.00995
7.53331
7.60867
7.76429
8.14783
8.98335
10.8492
1.04754
1.03834
1.01429
0.975644
0.950751
0.93342
0.93417
0.939912
0.959529
1.01261
1.14523
1.47585
2.35574
4.71988
7.50138
7.56186
7.68832
8.02146
8.76165
10.506
1.04754
1.03835
1.01432
0.975597
0.950942
0.932299
0.932848
0.93802
0.95624
1.00598
1.13051
1.44047
2.26206
4.44387
7.42804
7.48978
7.58919
7.86644
8.49192
10.0618
1.04753
1.03835
1.01435
0.975558
0.951121
0.93119
0.931537
0.936125
0.952918
0.99927
1.11562
1.40468
2.16592
4.16446
7.29574
7.39064
7.4623
7.67605
8.16095
9.474
1.04752
1.03835
1.01437
0.975537
0.951248
0.930157
0.930263
0.934223
0.949555
0.992486
1.10059
1.36844
2.0685
3.88172
7.11898
7.27114
7.30852
7.44214
7.74137
8.6539
1.07453
1.13288
1.14474
1.14223
1.13567
1.13653
1.14341
1.16566
1.22316
1.36214
1.69843
2.5582
4.82152
9.57526
10.1557
10.2377
10.4803
11.1582
12.8996
14.3021
1.07453
1.13288
1.14473
1.14222
1.13565
1.1365
1.14336
1.16556
1.22296
1.36169
1.6974
2.55556
4.81477
9.56807
10.1516
10.2342
10.4784
11.158
12.8897
14.288
1.07452
1.13288
1.14472
1.1422
1.13561
1.13645
1.14327
1.16537
1.22256
1.36078
1.69525
2.54995
4.80032
9.55114
10.1426
10.2261
10.473
11.1556
12.865
14.2602
1.07452
1.13288
1.1447
1.14217
1.13556
1.13637
1.14312
1.16508
1.22193
1.35937
1.6919
2.54112
4.77746
9.52298
10.1294
10.2142
10.464
11.15
12.8241
14.2212
1.07452
1.13289
1.14467
1.14213
1.13548
1.13626
1.14293
1.16468
1.22105
1.3574
1.6872
2.52869
4.74526
9.48251
10.1118
10.1985
10.4513
11.1394
12.7681
14.1715
1.07451
1.13289
1.14463
1.14208
1.13538
1.13612
1.14267
1.16415
1.21991
1.35481
1.68103
2.51229
4.70272
9.42917
10.0895
10.1788
10.4346
11.1222
12.6978
14.1111
1.0745
1.1329
1.14458
1.14202
1.13526
1.13594
1.14235
1.16349
1.21847
1.35155
1.6732
2.49147
4.64869
9.36159
10.0632
10.1553
10.4135
11.0974
12.6133
14.0393
1.07449
1.13291
1.14453
1.14194
1.13512
1.13573
1.14196
1.16268
1.21671
1.34754
1.66357
2.46583
4.58224
9.27818
10.0337
10.1286
10.388
11.0639
12.5137
13.9547
1.07448
1.13292
1.14446
1.14185
1.13495
1.13549
1.1415
1.16173
1.21461
1.34273
1.65199
2.43497
4.50251
9.17717
10.0018
10.099
10.3579
11.021
12.3978
13.8553
1.07447
1.13293
1.14439
1.14175
1.13475
1.1352
1.14097
1.16061
1.21215
1.33708
1.63837
2.39867
4.4088
9.05642
9.9686
10.0671
10.3226
10.9677
12.263
13.7387
1.07446
1.13294
1.14431
1.14164
1.13454
1.13489
1.14037
1.15934
1.20932
1.33059
1.62273
2.35725
4.30056
8.91311
9.93476
10.033
10.2819
10.9054
12.1052
13.601
1.07445
1.13296
1.14423
1.14153
1.13431
1.13455
1.1397
1.1579
1.20612
1.32325
1.60513
2.31169
4.17892
8.74336
9.89986
9.99576
10.2341
10.83
11.9273
13.4376
1.07444
1.13297
1.14415
1.14142
1.13408
1.13418
1.13894
1.15628
1.20255
1.31517
1.5859
2.26221
4.04688
8.53905
9.8635
9.95454
10.1778
10.7384
11.7306
13.243
1.07444
1.13299
1.14411
1.14135
1.13396
1.13354
1.13797
1.15446
1.19871
1.30661
1.56577
2.21116
3.9147
8.28878
9.82308
9.90704
10.1108
10.6281
11.5164
13.007
1.07444
1.13299
1.1441
1.14134
1.13399
1.13253
1.13674
1.15243
1.19465
1.29766
1.54482
2.15849
3.78007
7.99925
9.77747
9.8508
10.0297
10.4954
11.2811
12.7223
1.07445
1.13299
1.14413
1.14136
1.13408
1.13138
1.13534
1.15022
1.19032
1.28822
1.52283
2.10346
3.63853
7.68085
9.7255
9.78279
9.93059
10.3371
11.017
12.3749
1.07445
1.13299
1.14416
1.1414
1.1342
1.13016
1.13387
1.14788
1.18578
1.27837
1.50002
2.04681
3.49365
7.3391
9.65969
9.69777
9.81098
10.1507
10.72
11.9473
1.07446
1.13299
1.1442
1.14145
1.13434
1.12891
1.13237
1.14549
1.18111
1.26827
1.47671
1.98926
3.34547
6.97754
9.56891
9.59069
9.6699
9.93583
10.3759
11.4124
1.07446
1.13298
1.14424
1.1415
1.13447
1.12769
1.13088
1.1431
1.17641
1.25805
1.45321
1.9316
3.19443
6.58816
9.4448
9.46145
9.50744
9.68795
9.9734
10.736
1.07446
1.13298
1.14427
1.14153
1.13458
1.12657
1.12947
1.14074
1.1717
1.24783
1.42982
1.87456
3.04288
6.17539
9.29087
9.32171
9.32301
9.40491
9.49479
9.84013
1.0419
1.10665
1.13823
1.15674
1.16809
1.17706
1.19485
1.233
1.31842
1.51573
1.99291
3.25932
6.81689
11.5303
11.6795
11.6596
11.8469
12.5362
13.9846
14.6959
1.0419
1.10665
1.13823
1.15674
1.16807
1.17704
1.19481
1.2329
1.31819
1.5152
1.99163
3.25586
6.80594
11.5243
11.6727
11.6539
11.8445
12.5379
13.9665
14.6757
1.0419
1.10666
1.13821
1.15673
1.16804
1.17701
1.19472
1.23269
1.31772
1.5141
1.98895
3.24849
6.78235
11.5091
11.6581
11.6411
11.8369
12.5368
13.923
14.6325
1.04189
1.10666
1.13819
1.15671
1.16798
1.17697
1.19459
1.23237
1.31698
1.51238
1.98474
3.23679
6.7449
11.4837
11.6366
11.6224
11.8241
12.5311
13.8542
14.5692
1.04189
1.10667
1.13817
1.15669
1.16791
1.1769
1.1944
1.23193
1.31596
1.50998
1.97882
3.22025
6.69195
11.4477
11.6087
11.5979
11.8059
12.5162
13.7654
14.4887
1.04188
1.10668
1.13813
1.15667
1.16782
1.17682
1.19417
1.23135
1.31462
1.50682
1.97099
3.19828
6.62175
11.4015
11.5743
11.5677
11.7816
12.489
13.6588
14.3929
1.04187
1.10669
1.13809
1.15664
1.1677
1.17673
1.19387
1.23063
1.31292
1.50281
1.96102
3.17024
6.53207
11.3444
11.5343
11.5323
11.7507
12.4493
13.5356
14.2822
1.04186
1.10671
1.13804
1.1566
1.16756
1.17662
1.19351
1.22974
1.31083
1.49787
1.94868
3.13552
6.42088
11.2759
11.4898
11.492
11.7131
12.3964
13.3959
14.1562
1.04185
1.10673
1.13798
1.15656
1.1674
1.17649
1.19309
1.22867
1.30832
1.4919
1.93377
3.09352
6.28667
11.1956
11.4416
11.447
11.6686
12.33
13.2391
14.014
1.04184
1.10675
1.13792
1.15651
1.16722
1.17635
1.1926
1.22743
1.30536
1.48487
1.91615
3.04385
6.12808
11.1032
11.3906
11.3978
11.6164
12.2503
13.0649
13.8531
1.04182
1.10677
1.13785
1.15647
1.16701
1.1762
1.19204
1.226
1.30195
1.47674
1.89577
2.98649
5.94484
10.9975
11.3365
11.3439
11.5559
12.1576
12.8719
13.6717
1.04181
1.1068
1.13777
1.15642
1.16681
1.17605
1.19142
1.22437
1.29807
1.46752
1.87277
2.92205
5.7391
10.8751
11.2787
11.2845
11.4858
12.0499
12.6628
13.4648
1.0418
1.10682
1.13771
1.15638
1.16662
1.17587
1.19072
1.22255
1.29376
1.45734
1.8475
2.85189
5.51874
10.7241
11.2147
11.2186
11.4048
11.9247
12.4365
13.2313
1.04179
1.10684
1.13767
1.15636
1.16651
1.17554
1.18984
1.22051
1.28908
1.44646
1.82088
2.77936
5.31529
10.5171
11.141
11.1444
11.3114
11.78
12.1956
12.9613
1.04179
1.10684
1.13766
1.15635
1.16652
1.17502
1.18876
1.21822
1.28405
1.43491
1.79288
2.70371
5.11584
10.2661
11.0578
11.0622
11.2037
11.6121
11.9338
12.6492
1.04179
1.10684
1.13767
1.15636
1.16659
1.17441
1.18755
1.21572
1.27863
1.42257
1.76304
2.6235
4.90301
9.98676
10.9729
10.9675
11.0785
11.4194
11.6492
12.2788
1.04179
1.10683
1.13769
1.15637
1.16669
1.17376
1.18626
1.21306
1.27287
1.40946
1.73145
2.53894
4.67866
9.68131
10.8809
10.8593
10.9368
11.2003
11.3357
11.8388
1.0418
1.10683
1.13772
1.1564
1.16679
1.17311
1.18494
1.21031
1.26687
1.39582
1.69865
2.45197
4.44678
9.34039
10.7761
10.7369
10.7786
10.9558
10.9848
11.3042
1.0418
1.10682
1.13774
1.15643
1.16689
1.1725
1.18364
1.20753
1.26076
1.38194
1.66555
2.36661
4.21992
8.94316
10.656
10.6037
10.6038
10.6822
10.587
10.6495
1.04181
1.10682
1.13775
1.15645
1.16695
1.17207
1.18242
1.20476
1.25463
1.36808
1.63289
2.28406
4.00666
8.48425
10.5243
10.4686
10.4083
10.3852
10.1337
9.80116
1.01482
1.05602
1.09107
1.11748
1.13846
1.1524
1.17695
1.22788
1.33871
1.59166
2.20936
3.91518
9.08955
12.7112
12.5798
12.4042
12.5515
13.1993
13.9913
14.3452
1.01482
1.05602
1.09106
1.11748
1.13845
1.15239
1.17692
1.22778
1.33848
1.59111
2.20804
3.91149
9.07701
12.7053
12.5692
12.3971
12.5492
13.2
13.9667
14.3235
1.01482
1.05602
1.09105
1.11748
1.13842
1.15237
1.17684
1.22759
1.338
1.58999
2.20526
3.90353
9.04928
12.6899
12.5468
12.3806
12.5409
13.1941
13.9097
14.2741
1.01482
1.05603
1.09104
1.11748
1.13838
1.15235
1.17673
1.22728
1.33727
1.58823
2.20084
3.89075
9.00435
12.6645
12.5147
12.3557
12.5258
13.1773
13.8262
14.1997
1.01481
1.05603
1.09102
1.11747
1.13833
1.15232
1.17657
1.22685
1.33623
1.58575
2.19458
3.87249
8.93996
12.6295
12.4743
12.3234
12.5037
13.146
13.7232
14.1053
1.01481
1.05604
1.091
1.11747
1.13826
1.15228
1.17636
1.22629
1.33486
1.58246
2.18623
3.84804
8.85407
12.5848
12.4263
12.2839
12.4737
13.0992
13.6036
13.9929
1.01481
1.05605
1.09097
1.11746
1.13817
1.15223
1.1761
1.22557
1.33312
1.57825
2.17553
3.81661
8.74402
12.5312
12.3719
12.2377
12.4352
13.0364
13.4679
13.8637
1.0148
1.05607
1.09094
1.11745
1.13806
1.15217
1.17578
1.22469
1.33097
1.57304
2.16222
3.77743
8.60708
12.4695
12.312
12.1849
12.3877
12.9584
13.3176
13.7175
1.01479
1.05608
1.0909
1.11745
1.13794
1.15212
1.17541
1.22363
1.32837
1.56673
2.14605
3.72978
8.44105
12.4006
12.2475
12.1257
12.3307
12.8661
13.1512
13.5547
1.01478
1.0561
1.09085
1.11745
1.1378
1.15206
1.17497
1.22239
1.32529
1.55924
2.12682
3.67309
8.24409
12.3252
12.1789
12.0601
12.2633
12.7605
12.9706
13.3726
1.01478
1.05612
1.0908
1.11744
1.13765
1.152
1.17448
1.22095
1.32171
1.55051
2.10442
3.60706
8.01546
12.2432
12.1059
11.9876
12.1851
12.6419
12.7742
13.1717
1.01477
1.05614
1.09075
1.11744
1.1375
1.15195
1.17392
1.2193
1.31762
1.54054
2.07886
3.53188
7.75639
12.1523
12.0275
11.9078
12.095
12.5094
12.565
12.9466
1.01476
1.05616
1.0907
1.11745
1.13736
1.15189
1.17328
1.21745
1.31302
1.52939
2.05037
3.44849
7.47213
12.045
11.9415
11.8205
11.9929
12.3615
12.3403
12.6965
1.01476
1.05617
1.09067
1.11744
1.13728
1.15178
1.17254
1.21536
1.30794
1.51717
2.01938
3.35891
7.17682
11.9078
11.8457
11.7265
11.878
12.196
12.1027
12.4119
1.01475
1.05617
1.09066
1.11744
1.13725
1.1516
1.17167
1.21304
1.30236
1.50385
1.98578
3.26262
6.86603
11.7439
11.7389
11.6309
11.7505
12.0101
11.8468
12.0927
1.01475
1.05617
1.09066
1.11744
1.13726
1.15139
1.1707
1.21048
1.29627
1.48934
1.94926
3.15827
6.53042
11.5605
11.6389
11.5229
11.609
11.8027
11.574
11.7252
1.01475
1.05617
1.09067
1.11744
1.13729
1.15116
1.16966
1.20773
1.28968
1.47365
1.9098
3.04606
6.1702
11.3632
11.5382
11.4061
11.4554
11.572
11.2787
11.3008
1.01476
1.05616
1.09067
1.11744
1.13731
1.15095
1.16858
1.20482
1.28269
1.45698
1.86801
2.92783
5.7936
11.1392
11.431
11.2845
11.2907
11.3199
10.953
10.7981
1.01476
1.05616
1.09068
1.11746
1.13731
1.15078
1.16751
1.20184
1.27545
1.43971
1.82502
2.80932
5.43948
10.8415
11.3153
11.1641
11.1142
11.0482
10.5862
10.1894
1.01476
1.05617
1.09067
1.11749
1.13728
1.15071
1.16649
1.19883
1.26807
1.42219
1.78198
2.69268
5.12833
10.4482
11.1962
11.0482
10.928
10.7611
10.1747
9.40632
1.00391
1.02022
1.04422
1.06739
1.09005
1.10614
1.13526
1.19557
1.3262
1.62522
2.36759
4.49411
11.2679
13.3524
13.0563
12.7259
12.8358
13.3484
13.5946
13.7256
1.00391
1.02022
1.04421
1.06739
1.09004
1.10614
1.13523
1.19548
1.32599
1.62473
2.3664
4.49069
11.2569
13.3438
13.0413
12.7178
12.8347
13.3447
13.5678
13.7076
1.00391
1.02022
1.04421
1.06739
1.09002
1.10612
1.13516
1.19531
1.32557
1.62371
2.36384
4.48319
11.231
13.3226
13.0099
12.6973
12.8264
13.3278
13.5042
13.6605
1.00391
1.02022
1.0442
1.06739
1.09
1.10611
1.13507
1.19503
1.3249
1.62209
2.35974
4.47094
11.1873
13.2893
12.9661
12.6658
12.8088
13.2938
13.4143
13.5862
1.00391
1.02023
1.04419
1.0674
1.08997
1.10609
1.13493
1.19465
1.32395
1.6198
2.35385
4.4532
11.1232
13.2452
12.9123
12.6253
12.782
13.2434
13.3074
13.4924
1.00392
1.02023
1.04418
1.0674
1.08992
1.10606
1.13475
1.19413
1.32268
1.61672
2.34594
4.4292
11.0364
13.1906
12.8499
12.5762
12.7455
13.1768
13.1874
13.3808
1.00392
1.02023
1.04416
1.0674
1.08987
1.10603
1.13452
1.19348
1.32107
1.61278
2.33573
4.39811
10.9244
13.127
12.7802
12.5192
12.6986
13.0946
13.0537
13.2531
1.00392
1.02024
1.04414
1.06741
1.0898
1.106
1.13424
1.19267
1.31905
1.60786
2.32295
4.35913
10.7848
13.0556
12.7042
12.4543
12.6406
12.9979
12.9086
13.1082
1.00392
1.02024
1.04412
1.06742
1.08972
1.10597
1.1339
1.19169
1.31661
1.60187
2.30735
4.31148
10.6153
12.978
12.6231
12.3818
12.5713
12.889
12.7495
12.9481
1.00392
1.02025
1.04409
1.06743
1.08963
1.10593
1.13351
1.19052
1.3137
1.59472
2.28869
4.2545
10.4138
12.8952
12.5374
12.3016
12.4897
12.7687
12.5797
12.7697
1.00392
1.02025
1.04406
1.06744
1.08953
1.1059
1.13306
1.18916
1.31028
1.58632
2.26676
4.18766
10.1789
12.8079
12.4477
12.2136
12.3959
12.638
12.3963
12.5748
1.00392
1.02026
1.04404
1.06746
1.08943
1.10587
1.13254
1.18759
1.30634
1.57662
2.24144
4.11067
9.90957
12.7161
12.3533
12.1176
12.2895
12.4958
12.2027
12.3582
1.00392
1.02026
1.04401
1.06747
1.08934
1.10584
1.13194
1.1858
1.30185
1.5656
2.2127
4.02358
9.60645
12.618
12.2534
12.0145
12.1713
12.3407
11.9952
12.12
1.00392
1.02026
1.04399
1.06748
1.08926
1.10579
1.13127
1.18378
1.2968
1.55322
2.18053
3.9266
9.27092
12.5121
12.1467
11.9056
12.0412
12.1699
11.7767
11.8531
1.00392
1.02026
1.04398
1.06747
1.0892
1.10574
1.13051
1.18152
1.29116
1.53942
2.14472
3.81924
8.90121
12.3988
12.0357
11.7935
11.9005
11.9833
11.5414
11.556
1.00392
1.02026
1.04397
1.06747
1.08915
1.10568
1.12966
1.179
1.28488
1.52409
2.10501
3.70064
8.49308
12.2812
11.9288
11.6749
11.7491
11.7789
11.291
11.2177
1.00392
1.02026
1.04397
1.06746
1.08911
1.10562
1.12874
1.17624
1.27798
1.5072
2.06129
3.57064
8.04594
12.1615
11.8241
11.553
11.5888
11.5541
11.0208
10.8285
1.00392
1.02026
1.04396
1.06746
1.08905
1.10559
1.12777
1.17326
1.27048
1.48884
2.01387
3.43024
7.56525
12.0298
11.7178
11.4331
11.4213
11.3118
10.7217
10.3674
1.00392
1.02026
1.04394
1.06747
1.08895
1.10561
1.12678
1.17011
1.26249
1.46924
1.96349
3.28299
7.07204
11.8604
11.6088
11.3217
11.2488
11.0524
10.3847
9.80264
1.00392
1.02026
1.04392
1.0675
1.08883
1.10568
1.12578
1.16683
1.25411
1.44871
1.91103
3.13103
6.58179
11.6304
11.5011
11.2222
11.0728
10.7796
10.0063
9.06595
1.00094
1.00522
1.01463
1.02943
1.04767
1.06373
1.09522
1.16082
1.30424
1.63634
2.47623
4.9587
13.0261
13.732
13.2429
12.7827
12.8587
13.1732
13.097
13.1575
1.00094
1.00522
1.01463
1.02943
1.04766
1.06372
1.09519
1.16074
1.30406
1.63593
2.47522
4.95572
13.0168
13.7185
13.2238
12.7731
12.8577
13.1666
13.0747
13.1448
1.00094
1.00522
1.01463
1.02943
1.04765
1.06371
1.09513
1.16059
1.3037
1.63507
2.47305
4.94912
12.9933
13.6882
13.1833
12.7478
12.8468
13.1426
13.0177
13.1064
1.00094
1.00522
1.01463
1.02943
1.04764
1.06369
1.09504
1.16036
1.30313
1.63368
2.4695
4.93815
12.9521
13.6426
13.1277
12.7089
12.8231
13.0983
12.9364
13.0418
1.00094
1.00522
1.01462
1.02943
1.04762
1.06366
1.09492
1.16002
1.30231
1.6317
2.46437
4.92207
12.8912
13.5836
13.0607
12.6599
12.7883
13.0381
12.8415
12.9608
1.00094
1.00522
1.01462
1.02943
1.0476
1.06362
1.09475
1.15957
1.30121
1.62903
2.45741
4.9001
12.8084
13.5119
12.9842
12.6014
12.7425
12.9627
12.7368
12.8641
1.00094
1.00521
1.01461
1.02943
1.04756
1.06358
1.09454
1.15899
1.29981
1.62558
2.44837
4.87146
12.702
13.4289
12.8994
12.5342
12.6852
12.8739
12.6204
12.7535
1.00094
1.00521
1.0146
1.02943
1.04753
1.06353
1.09427
1.15827
1.29804
1.62126
2.437
4.83541
12.5702
13.3355
12.8077
12.4586
12.6156
12.7727
12.4947
12.6271
1.00094
1.00521
1.01459
1.02943
1.04748
1.06347
1.09395
1.15739
1.29589
1.61597
2.42305
4.79121
12.4114
13.2328
12.7106
12.3752
12.5341
12.661
12.3569
12.4875
1.00094
1.00521
1.01458
1.02944
1.04743
1.0634
1.09357
1.15634
1.2933
1.60962
2.40625
4.73814
12.2237
13.1224
12.6092
12.284
12.4403
12.5396
12.2101
12.3311
1.00094
1.0052
1.01457
1.02944
1.04737
1.06332
1.09313
1.1551
1.29025
1.60209
2.38636
4.6755
12.0054
13.005
12.5051
12.1851
12.3347
12.409
12.0507
12.1603
1.00094
1.0052
1.01456
1.02944
1.0473
1.06322
1.0926
1.15366
1.28668
1.59331
2.36313
4.60262
11.7545
12.8829
12.3985
12.0788
12.2176
12.2683
11.8814
11.9698
1.00094
1.0052
1.01455
1.02944
1.04723
1.06312
1.092
1.15199
1.28256
1.58317
2.33632
4.51885
11.4689
12.7588
12.2897
11.9661
12.0899
12.1159
11.6986
11.7607
1.00094
1.00519
1.01453
1.02943
1.04716
1.063
1.09132
1.15007
1.27785
1.57156
2.30563
4.42332
11.1444
12.6414
12.1735
11.8486
11.9525
11.949
11.5055
11.5265
1.00094
1.00519
1.01452
1.02941
1.04709
1.06287
1.09054
1.1479
1.27248
1.55836
2.27077
4.31537
10.7795
12.5266
12.0571
11.7282
11.8062
11.7693
11.2941
11.2647
1.00094
1.00518
1.01451
1.02939
1.04701
1.06272
1.08966
1.14545
1.26642
1.54345
2.23143
4.19421
10.3712
12.4147
11.9452
11.6062
11.6525
11.5757
11.0637
10.9637
1.00094
1.00518
1.01449
1.02937
1.04692
1.06256
1.08869
1.14271
1.25963
1.52671
2.18731
4.05909
9.91563
12.3079
11.8396
11.4857
11.4927
11.365
10.8084
10.6116
1.00093
1.00517
1.01448
1.02934
1.04681
1.06241
1.08763
1.13968
1.25209
1.50807
2.13826
3.90962
9.41003
12.2055
11.7393
11.3711
11.329
11.1364
10.5228
10.1841
1.00093
1.00517
1.01446
1.02933
1.04666
1.06236
1.08654
1.13637
1.24375
1.4875
2.0843
3.74642
8.85612
12.1039
11.6429
11.2655
11.1626
10.8908
10.2
9.64589
1.00093
1.00516
1.01443
1.02931
1.04649
1.06234
1.08539
1.13281
1.23471
1.46519
2.02585
3.56988
8.24861
11.9877
11.5526
11.1707
10.9924
10.6289
9.83512
8.92458
1.00019
1.00107
1.00346
1.0091
1.02062
1.03599
1.06748
1.1347
1.28447
1.63665
2.5429
5.29216
14.2656
14.0421
13.2322
12.6923
12.7352
12.8439
12.6945
12.75
1.00019
1.00107
1.00346
1.0091
1.02061
1.03598
1.06745
1.13464
1.28433
1.63632
2.54207
5.28958
14.2559
14.025
13.21
12.6803
12.732
12.839
12.6787
12.7444
1.00019
1.00107
1.00346
1.00909
1.02061
1.03595
1.0674
1.13451
1.28403
1.6356
2.54027
5.28378
14.2315
13.9881
13.1617
12.649
12.7147
12.8153
12.635
12.7204
1.00019
1.00107
1.00345
1.00909
1.0206
1.03592
1.06731
1.13431
1.28355
1.63445
2.5373
5.27405
14.1892
13.9337
13.0956
12.6021
12.6811
12.7699
12.5705
12.675
1.00019
1.00107
1.00345
1.00908
1.02058
1.03588
1.0672
1.13402
1.28286
1.63279
2.53298
5.25966
14.1277
13.8632
13.017
12.5448
12.6353
12.7099
12.4954
12.6161
1.00019
1.00107
1.00345
1.00908
1.02056
1.03582
1.06704
1.13363
1.28194
1.63055
2.52708
5.23991
14.0453
13.7772
12.928
12.4781
12.5779
12.637
12.4127
12.5441
1.00019
1.00106
1.00344
1.00907
1.02054
1.03574
1.06683
1.13313
1.28074
1.62763
2.51936
5.2141
13.9412
13.6764
12.8304
12.4025
12.5085
12.5518
12.3202
12.4602
1.00019
1.00106
1.00344
1.00905
1.02051
1.03564
1.06657
1.1325
1.27924
1.62396
2.5096
5.18155
13.8142
13.5612
12.7258
12.3186
12.4277
12.4562
12.2191
12.3624
1.00019
1.00106
1.00343
1.00904
1.02047
1.03552
1.06626
1.13173
1.27739
1.61944
2.49756
5.14162
13.6637
13.4313
12.6163
12.2269
12.3357
12.3504
12.1076
12.2524
1.00019
1.00105
1.00342
1.00902
1.02043
1.03538
1.06588
1.1308
1.27516
1.61397
2.48299
5.0936
13.4882
13.2883
12.5034
12.1279
12.2336
12.2357
11.9869
12.1272
1.00019
1.00105
1.00341
1.009
1.02038
1.03521
1.06543
1.12969
1.2725
1.60745
2.4656
5.03673
13.2866
13.1324
12.3891
12.0221
12.121
12.1121
11.8542
11.9877
1.00018
1.00105
1.0034
1.00897
1.02032
1.035
1.06489
1.12839
1.26937
1.59976
2.4451
4.97012
13.0569
12.9669
12.2752
11.9102
11.9995
11.9795
11.7097
11.8297
1.00018
1.00104
1.00339
1.00894
1.02025
1.03477
1.06427
1.12686
1.26571
1.59077
2.42113
4.8928
12.7971
12.7953
12.1616
11.793
11.8695
11.8361
11.5505
11.6528
1.00018
1.00104
1.00337
1.0089
1.02017
1.0345
1.06355
1.12509
1.26145
1.58032
2.39327
4.8035
12.5014
12.6398
12.0354
11.6729
11.7327
11.6815
11.3755
11.4519
1.00018
1.00103
1.00335
1.00886
1.02007
1.03418
1.06272
1.12304
1.25654
1.56826
2.36116
4.70137
12.1697
12.4874
11.9105
11.5523
11.5897
11.5149
11.1789
11.2225
1.00018
1.00102
1.00333
1.00881
1.01996
1.03382
1.06176
1.1207
1.25091
1.55442
2.32435
4.58541
11.7989
12.3356
11.7946
11.4347
11.4422
11.3347
10.9569
10.9531
1.00018
1.00101
1.00331
1.00875
1.01983
1.03341
1.06068
1.11804
1.24449
1.53862
2.28236
4.45415
11.3835
12.1869
11.6928
11.3225
11.291
11.136
10.7053
10.6288
1.00018
1.001
1.00328
1.00869
1.01968
1.03296
1.05948
1.11503
1.23719
1.52063
2.23459
4.30577
10.9137
12.0527
11.6058
11.2166
11.1362
10.9191
10.4204
10.2227
1.00017
1.00099
1.00325
1.00861
1.01951
1.03265
1.05819
1.11162
1.22888
1.5002
2.18044
4.13833
10.375
11.9557
11.5244
11.1173
10.9767
10.6846
10.0988
9.69228
1.00017
1.00098
1.00321
1.00853
1.0193
1.03235
1.05679
1.10783
1.2196
1.47734
2.1197
3.95005
9.73952
11.8822
11.4565
11.025
10.8095
10.4291
9.73124
8.95785
1.00005
1.00031
1.00107
1.00335
1.00928
1.02273
1.05252
1.11898
1.27075
1.63313
2.57784
5.50038
15.0243
14.3005
13.1422
12.5502
12.5494
12.5352
12.4277
12.5109
1.00005
1.00031
1.00107
1.00334
1.00927
1.02272
1.05249
1.11892
1.27062
1.63284
2.57714
5.49803
15.0134
14.2816
13.1175
12.535
12.5434
12.531
12.4198
12.5143
1.00005
1.00031
1.00107
1.00334
1.00926
1.0227
1.05244
1.11881
1.27036
1.63224
2.57562
5.49275
14.9868
14.2414
13.0633
12.4968
12.5181
12.5079
12.392
12.507
1.00005
1.00031
1.00107
1.00333
1.00925
1.02267
1.05237
1.11863
1.26995
1.63126
2.57311
5.48384
14.9417
14.1825
12.9889
12.442
12.474
12.4644
12.3464
12.4861
1.00005
1.00031
1.00107
1.00333
1.00923
1.02262
1.05225
1.11838
1.26936
1.62984
2.56943
5.47061
14.8771
14.1064
12.9007
12.3773
12.4182
12.408
12.2916
12.4524
1.00005
1.00031
1.00106
1.00331
1.0092
1.02255
1.0521
1.11803
1.26856
1.62791
2.56437
5.45243
14.792
14.0137
12.8009
12.3039
12.3521
12.341
12.2293
12.4066
1.00005
1.0003
1.00105
1.0033
1.00917
1.02247
1.05191
1.11758
1.26752
1.6254
2.55771
5.42869
14.6858
13.9045
12.6917
12.2219
12.2751
12.2631
12.1576
12.3493
1.00005
1.0003
1.00105
1.00328
1.00912
1.02236
1.05166
1.11702
1.26621
1.62222
2.54925
5.39874
14.558
13.7794
12.5749
12.1325
12.1887
12.1762
12.0764
12.2789
1.00005
1.0003
1.00104
1.00326
1.00907
1.02223
1.05136
1.11632
1.26458
1.61829
2.53877
5.36203
14.4084
13.6378
12.4523
12.0359
12.0929
12.0798
11.9848
12.1956
1.00005
1.00029
1.00103
1.00323
1.009
1.02208
1.05099
1.11548
1.26262
1.61352
2.52601
5.31787
14.2362
13.4803
12.326
11.9333
11.9892
11.9752
11.8827
12.0971
1.00005
1.00029
1.00101
1.0032
1.00893
1.02189
1.05055
1.11446
1.26026
1.60779
2.51071
5.26556
14.0408
13.3073
12.1973
11.8249
11.8772
11.8615
11.7691
11.9834
1.00005
1.00028
1.001
1.00316
1.00883
1.02166
1.05003
1.11326
1.25745
1.60098
2.49254
5.20419
13.8213
13.1211
12.0682
11.712
11.7587
11.7393
11.6418
11.8509
1.00005
1.00028
1.00098
1.00311
1.00872
1.0214
1.04942
1.11184
1.25414
1.59294
2.4711
5.1328
13.5766
12.9247
11.9379
11.5955
11.6337
11.6074
11.4987
11.6988
1.00005
1.00027
1.00095
1.00305
1.00859
1.02109
1.04869
1.11018
1.25026
1.58351
2.44596
5.05016
13.3044
12.7271
11.8041
11.4785
11.5042
11.4656
11.3346
11.5212
1.00004
1.00026
1.00093
1.00299
1.00844
1.02072
1.04785
1.10824
1.24573
1.57252
2.41669
4.95525
13.0037
12.5231
11.675
11.3638
11.3707
11.3118
11.1455
11.3138
1.00004
1.00025
1.0009
1.00291
1.00826
1.0203
1.04687
1.10598
1.24048
1.55975
2.38277
4.84667
12.6712
12.3104
11.5616
11.2561
11.235
11.1409
10.9256
11.0639
1.00004
1.00023
1.00086
1.00283
1.00806
1.01982
1.04574
1.10338
1.23439
1.54497
2.34352
4.72246
12.3016
12.0884
11.4753
11.1551
11.0953
10.9512
10.6727
10.7577
1.00004
1.00022
1.00082
1.00273
1.00782
1.01926
1.04445
1.10039
1.22736
1.52784
2.29805
4.57968
11.8835
11.8777
11.4155
11.059
10.9488
10.7424
10.3831
10.3648
1.00003
1.0002
1.00077
1.00261
1.00756
1.01866
1.04301
1.09696
1.21925
1.50802
2.24538
4.41456
11.3905
11.7405
11.3555
10.9673
10.7939
10.5162
10.0574
9.83451
1.00003
1.00018
1.00072
1.00249
1.00727
1.01798
1.04139
1.09309
1.21001
1.48532
2.18464
4.22313
10.7814
11.6592
11.3206
10.8792
10.6298
10.2659
9.67996
9.07718
1.00006
1.0003
1.00094
1.00266
1.00724
1.01892
1.0469
1.11201
1.26382
1.63017
2.59155
5.59911
15.3804
14.4418
13.0787
12.4541
12.4164
12.357
12.2961
12.4098
1.00006
1.0003
1.00094
1.00266
1.00724
1.01891
1.04687
1.11196
1.26371
1.62991
2.59093
5.5969
15.3687
14.4225
13.0525
12.4355
12.4081
12.353
12.2937
12.4196
1.00006
1.0003
1.00094
1.00265
1.00723
1.01889
1.04683
1.11186
1.26347
1.62936
2.58955
5.5919
15.3404
14.3814
12.9953
12.3913
12.377
12.331
12.2759
12.4233
1.00006
1.0003
1.00093
1.00265
1.00721
1.01885
1.04675
1.11169
1.26309