/*--------------------------------*- C++ -*----------------------------------*\
  =========                 |
  \\      /  F ield         | OpenFOAM: The Open Source CFD Toolbox
   \\    /   O peration     | Website:  https://openfoam.org
    \\  /    A nd           | Version:  6.0
     \\/     M anipulation  |
\*---------------------------------------------------------------------------*/
FoamFile
{
    version     2.0;
    format      ascii;
    class       volScalarField;
    location    "4";
    object      p;
}
// * * * * * * * * * * * * * * * * * * * * * * * * * * * * * * * * * * * * * //

dimensions      [1 -1 -2 0 0 0 0];

internalField   nonuniform List<scalar> 
1200
(
1.00006
1.00028
1.00078
1.00187
1.00427
1.0096
1.02149
1.04806
1.108
1.24568
1.57439
2.42401
4.95968
12.3943
12.3498
12.0606
11.7854
11.8458
12.0865
12.379
1.00006
1.00028
1.00078
1.00186
1.00426
1.00959
1.02147
1.04802
1.1079
1.24545
1.57385
2.4227
4.95572
12.3827
12.3352
12.0411
11.7771
11.8445
12.0932
12.3715
1.00006
1.00028
1.00078
1.00186
1.00426
1.00957
1.02142
1.04792
1.10769
1.24497
1.57273
2.41988
4.94703
12.355
12.3023
11.9999
11.7571
11.8347
12.0973
12.349
1.00005
1.00028
1.00077
1.00185
1.00424
1.00954
1.02135
1.04777
1.10736
1.24421
1.57094
2.4153
4.93274
12.3087
12.2515
11.9441
11.7289
11.8157
12.0945
12.3125
1.00005
1.00028
1.00077
1.00185
1.00422
1.0095
1.02126
1.04756
1.10688
1.24313
1.56837
2.40867
4.91196
12.2424
12.1836
11.8785
11.6948
11.7896
12.0819
12.2679
1.00005
1.00028
1.00077
1.00183
1.0042
1.00944
1.02113
1.04727
1.10624
1.24167
1.56488
2.39963
4.88364
12.1544
12.0985
11.8068
11.6554
11.7559
12.0551
12.2168
1.00005
1.00028
1.00076
1.00182
1.00416
1.00937
1.02096
1.04689
1.1054
1.23975
1.56032
2.38775
4.84647
12.0429
11.9971
11.733
11.6104
11.7141
12.0144
12.158
1.00005
1.00027
1.00075
1.0018
1.00412
1.00927
1.02075
1.04642
1.10433
1.2373
1.55446
2.37248
4.7988
11.905
11.8827
11.6611
11.5591
11.6636
11.9606
12.0904
1.00005
1.00027
1.00074
1.00178
1.00406
1.00915
1.02048
1.04582
1.10298
1.23422
1.54709
2.35316
4.73845
11.734
11.7692
11.5888
11.5014
11.6046
11.8933
12.0122
1.00005
1.00027
1.00073
1.00175
1.004
1.009
1.02015
1.04508
1.10132
1.23041
1.53793
2.32911
4.66318
11.5227
11.6695
11.5127
11.4369
11.5364
11.8115
11.9219
1.00005
1.00026
1.00071
1.00171
1.00392
1.00882
1.01974
1.04418
1.0993
1.22576
1.52676
2.29967
4.57137
11.2682
11.58
11.4408
11.3659
11.4588
11.7148
11.8176
1.00005
1.00025
1.0007
1.00167
1.00382
1.00861
1.01926
1.04311
1.09687
1.22017
1.51329
2.26419
4.46113
10.9653
11.5024
11.378
11.2873
11.3708
11.6017
11.6962
1.00005
1.00025
1.00068
1.00162
1.00371
1.00835
1.01869
1.04183
1.094
1.21353
1.49731
2.22205
4.33071
10.6048
11.444
11.3273
11.2
11.2712
11.471
11.5545
1.00005
1.00024
1.00065
1.00156
1.00358
1.00806
1.01803
1.04035
1.09064
1.20578
1.47861
2.17272
4.17877
10.1769
11.4122
11.2894
11.1023
11.1584
11.3199
11.3868
1.00004
1.00023
1.00063
1.0015
1.00343
1.00772
1.01728
1.03865
1.08679
1.19687
1.4571
2.11596
4.00443
9.67246
11.4135
11.2648
10.9935
11.0304
11.1452
11.1866
1.00004
1.00022
1.0006
1.00143
1.00326
1.00734
1.01643
1.03675
1.08246
1.18684
1.43283
2.05193
3.809
9.08506
11.436
11.2508
10.8746
10.8836
10.942
10.9426
1.00004
1.00021
1.00056
1.00135
1.00308
1.00694
1.01551
1.03466
1.07771
1.17583
1.4062
1.98177
3.5955
8.41945
11.4985
11.2484
10.7476
10.7089
10.7065
10.6392
1.00004
1.00019
1.00053
1.00126
1.00289
1.0065
1.01454
1.03246
1.07268
1.16414
1.37792
1.90742
3.37126
7.69796
11.5984
11.2456
10.6156
10.5139
10.4312
10.239
1.00004
1.00018
1.00049
1.00118
1.0027
1.00606
1.01354
1.03021
1.06756
1.15226
1.3493
1.83289
3.14794
6.9646
11.6642
11.2282
10.4824
10.2958
10.1021
9.70865
1.00003
1.00017
1.00046
1.0011
1.00251
1.00563
1.01257
1.02802
1.06258
1.14075
1.32173
1.76177
2.94138
6.34665
11.6273
11.171
10.3605
10.0472
9.69427
8.97826
1.00003
1.00014
1.00038
1.0009
1.00205
1.0046
1.01024
1.0228
1.0508
1.11381
1.2582
1.6022
2.48673
5.01487
11.0734
10.8457
10.1938
9.44263
8.51663
6.4362
1.00002
1.00011
1.00029
1.0007
1.00159
1.00358
1.00799
1.01781
1.0397
1.08889
1.20107
1.46525
2.12971
4.00044
9.23241
9.80592
9.59497
9.0038
7.87848
5.86322
1.00002
1.00008
1.00022
1.00052
1.00119
1.00266
1.00595
1.01324
1.0295
1.06592
1.14842
1.33991
1.80736
3.06861
6.6268
9.27626
9.08067
8.51961
7.39485
5.90659
1.00001
1.00005
1.00014
1.00033
1.00076
1.0017
1.00379
1.00841
1.01865
1.04144
1.09249
1.2085
1.48042
2.15745
3.94428
8.15256
8.13801
7.90321
7.2791
6.00881
1.00001
1.00003
1.00009
1.00022
1.0005
1.00112
1.00249
1.00553
1.01227
1.02728
1.0608
1.13646
1.311
1.73235
2.83727
5.81314
7.49824
7.38577
7.0127
6.15796
1
1.00002
1.00005
1.00012
1.00028
1.00063
1.00139
1.00308
1.00682
1.0151
1.03345
1.07439
1.16671
1.37996
1.89528
3.18719
6.17656
6.75536
6.61331
6.1442
1
1.00001
1.00003
1.00006
1.00014
1.00032
1.00071
1.00157
1.00345
1.0076
1.01674
1.03691
1.08168
1.18221
1.41328
1.96613
3.31165
6.08057
6.08007
5.93496
1
1.00001
1.00002
1.00004
1.00008
1.00019
1.00042
1.00092
1.00204
1.00451
1.00997
1.02207
1.04897
1.10928
1.24683
1.57186
2.38663
4.45691
5.47169
5.41863
1
1
1.00001
1.00002
1.00004
1.00009
1.0002
1.00045
1.00099
1.00217
1.00478
1.01054
1.02322
1.05131
1.11391
1.25565
1.58543
2.37126
4.17458
4.83352
1
1
1
1.00001
1.00002
1.00004
1.00009
1.00019
1.00042
1.00092
1.00202
1.00442
1.00968
1.02121
1.04657
1.10264
1.22812
1.5138
2.17442
3.6457
1
1
1
1
1.00001
1.00001
1.00003
1.00006
1.00014
1.0003
1.00065
1.0014
1.00302
1.0065
1.01396
1.03
1.06445
1.13856
1.29661
1.62782
1
1
1
1
1
1.00001
1.00001
1.00003
1.00007
1.00015
1.00034
1.00074
1.00161
1.00354
1.00775
1.01702
1.03746
1.08278
1.18471
1.41764
1
1
1
1
1
1
1.00001
1.00001
1.00003
1.00007
1.00015
1.00033
1.00072
1.00156
1.00341
1.00744
1.01624
1.03553
1.07799
1.17206
1
1
1
1
1
1
1
1.00001
1.00002
1.00005
1.00011
1.00024
1.00054
1.00119
1.00264
1.00583
1.0129
1.02859
1.06355
1.14234
1
1
1
1
1
1
1
1.00001
1.00002
1.00004
1.00009
1.00019
1.00042
1.00094
1.0021
1.00468
1.01041
1.02318
1.05168
1.11589
1
1
1
1
1
1
1
1.00001
1.00001
1.00002
1.00005
1.00012
1.00027
1.00059
1.00131
1.0029
1.00643
1.01426
1.03159
1.07014
1
1
1
1
1
1
1
1
1.00001
1.00002
1.00004
1.0001
1.00021
1.00047
1.00104
1.00231
1.00512
1.01137
1.02528
1.05655
1
1
1
1
1
1
1
1
1.00001
1.00002
1.00003
1.00008
1.00017
1.00037
1.00081
1.00179
1.00397
1.0088
1.01955
1.04362
1
1
1
1
1
1
1
1
1.00001
1.00001
1.00003
1.00006
1.00013
1.00028
1.00061
1.00135
1.00297
1.00654
1.01441
1.03188
1
1
1
1
1
1
1
1
1
1.00001
1.00002
1.00005
1.00012
1.00026
1.00057
1.00127
1.00281
1.00622
1.0138
1.03074
2.85834
1.91261
1.80669
1.83928
1.94762
2.10818
2.1674
2.29284
2.57342
3.32523
5.08759
4.97049
4.80453
4.73842
4.69484
4.60948
4.58818
4.52686
4.42273
4.38825
3.20658
2.26348
2.20779
2.11549
2.05178
2.07927
2.14722
2.29464
2.61587
3.33754
4.9973
4.94592
4.82509
4.77465
4.71186
4.58481
4.50549
4.46148
4.39996
4.33465
3.96741
2.99864
2.40498
2.09812
2.07803
2.09889
2.17099
2.32804
2.64198
3.30752
4.81051
4.91939
4.8904
4.8273
4.72707
4.55172
4.41398
4.38646
4.35343
4.32435
4.30081
3.22734
2.57714
2.19955
2.20234
2.22175
2.27224
2.38763
2.64284
3.22125
4.56043
4.96776
4.95417
4.90336
4.78167
4.54673
4.40018
4.32331
4.27577
4.28549
4.47026
3.45303
2.79145
2.39576
2.30053
2.30686
2.33791
2.42845
2.64506
3.13667
4.31547
5.08424
5.06507
4.9917
4.81839
4.55657
4.40151
4.27645
4.19586
4.17701
4.63021
3.66762
2.997
2.56928
2.4102
2.41728
2.44549
2.52059
2.69644
3.08839
3.95508
5.27176
5.2211
5.09944
4.85564
4.62962
4.42388
4.24163
4.11636
4.06337
4.83476
3.86376
3.19474
2.75949
2.53791
2.54232
2.56246
2.62054
2.7632
3.08844
3.81592
5.32211
5.28036
5.16096
4.96171
4.72774
4.4393
4.19457
4.04351
3.96903
4.81418
4.03649
3.39572
2.96492
2.68594
2.68256
2.69373
2.73721
2.85607
3.14134
3.79126
5.13816
5.13731
5.10665
5.0026
4.77419
4.43923
4.16589
3.97758
3.88418
4.70669
4.24878
3.61343
3.1787
2.85507
2.81168
2.82145
2.8593
2.9639
3.21784
3.78806
4.93678
5.02205
5.00168
4.93055
4.76415
4.42867
4.14017
3.92186
3.80805
4.42697
4.25958
3.88009
3.43213
3.02827
2.96627
2.97848
3.02245
3.13744
3.40529
3.96118
4.54593
4.80496
4.7955
4.75305
4.64248
4.40742
4.09815
3.8929
3.7631
3.95076
4.17077
4.04252
3.72318
3.21589
3.19628
3.21422
3.2729
3.41865
3.73923
4.02064
4.29345
4.46959
4.51825
4.50488
4.45491
4.33028
4.07709
3.87237
3.75854
3.24877
4.08592
4.03056
3.86441
3.51102
3.5001
3.52278
3.59923
3.79924
3.9697
4.04629
4.18283
4.22983
4.22278
4.22074
4.20843
4.12961
4.00095
3.85105
3.75616
1.83152
4.00853
4.00044
3.9423
3.79457
3.75915
3.78152
3.86964
4.05847
4.10317
4.11404
4.12345
4.10742
4.02498
3.91432
3.88819
3.86547
3.85065
3.82073
3.77301
1.69282
3.75703
3.99741
4.02828
4.02471
4.03923
4.10847
4.2659
4.32476
4.30562
4.23847
4.07024
3.96066
3.69263
3.66706
3.67041
3.68269
3.71818
3.76586
3.74335
1.54452
3.21264
3.97296
4.08782
4.1671
4.32439
4.63457
4.67697
4.6642
4.60006
4.44464
4.06217
3.79553
3.5263
3.45182
3.45696
3.4736
3.51209
3.5935
3.7171
1.30061
2.15134
3.88155
4.09532
4.4607
4.93075
5.30742
5.29932
5.24343
5.06546
4.56828
4.0224
3.71059
3.42859
3.27571
3.27927
3.29322
3.32786
3.4013
3.50909
1.24111
1.94723
3.59044
4.09599
5.10615
6.26358
6.26026
6.18797
5.94579
5.33938
4.51913
4.01545
3.67122
3.37153
3.14613
3.14883
3.16034
3.18996
3.2547
3.38778
1.18218
1.70328
2.954
4.10201
6.50945
7.23962
7.17024
6.92821
6.35769
5.37968
4.54497
4.01175
3.64975
3.34157
3.06912
3.05844
3.06568
3.08924
3.14327
3.25604
1.12963
1.47845
2.27639
4.08308
7.87145
7.82621
7.68724
7.31633
6.52326
5.40874
4.55903
3.99587
3.63495
3.3281
3.03825
2.98018
2.98566
3.00472
3.05134
3.15107
1.12608
1.46568
2.25252
4.17157
8.40396
8.3553
8.11482
7.55955
6.63495
5.49779
4.61036
4.02561
3.65893
3.34688
3.04499
2.95927
2.96199
2.97335
3.00385
3.07298
)
;

boundaryField
{
    inlet
    {
        type            fixedValue;
        value           uniform 1;
    }
    outlet
    {
        type            waveTransmissive;
        gamma           1.4;
        fieldInf        1;
        lInf            3;
        value           nonuniform List<scalar> 
20
(
4.32167
4.27432
4.26623
4.20497
4.11534
4.01448
3.91796
3.82841
3.74874
3.6966
3.68682
3.68965
3.7077
3.67594
3.57208
3.44066
3.32083
3.20163
3.1012
3.02178
)
;
    }
    top
    {
        type            symmetryPlane;
    }
    bottom
    {
        type            symmetryPlane;
    }
    step
    {
        type            zeroGradient;
    }
    defaultFaces
    {
        type            empty;
    }
}


// ************************************************************************* //
