/*--------------------------------*- C++ -*----------------------------------*\
  =========                 |
  \\      /  F ield         | OpenFOAM: The Open Source CFD Toolbox
   \\    /   O peration     | Website:  https://openfoam.org
    \\  /    A nd           | Version:  6.0
     \\/     M anipulation  |
\*---------------------------------------------------------------------------*/
FoamFile
{
    version     2.0;
    format      ascii;
    class       surfaceScalarField;
    location    "4";
    object      phi;
}
// * * * * * * * * * * * * * * * * * * * * * * * * * * * * * * * * * * * * * //

dimensions      [1 0 -1 0 0 0 0];

internalField   nonuniform List<scalar> 
69200
(
0.000164279
-6.34754e-11
4.6813e-05
0.000147727
1.09569e-10
1.65535e-05
0.00014055
3.67228e-13
7.17645e-06
0.000135233
6.26997e-10
5.31697e-06
0.000131633
5.31325e-10
3.5988e-06
0.000130005
3.41873e-09
1.62811e-06
0.000127875
6.67064e-09
2.12604e-06
0.000125361
1.07872e-08
2.50675e-06
0.000122773
1.7275e-08
2.57623e-06
0.000120545
2.97476e-08
2.2083e-06
0.000118712
5.68557e-08
1.79387e-06
0.000113038
1.19046e-07
5.58352e-06
0.000109551
2.5714e-07
3.28885e-06
0.000183273
1.69068e-06
-7.51439e-05
0.000181994
1.71375e-06
-3.86144e-07
0.00017639
1.52544e-06
4.10476e-06
0.000167017
1.25061e-06
8.13538e-06
0.000145672
8.79372e-07
2.04486e-05
0.000147301
2.19482e-07
-1.89069e-06
6.7148e-08
0.000147088
0.000164279
-1.52658e-10
4.68134e-05
0.000147727
2.42359e-10
1.6553e-05
0.000140549
-3.35155e-13
7.17684e-06
0.000135233
1.33062e-09
5.31667e-06
0.000131632
1.12447e-09
3.59962e-06
0.000130003
7.23099e-09
1.62832e-06
0.000127874
1.40523e-08
2.12491e-06
0.00012536
2.28128e-08
2.50501e-06
0.000122771
3.68964e-08
2.57541e-06
0.000120535
6.46233e-08
2.21066e-06
0.000118682
1.26957e-07
1.80091e-06
0.000113
2.7932e-07
5.55072e-06
0.000109595
6.79541e-07
3.04095e-06
0.000182922
4.07121e-06
-7.54367e-05
0.000181475
4.34812e-06
-1.14035e-06
0.000175816
3.89684e-06
3.3126e-06
0.000166321
3.3946e-06
7.36196e-06
0.000144768
2.79646e-06
1.96181e-05
0.000146383
1.92109e-06
-3.35929e-06
1.60079e-06
0.000144707
0.000164278
-2.60544e-10
4.68143e-05
0.000147727
3.81185e-10
1.65519e-05
0.000140549
-7.26216e-12
7.17778e-06
0.000135233
2.09287e-09
5.31605e-06
0.00013163
1.75379e-09
3.6015e-06
0.00013
1.13718e-08
1.62881e-06
0.000127872
2.21117e-08
2.12334e-06
0.00012536
3.6017e-08
2.50272e-06
0.000122768
5.86542e-08
2.57584e-06
0.000120519
1.0391e-07
2.21955e-06
0.000118628
2.0776e-07
1.82729e-06
0.000112935
4.70787e-07
5.53124e-06
0.000109661
1.2094e-06
2.80217e-06
0.000182641
6.92007e-06
-7.55572e-05
0.000181113
7.66267e-06
-1.74204e-06
0.000175392
6.99354e-06
2.64924e-06
0.000165837
6.31126e-06
6.64713e-06
0.000144098
5.59614e-06
1.89243e-05
0.00014572
4.81556e-06
-4.5627e-06
4.78493e-06
0.000142403
0.000164277
-3.83179e-10
4.68158e-05
0.000147727
5.24022e-10
1.655e-05
0.000140547
-2.7409e-11
7.17931e-06
0.000135233
2.90787e-09
5.31506e-06
0.000131627
2.40382e-09
3.60451e-06
0.000129996
1.58452e-08
1.62947e-06
0.000127869
3.08565e-08
2.12111e-06
0.000125359
5.0399e-08
2.49951e-06
0.000122764
8.24881e-08
2.57685e-06
0.000120497
1.47307e-07
2.23343e-06
0.000118556
2.98036e-07
1.86849e-06
0.000112852
6.88292e-07
5.51627e-06
0.000109744
1.82602e-06
2.54917e-06
0.000182406
1.01779e-05
-7.56456e-05
0.00018085
1.1523e-05
-2.26194e-06
0.000175065
1.0689e-05
2.11194e-06
0.000165473
9.88539e-06
6.02605e-06
0.000143639
9.16195e-06
1.82538e-05
0.000145061
8.74261e-06
-5.39746e-06
9.63684e-06
0.000140087
0.000164275
-5.21203e-10
4.6818e-05
0.000147728
6.70827e-10
1.65473e-05
0.000140546
-6.64283e-11
7.18151e-06
0.000135233
3.7709e-09
5.31363e-06
0.000131622
3.06171e-09
3.60875e-06
0.00012999
2.06523e-08
1.63025e-06
0.000127866
4.03001e-08
2.11809e-06
0.000125359
6.59809e-08
2.49514e-06
0.000122761
1.08418e-07
2.57812e-06
0.000120471
1.94785e-07
2.25177e-06
0.000118467
3.97478e-07
1.92296e-06
0.000112756
9.30078e-07
5.49938e-06
0.000109845
2.51917e-06
2.27602e-06
0.000182222
1.37946e-05
-7.57171e-05
0.00018068
1.58317e-05
-2.72635e-06
0.000174821
1.49253e-05
1.64415e-06
0.000165205
1.40611e-05
5.44701e-06
0.000143429
1.34332e-05
1.74898e-05
0.000144304
1.35874e-05
-5.77048e-06
1.61915e-05
0.000137647
0.000164272
-6.75662e-10
4.68208e-05
0.000147729
8.18167e-10
1.65436e-05
0.000140544
-1.31261e-10
7.18445e-06
0.000135232
4.67016e-09
5.31173e-06
0.000131616
3.70489e-09
3.61432e-06
0.000129983
2.57679e-08
1.63118e-06
0.000127862
5.04136e-08
2.11421e-06
0.00012536
8.27298e-08
2.48945e-06
0.000122758
1.36405e-07
2.57949e-06
0.000120442
2.46284e-07
2.27449e-06
0.000118362
5.05965e-07
1.99023e-06
0.00011265
1.19598e-06
5.47597e-06
0.000109974
3.28534e-06
1.96889e-06
0.000182095
1.77544e-05
-7.57987e-05
0.000180565
2.06864e-05
-3.28367e-06
0.000174613
1.96607e-05
1.23843e-06
0.000164988
1.8758e-05
4.93655e-06
0.000143481
1.83279e-05
1.65987e-05
0.000143424
1.92685e-05
-5.67439e-06
2.44269e-05
0.000135098
0.000164268
-8.49095e-10
4.68245e-05
0.00014773
9.58075e-10
1.6539e-05
0.000140541
-2.344e-10
7.18819e-06
0.000135232
5.58246e-09
5.30931e-06
0.000131609
4.29471e-09
3.62134e-06
0.000129975
3.11289e-08
1.63228e-06
0.000127858
6.11067e-08
2.10939e-06
0.000125361
1.00527e-07
2.4823e-06
0.000122757
1.66298e-07
2.58086e-06
0.00012041
3.01629e-07
2.30154e-06
0.000118242
6.23335e-07
2.06947e-06
0.000112539
1.48614e-06
5.44334e-06
0.000110145
4.13109e-06
1.60828e-06
0.000182024
2.20689e-05
-7.59037e-05
0.000180512
2.6066e-05
-3.828e-06
0.000174445
2.48571e-05
8.91339e-07
0.000164843
2.39121e-05
4.45517e-06
0.000143764
2.37761e-05
1.56156e-05
0.000142364
2.57839e-05
-5.16521e-06
3.4354e-05
0.00013237
0.000164263
-1.04559e-09
4.6829e-05
0.000147731
1.07644e-09
1.65332e-05
0.000140538
-3.9623e-10
7.1928e-06
0.000135232
6.46626e-09
5.30631e-06
0.0001316
4.77315e-09
3.62989e-06
0.000129965
3.66279e-08
1.63358e-06
0.000127853
7.22151e-08
2.10358e-06
0.000125365
1.19145e-07
2.47353e-06
0.000122757
1.97808e-07
2.58207e-06
0.000120376
3.60472e-07
2.33267e-06
0.000118109
7.49235e-07
2.15948e-06
0.000112433
1.80068e-06
5.39281e-06
0.000110382
5.05821e-06
1.18621e-06
0.000182039
2.67468e-05
-7.60359e-05
0.000180544
3.19447e-05
-4.34735e-06
0.000174335
3.04806e-05
6.0275e-07
0.000164781
2.94891e-05
3.98169e-06
0.000144205
2.97844e-05
1.45515e-05
0.000141067
3.3117e-05
-4.24628e-06
4.59125e-05
0.000129456
0.000164258
-1.27211e-09
4.68344e-05
0.000147733
1.14158e-09
1.65263e-05
0.000140534
-6.45131e-10
7.19835e-06
0.000135232
7.25306e-09
5.30269e-06
0.00013159
5.06643e-09
3.64008e-06
0.000129953
4.21191e-08
1.63507e-06
0.000127848
8.34814e-08
2.09671e-06
0.00012537
1.38217e-07
2.46298e-06
0.00012276
2.30501e-07
2.58282e-06
0.000120342
4.22373e-07
2.36727e-06
0.00011797
8.8317e-07
2.25789e-06
0.000112349
2.13878e-06
5.31436e-06
0.000110721
6.06273e-06
6.87673e-07
0.000182216
3.17517e-05
-7.61875e-05
0.00018071
3.83112e-05
-4.8325e-06
0.00017432
3.64883e-05
3.9316e-07
0.000164811
3.54472e-05
3.55243e-06
0.000144698
3.64524e-05
1.34308e-05
0.000139454
4.11679e-05
-2.85077e-06
5.91294e-05
0.00012621
0.000164251
-1.55676e-09
4.68407e-05
0.000147734
1.09008e-09
1.65181e-05
0.000140529
-1.00175e-09
7.20489e-06
0.000135231
7.8375e-09
5.29839e-06
0.000131578
5.13614e-09
3.65194e-06
0.00012994
4.74077e-08
1.63672e-06
0.000127843
9.43955e-08
2.08871e-06
0.000125378
1.57259e-07
2.45041e-06
0.000122768
2.64274e-07
2.5826e-06
0.000120309
4.87655e-07
2.40404e-06
0.000117827
1.02519e-06
2.36076e-06
0.000112304
2.49676e-06
5.19823e-06
0.00011123
7.09043e-06
1.12103e-07
0.000182654
3.70123e-05
-7.63549e-05
0.000181089
4.51931e-05
-5.30296e-06
0.000174464
4.28729e-05
2.38864e-07
0.000164914
4.18096e-05
3.18046e-06
0.000145239
4.36164e-05
1.24943e-05
0.000137348
5.00838e-05
-1.06458e-06
7.42377e-05
0.000122229
0.000164244
-1.98297e-09
4.68481e-05
0.000147737
8.11096e-10
1.65086e-05
0.000140524
-1.40159e-09
7.21245e-06
0.000135232
8.06724e-09
5.29333e-06
0.000131565
5.1769e-09
3.66539e-06
0.000129926
5.19991e-08
1.63854e-06
0.000127841
1.02176e-07
2.07973e-06
0.000125389
1.78294e-07
2.43519e-06
0.000122776
3.03598e-07
2.57996e-06
0.000120274
5.61172e-07
2.44019e-06
0.000117677
1.18071e-06
2.46252e-06
0.000112243
2.89618e-06
5.06878e-06
0.000111981
8.29736e-06
-8.73004e-07
0.000183319
4.25178e-05
-7.64931e-05
0.000181632
5.26632e-05
-5.7837e-06
0.000174724
4.97716e-05
-4.95881e-09
0.000164772
4.86679e-05
3.07732e-06
0.000145359
5.12569e-05
1.17483e-05
0.000134345
6.00685e-05
9.92993e-07
9.13261e-05
0.000117249
0.000164236
-3.02276e-09
4.68567e-05
0.00014774
7.76196e-10
1.64974e-05
0.000140518
-1.87852e-09
7.22091e-06
0.000135232
7.80155e-09
5.28765e-06
0.00013155
6.26204e-09
3.6795e-06
0.00012992
4.43378e-08
1.64211e-06
0.000127835
1.21903e-07
2.06829e-06
0.000125391
2.10502e-07
2.41561e-06
0.000122777
3.51659e-07
2.57303e-06
0.000120239
6.41613e-07
2.46918e-06
0.000117566
1.34601e-06
2.53026e-06
0.000112217
3.32563e-06
4.95609e-06
0.000113074
9.67146e-06
-2.15601e-06
0.000184498
4.80685e-05
-7.6597e-05
0.0001825
6.07531e-05
-6.1152e-06
0.000175181
5.73358e-05
-2.76174e-07
0.000164532
5.62122e-05
3.07336e-06
0.000144744
5.97149e-05
1.12978e-05
0.000130427
7.11047e-05
3.24539e-06
0.00011054
0.000111209
0.000164222
-4.11475e-09
4.68698e-05
0.000147744
7.29274e-10
1.64799e-05
0.00014051
-2.36097e-09
7.2331e-06
0.000135232
8.1623e-09
5.27949e-06
0.000131541
4.6671e-09
3.6914e-06
0.000129861
4.15169e-08
1.68521e-06
0.000127849
1.35124e-07
2.00275e-06
0.000125457
2.41143e-07
2.36706e-06
0.000122854
4.03009e-07
2.55898e-06
0.000120281
7.29266e-07
2.49807e-06
0.000117552
1.52454e-06
2.57282e-06
0.00011234
3.7971e-06
4.77735e-06
0.000114527
1.12694e-05
-3.71174e-06
0.000186451
5.31966e-05
-7.66469e-05
0.000183962
6.94187e-05
-6.22797e-06
0.00017606
6.56627e-05
-4.74701e-07
0.000164397
6.47341e-05
3.09539e-06
0.000143911
6.90776e-05
1.108e-05
0.000126206
8.31663e-05
5.61274e-06
0.000132181
0.000104557
0.000164203
-4.71528e-09
4.68876e-05
0.00014775
1.11186e-09
1.64552e-05
0.000140499
-2.93724e-09
7.24939e-06
0.000135232
8.85667e-09
5.26841e-06
0.000131534
6.14459e-10
3.70043e-06
0.000129786
4.10326e-08
1.75076e-06
0.000127864
1.47411e-07
1.91513e-06
0.000125537
2.67562e-07
2.30635e-06
0.000122964
4.4837e-07
2.5349e-06
0.000120392
8.08646e-07
2.50597e-06
0.000117696
1.68648e-06
2.55764e-06
0.000112821
4.2183e-06
4.4914e-06
0.000116162
1.26105e-05
-4.61321e-06
0.000189495
5.72514e-05
-7.69648e-05
0.000186256
7.86175e-05
-6.0482e-06
0.000177541
7.49462e-05
-6.42147e-07
0.00016481
7.43253e-05
3.08495e-06
0.000143311
7.96691e-05
1.08646e-05
0.000122406
9.63994e-05
7.62997e-06
0.000156372
9.81767e-05
0.000164179
-2.87216e-09
4.69089e-05
0.000147757
8.90735e-10
1.64247e-05
0.000140486
-3.43195e-09
7.26993e-06
0.000135234
8.28915e-09
5.25395e-06
0.00013153
-4.20603e-09
3.70686e-06
0.000129703
4.30842e-08
1.82828e-06
0.000127875
1.56074e-07
1.82334e-06
0.000125618
2.86175e-07
2.24498e-06
0.00012309
4.82081e-07
2.50188e-06
0.000120557
8.71017e-07
2.48405e-06
0.000117984
1.81682e-06
2.4667e-06
0.000113615
4.55262e-06
4.07441e-06
0.000118148
1.35683e-05
-5.41884e-06
0.000193776
5.95215e-05
-7.74347e-05
0.000189632
8.81297e-05
-5.48987e-06
0.000179847
8.52232e-05
-6.1894e-07
0.000165829
8.51907e-05
3.02867e-06
0.000142951
9.21171e-05
1.03488e-05
0.000119834
0.000111649
7.83666e-06
0.000182877
9.32805e-05
0.000164165
2.11251e-09
4.69224e-05
0.000147762
-1.87514e-09
1.64053e-05
0.000140478
-3.2903e-09
7.28389e-06
0.000135236
6.72376e-09
5.24307e-06
0.000131532
-7.65161e-09
3.70683e-06
0.000129615
4.54445e-08
1.91562e-06
0.000127887
1.6142e-07
1.72769e-06
0.000125699
2.97495e-07
2.18302e-06
0.000123222
5.03545e-07
2.46374e-06
0.000120752
9.13757e-07
2.44024e-06
0.000118379
1.91367e-06
2.3012e-06
0.000114624
4.83482e-06
3.51181e-06
0.000120043
1.57782e-05
-7.54359e-06
0.000198384
5.91053e-05
-7.74783e-05
0.000193438
9.80102e-05
-5.04658e-06
0.000182689
9.69171e-05
-9.90248e-07
0.000167512
9.69426e-05
3.41033e-06
0.000143166
0.00010614
1.02718e-05
0.000117932
0.000129038
7.78836e-06
0.000213151
8.76201e-05
0.000164184
3.28317e-09
4.69079e-05
0.000147761
-8.08723e-10
1.64206e-05
0.000140483
-3.02655e-09
7.27823e-06
0.000135239
6.18013e-09
5.24441e-06
0.000131542
-9.1327e-09
3.69819e-06
0.000129532
4.54202e-08
2.01091e-06
0.000127906
1.63515e-07
1.62912e-06
0.000125787
3.01221e-07
2.121e-06
0.00012337
5.07847e-07
2.42047e-06
0.000121021
9.11853e-07
2.36323e-06
0.000119054
1.87058e-06
2.03391e-06
0.00011748
4.54114e-06
1.91562e-06
0.000122268
1.37245e-05
-2.77325e-06
0.000206476
5.17571e-05
-7.64434e-05
0.000198152
0.000113995
-7.82479e-06
0.000186454
0.000109219
-8.55248e-07
0.000169554
0.000110716
2.97771e-06
0.000144242
0.000122147
9.18032e-06
0.000116733
0.000148845
7.58658e-06
0.000248544
8.1204e-05
0.000164201
3.83318e-09
4.68916e-05
0.000147761
-1.91434e-10
1.6438e-05
0.000140488
-1.91222e-09
7.27263e-06
0.000135243
6.00335e-09
5.2447e-06
0.000131552
-8.36527e-09
3.69026e-06
0.000129446
4.54964e-08
2.10629e-06
0.00012792
1.62624e-07
1.53149e-06
0.000125864
3.0184e-07
2.06117e-06
0.000123484
5.09906e-07
2.38517e-06
0.000121177
9.11343e-07
2.31944e-06
0.000119345
1.84357e-06
1.87998e-06
0.000118426
4.35299e-06
1.15017e-06
0.0001196
1.23426e-05
1.7583e-07
0.000184801
4.7539e-05
-6.07699e-05
0.000198975
0.000117574
-1.76228e-05
0.000188714
0.000121149
-1.79434e-06
0.00017117
0.000126675
1.44103e-06
0.000145823
0.000140861
6.51607e-06
0.000116673
0.000172199
5.72059e-06
0.000292037
7.30362e-05
0.000164218
4.30384e-09
4.68748e-05
0.000147761
-3.24738e-10
1.6456e-05
0.000140493
-2.0597e-10
7.26638e-06
0.000135248
4.80937e-09
5.24607e-06
0.000131562
-4.30801e-09
3.68199e-06
0.000129362
4.23518e-08
2.20357e-06
0.000127939
1.58296e-07
1.43193e-06
0.000125939
3.068e-07
2.00061e-06
0.000123575
5.24194e-07
2.35546e-06
0.000121261
9.34165e-07
2.30278e-06
0.000119423
1.87215e-06
1.8296e-06
0.000118525
4.36473e-06
9.24692e-07
0.000117142
1.21079e-05
1.65348e-06
0.000163488
4.49823e-05
-4.35936e-05
0.00019487
0.000123255
-3.67598e-05
0.000187413
0.00013531
-6.71394e-06
0.000172171
0.000144488
-2.61938e-06
0.000147806
0.000162885
2.263e-06
0.000116789
0.000201604
1.5591e-06
0.000348319
6.03775e-05
0.000164239
4.68555e-05
2.89994e-09
0.000147758
1.64782e-05
1.41134e-09
0.000140502
7.25572e-06
1.62285e-09
0.000135252
5.2523e-06
1.55548e-09
0.000131572
3.66902e-06
6.01848e-09
0.000129286
2.31484e-06
1.4743e-08
0.000127959
1.31333e-06
1.75957e-07
0.000126006
1.93389e-06
3.30928e-07
0.00012366
2.32508e-06
5.51374e-07
0.000121353
2.28951e-06
9.61373e-07
0.000119539
1.8102e-06
1.89565e-06
0.000118773
8.0246e-07
4.36348e-06
0.000115352
3.63718e-06
1.19354e-05
0.000146442
-2.9535e-05
4.35859e-05
0.000189255
-5.60252e-05
0.00013674
0.000183074
-1.35876e-05
0.000155097
0.000170744
-1.1327e-05
0.000168146
0.000148515
-7.08377e-06
0.000192169
0.000116909
-8.88075e-06
0.000242066
3.96717e-05
0.000425476
0.000231076
3.95456e-11
2.5597e-05
0.000226542
1.54742e-10
2.10881e-05
0.000216645
3.81919e-10
1.7073e-05
0.00021183
1.72751e-09
1.01313e-05
0.000208777
2.62829e-09
6.64837e-06
0.000205278
8.19437e-09
5.12236e-06
0.000201812
1.50198e-08
5.5816e-06
0.000198919
2.57644e-08
5.37913e-06
0.000197031
4.68753e-08
4.42712e-06
0.00019671
9.43928e-08
2.45214e-06
0.000200099
2.12935e-07
-1.7782e-06
0.00021586
5.37474e-07
-1.06799e-05
0.000230682
1.44879e-06
-1.28501e-05
0.000287875
5.63502e-06
-0.000137549
0.000273905
6.78823e-06
6.88101e-06
0.000255844
7.13892e-06
1.50856e-05
0.000222939
7.29286e-06
3.37751e-05
0.000178784
7.20067e-06
5.738e-05
0.000108945
1.02586e-05
5.75754e-05
8.26286e-06
0.000247626
0.000231077
6.58205e-11
2.5597e-05
0.000226542
3.02101e-10
2.10878e-05
0.000216644
7.64076e-10
1.7074e-05
0.000211829
3.54741e-09
1.0131e-05
0.000208775
5.33349e-09
6.6505e-06
0.000205281
1.67456e-08
5.11717e-06
0.000201817
3.06848e-08
5.57805e-06
0.000198923
5.26465e-08
5.37727e-06
0.000197031
9.59465e-08
4.42703e-06
0.000196705
1.93992e-07
2.45468e-06
0.000200078
4.41042e-07
-1.76932e-06
0.000215726
1.12918e-06
-1.0655e-05
0.000230351
3.10867e-06
-1.3111e-05
0.000286855
1.2106e-05
-0.000137987
0.000272961
1.44326e-05
5.19335e-06
0.000254901
1.51263e-05
1.34432e-05
0.000222219
1.55215e-05
3.18421e-05
0.000178426
1.5454e-05
5.51338e-05
0.000109769
2.19176e-05
5.35264e-05
1.78587e-05
0.000244731
0.000231078
7.9854e-11
2.55971e-05
0.000226542
4.37985e-10
2.10874e-05
0.000216643
1.14183e-09
1.70762e-05
0.000211828
5.46978e-09
1.01306e-05
0.000208771
8.15396e-09
6.65508e-06
0.000205287
2.58418e-08
5.10703e-06
0.000201826
4.74104e-08
5.57167e-06
0.000198931
8.1449e-08
5.3751e-06
0.000197033
1.48787e-07
4.42999e-06
0.000196695
3.01966e-07
2.46666e-06
0.000200034
6.90242e-07
-1.73009e-06
0.000215465
1.78137e-06
-1.05168e-05
0.000229791
4.96101e-06
-1.32429e-05
0.000285792
1.94581e-05
-0.000138484
0.000272066
2.29906e-05
3.5075e-06
0.000254103
2.39752e-05
1.18196e-05
0.0002218
2.46276e-05
2.98694e-05
0.000178823
2.48153e-05
5.25192e-05
0.000111324
3.51372e-05
4.96029e-05
2.93572e-05
0.000242074
0.000231079
8.35725e-11
2.55972e-05
0.000226542
5.62309e-10
2.10868e-05
0.000216641
1.51098e-09
1.70795e-05
0.000211826
7.50169e-09
1.01298e-05
0.000208765
1.11084e-08
6.66228e-06
0.000205297
3.5592e-08
5.09152e-06
0.000201841
6.54237e-08
5.56214e-06
0.000198943
1.12602e-07
5.37235e-06
0.000197036
2.06234e-07
4.43572e-06
0.000196681
4.19988e-07
2.48764e-06
0.000199969
9.63866e-07
-1.6616e-06
0.000215071
2.50035e-06
-1.02697e-05
0.000228991
7.00915e-06
-1.32834e-05
0.000284677
2.76213e-05
-0.000139066
0.000271213
3.24461e-05
1.82411e-06
0.000253489
3.36813e-05
1.01845e-05
0.000221648
3.4627e-05
2.78909e-05
0.000179785
3.52951e-05
4.96158e-05
0.000113374
4.96792e-05
4.63576e-05
4.33552e-05
0.000239314
0.000231081
7.59305e-11
2.55973e-05
0.000226542
6.72512e-10
2.1086e-05
0.000216639
1.86513e-09
1.70842e-05
0.000211823
9.63799e-09
1.01288e-05
0.000208756
1.41888e-08
6.67234e-06
0.000205309
4.60299e-08
5.07017e-06
0.000201863
8.48161e-08
5.54914e-06
0.000198961
1.46299e-07
5.36889e-06
0.000197042
2.68701e-07
4.44433e-06
0.000196664
5.48952e-07
2.51812e-06
0.00019988
1.26375e-06
-1.56178e-06
0.000214534
3.28943e-06
-9.90733e-06
0.00022793
9.2588e-06
-1.32324e-05
0.000283521
3.64993e-05
-0.000139754
0.000270408
4.27268e-05
1.84312e-07
0.000253022
4.42247e-05
8.5402e-06
0.00022172
4.55161e-05
2.58806e-05
0.000181183
4.69136e-05
4.63862e-05
0.000115609
6.53806e-05
4.39869e-05
6.00743e-05
0.000236397
0.000231084
5.3162e-11
2.55975e-05
0.000226542
7.60112e-10
2.10849e-05
0.000216636
2.18867e-09
1.70901e-05
0.000211819
1.18525e-08
1.01273e-05
0.000208745
1.73485e-08
6.68552e-06
0.000205326
5.7108e-08
5.04247e-06
0.000201891
1.05541e-07
5.53233e-06
0.000198986
1.82517e-07
5.36464e-06
0.000197051
3.36246e-07
4.45608e-06
0.000196644
6.89132e-07
2.55907e-06
0.000199767
1.59059e-06
-1.4274e-06
0.000213839
4.14954e-06
-9.41937e-06
0.000226581
1.17032e-05
-1.30786e-05
0.000282189
4.61296e-05
-0.000140597
0.000269253
5.39767e-05
-1.50753e-06
0.000252261
5.56008e-05
6.91656e-06
0.000221761
5.72037e-05
2.37768e-05
0.000182699
5.95844e-05
4.29715e-05
0.000117619
8.22435e-05
4.24262e-05
7.95547e-05
0.000233119
0.000231087
7.71308e-12
2.55978e-05
0.000226542
8.08061e-10
2.10837e-05
0.000216633
2.44972e-09
1.70975e-05
0.000211815
1.40873e-08
1.01255e-05
0.000208731
2.04887e-08
6.70212e-06
0.000205348
6.86672e-08
5.00791e-06
0.000201928
1.27372e-07
5.51141e-06
0.000199018
2.20939e-07
5.35956e-06
0.000197065
4.08409e-07
4.47141e-06
0.000196622
8.39744e-07
2.61198e-06
0.000199625
1.94255e-06
-1.25333e-06
0.000212975
5.07577e-06
-8.79376e-06
0.000224938
1.43231e-05
-1.28307e-05
0.000280726
5.65442e-05
-0.000141656
0.000267925
6.61291e-05
-3.08908e-06
0.000251414
6.77263e-05
5.33837e-06
0.000221818
6.9614e-05
2.16673e-05
0.000184205
7.32569e-05
3.95418e-05
0.000119219
0.000100434
4.15105e-05
0.00010172
0.000229323
0.000231091
-7.40248e-11
2.55982e-05
0.000226542
7.86927e-10
2.10822e-05
0.000216628
2.59603e-09
1.71064e-05
0.00021181
1.62347e-08
1.01233e-05
0.000208715
2.34397e-08
6.7224e-06
0.000205374
8.04187e-08
4.96603e-06
0.000201973
1.49874e-07
5.48607e-06
0.000199059
2.60934e-07
5.35361e-06
0.000197084
4.84215e-07
4.49074e-06
0.000196598
9.99073e-07
2.67807e-06
0.000199454
2.31583e-06
-1.03594e-06
0.000211918
6.05752e-06
-8.01374e-06
0.000223002
1.70959e-05
-1.25217e-05
0.000279175
6.77146e-05
-0.000142915
0.000266533
7.91147e-05
-4.60427e-06
0.000250638
8.04815e-05
3.80324e-06
0.000221977
8.26576e-05
1.96252e-05
0.000185589
8.79212e-05
3.6261e-05
0.000120496
0.000120116
4.10493e-05
0.000126731
0.000224872
0.000231096
-2.14892e-10
2.55988e-05
0.000226542
6.46993e-10
2.10806e-05
0.000216624
2.54691e-09
1.71167e-05
0.000211805
1.81172e-08
1.01206e-05
0.000208696
2.59464e-08
6.7466e-06
0.000205406
9.1919e-08
4.91643e-06
0.000202029
1.72362e-07
5.45602e-06
0.00019911
3.01486e-07
5.34672e-06
0.000197111
5.62096e-07
4.51435e-06
0.000196574
1.16424e-06
2.75829e-06
0.00019925
2.70353e-06
-7.71914e-07
0.000210661
7.07503e-06
-7.07178e-06
0.000220802
1.99756e-05
-1.21788e-05
0.000277608
7.95858e-05
-0.000144382
0.000265122
9.29031e-05
-6.05805e-06
0.000249945
9.37684e-05
2.33464e-06
0.000222244
9.62601e-05
1.76721e-05
0.000186776
0.000103593
3.32132e-05
0.000121618
0.000141545
4.0766e-05
0.000154785
0.000219724
0.000231102
-4.62074e-10
2.55994e-05
0.000226541
3.03446e-10
2.10788e-05
0.000216618
2.18753e-09
1.71286e-05
0.000211799
1.94474e-08
1.01175e-05
0.000208674
2.76871e-08
6.77488e-06
0.000205445
1.02536e-07
4.8588e-06
0.000202095
1.93817e-07
5.42101e-06
0.000199173
3.41283e-07
5.33871e-06
0.000197146
6.4032e-07
4.54221e-06
0.000196549
1.33168e-06
2.85272e-06
0.000199015
3.09432e-06
-4.60438e-07
0.000209215
8.09009e-06
-5.97199e-06
0.000218402
2.29139e-05
-1.18545e-05
0.000276179
9.19878e-05
-0.000146023
0.000263788
0.000107512
-7.46175e-06
0.000249271
0.000107482
1.07378e-06
0.000222306
0.000110555
1.58624e-05
0.000187903
0.000120211
3.02622e-05
0.000122885
0.000164747
4.06489e-05
0.000185945
0.000213927
0.000231109
-9.09952e-10
2.56002e-05
0.000226541
-4.00506e-10
2.1077e-05
0.000216612
1.36143e-09
1.71418e-05
0.000211792
1.97428e-08
1.01139e-05
0.00020865
2.83659e-08
6.80716e-06
0.00020549
1.1119e-07
4.79298e-06
0.000202174
2.12918e-07
5.38081e-06
0.000199247
3.80065e-07
5.32935e-06
0.000197185
7.20002e-07
4.57367e-06
0.000196516
1.50125e-06
2.95922e-06
0.000198748
3.47712e-06
-1.15161e-07
0.00020774
9.05088e-06
-4.83403e-06
0.000215941
2.5734e-05
-1.17215e-05
0.000275153
0.000104671
-0.000147864
0.000262654
0.000123049
-8.7957e-06
0.000247681
0.000122139
3.16698e-07
0.000221659
0.000125566
1.40829e-05
0.000188825
0.00013803
2.67592e-05
0.000125088
0.000188448
4.09272e-05
0.000220442
0.000207829
0.000231117
-1.82785e-09
2.56012e-05
0.00022654
-1.62635e-09
2.10755e-05
0.000216606
-2.10785e-10
1.71559e-05
0.000211786
1.86422e-08
1.01098e-05
0.000208624
2.71376e-08
6.84295e-06
0.000205548
1.14034e-07
4.7187e-06
0.000202266
2.32048e-07
5.33557e-06
0.000199323
4.25405e-07
5.31896e-06
0.000197209
8.0948e-07
4.60835e-06
0.000196445
1.67601e-06
3.07917e-06
0.000198406
3.84664e-06
2.40764e-07
0.000206351
9.95615e-06
-3.83804e-06
0.00021353
2.83483e-05
-1.17845e-05
0.000274605
0.000117283
-0.0001497
0.00026182
0.000139381
-9.65241e-06
0.000246239
0.000137748
-3.17817e-07
0.000220701
0.000141655
1.25052e-05
0.000189801
0.000157007
2.31815e-05
0.000128403
0.000212317
4.06758e-05
0.000258807
0.000201241
0.000231129
-2.96349e-09
2.56024e-05
0.000226534
-3.26826e-09
2.10754e-05
0.000216601
-2.92275e-09
1.71695e-05
0.00021178
1.56003e-08
1.01037e-05
0.0002086
1.54232e-08
6.88315e-06
0.00020565
1.22629e-07
4.62974e-06
0.000202329
2.61631e-07
5.2986e-06
0.000199339
4.81432e-07
5.30846e-06
0.000197178
9.03925e-07
4.63714e-06
0.000196342
1.83996e-06
3.19179e-06
0.000198066
4.16666e-06
5.70104e-07
0.000205092
1.0701e-05
-2.93271e-06
0.000211643
3.05175e-05
-1.22774e-05
0.000275052
0.000128873
-0.00015102
0.00026163
0.000156411
-9.85996e-06
0.00024519
0.000154476
-8.01289e-07
0.000219686
0.000159097
1.11236e-05
0.000190308
0.000177408
2.00113e-05
0.000132176
0.000236244
3.9729e-05
0.000301991
0.000193539
0.000231144
-3.69404e-09
2.56039e-05
0.000226522
-4.42182e-09
2.10781e-05
0.000216596
-5.82458e-09
1.71787e-05
0.000211782
1.14922e-08
1.00877e-05
0.00020858
-3.25558e-09
6.91959e-06
0.000205755
1.35012e-07
4.56712e-06
0.000202365
2.97278e-07
5.27532e-06
0.000199329
5.41859e-07
5.28943e-06
0.00019714
9.96397e-07
4.64348e-06
0.000196252
1.98919e-06
3.2664e-06
0.000197762
4.4454e-06
8.09602e-07
0.000204085
1.1337e-05
-2.40373e-06
0.000210929
3.23242e-05
-1.31171e-05
0.000276904
0.000138071
-0.00015147
0.000262523
0.000173733
-9.03449e-06
0.000244972
0.000172336
-1.0014e-06
0.000219027
0.000178237
9.83949e-06
0.000190113
0.000199715
1.74006e-05
0.000133614
0.000261373
3.89176e-05
0.00034994
0.000183814
0.000231162
-2.71998e-09
2.56057e-05
0.000226502
-3.76472e-09
2.10843e-05
0.000216591
-6.66391e-09
1.71809e-05
0.000211793
7.30159e-09
1.00573e-05
0.000208564
-1.53068e-08
6.94607e-06
0.000205835
1.38482e-07
4.55833e-06
0.000202372
3.1966e-07
5.26967e-06
0.000199323
5.86835e-07
5.25665e-06
0.000197142
1.07215e-06
4.61982e-06
0.000196222
2.11745e-06
3.29771e-06
0.000197525
4.68606e-06
9.63132e-07
0.000203374
1.18795e-05
-2.25188e-06
0.000211311
3.37829e-05
-1.46658e-05
0.000280109
0.000143801
-0.000151264
0.000264293
0.000191336
-7.35401e-06
0.000245484
0.000191201
-7.42538e-07
0.00021861
0.000199376
8.73071e-06
0.000188651
0.000224531
1.5457e-05
0.000128319
0.000290628
3.88221e-05
0.00040065
0.000170845
0.000231173
2.10561e-10
2.56073e-05
0.000226486
-1.66588e-09
2.10903e-05
0.000216588
-6.09286e-09
1.71803e-05
0.000211812
3.04392e-09
1.00244e-05
0.00020855
-2.19038e-08
6.97261e-06
0.000205912
1.39611e-07
4.55756e-06
0.000202365
3.31192e-07
5.26894e-06
0.000199307
6.12198e-07
5.22388e-06
0.000197145
1.11837e-06
4.59087e-06
0.000196211
2.19898e-06
3.3147e-06
0.000197335
4.82886e-06
1.07427e-06
0.000202945
1.21392e-05
-2.28923e-06
0.000212312
3.39976e-05
-1.69883e-05
0.00028454
0.000145172
-0.000150352
0.000266893
0.000209599
-5.762e-06
0.000245725
0.000211754
-4.65673e-07
0.000218224
0.000222584
7.64312e-06
0.000187655
0.000251734
1.36022e-05
0.000125537
0.000322994
3.74616e-05
0.000456869
0.000156882
0.000231159
1.23952e-09
2.56079e-05
0.000226487
-3.91708e-11
2.10918e-05
0.000216584
-4.70292e-09
1.71798e-05
0.000211832
2.65432e-09
9.99639e-06
0.000208534
-2.49613e-08
6.99728e-06
0.000205989
1.40205e-07
4.56095e-06
0.000202351
3.35211e-07
5.26881e-06
0.000199279
6.21195e-07
5.19156e-06
0.000197131
1.13523e-06
4.56339e-06
0.000196154
2.22595e-06
3.33438e-06
0.000196999
4.85725e-06
1.19999e-06
0.000201303
1.21032e-05
-2.27732e-06
0.000216168
3.38029e-05
-1.73353e-05
0.000291492
0.000141399
-0.00014732
0.000270435
0.000228565
-5.84076e-06
0.000247624
0.000234697
-1.08892e-06
0.000218735
0.000248206
6.16718e-06
0.000186832
0.000281448
1.13117e-05
0.000124407
0.000359301
3.36316e-05
0.000520092
0.000142301
0.000231144
1.83438e-09
2.56079e-05
0.000226487
1.05594e-09
2.1093e-05
0.00021658
-2.92002e-09
1.71782e-05
0.000211855
3.08706e-09
9.97009e-06
0.00020852
-2.34748e-08
7.02195e-06
0.000206065
1.40285e-07
4.56516e-06
0.000202336
3.32427e-07
5.26875e-06
0.000199247
6.18955e-07
5.15993e-06
0.000197102
1.13824e-06
4.53858e-06
0.000196068
2.23807e-06
3.36171e-06
0.000196627
4.87689e-06
1.33815e-06
0.000200072
1.21203e-05
-2.24163e-06
0.000218442
3.397e-05
-1.82779e-05
0.000300553
0.000138709
-0.000139649
0.000274331
0.00024648
-9.37637e-06
0.000251692
0.000258907
-3.46074e-06
0.000221691
0.000275963
3.64202e-06
0.000187537
0.000314141
7.93694e-06
0.000125266
0.000399366
2.78361e-05
0.000592819
0.000125464
0.000231127
2.38633e-09
2.56075e-05
0.000226489
1.92457e-09
2.10937e-05
0.000216577
-6.54152e-10
1.71756e-05
0.000211876
2.76129e-09
9.94749e-06
0.000208505
-1.6003e-08
7.04424e-06
0.000206147
1.36919e-07
4.5695e-06
0.000202335
3.12356e-07
5.26855e-06
0.000199217
6.18634e-07
5.1253e-06
0.000197063
1.15165e-06
4.50718e-06
0.000195989
2.25957e-06
3.37419e-06
0.0001964
4.90068e-06
1.42918e-06
0.000199618
1.21465e-05
-2.26034e-06
0.000220747
3.3707e-05
-1.91095e-05
0.000310624
0.000135265
-0.000129542
0.000277883
0.000261524
-1.90088e-05
0.000254489
0.000282408
-6.92805e-06
0.000225341
0.000303994
-1.58628e-06
0.000190411
0.000348456
2.81175e-06
0.000127333
0.000443713
2.02059e-05
0.00067682
0.000103592
0.00023111
2.56068e-05
1.9067e-09
0.000226495
2.10924e-05
2.46672e-09
0.000216575
1.7173e-05
2.13071e-09
0.000211895
9.9334e-06
1.53295e-09
0.00020849
7.05722e-06
7.25208e-11
0.000206286
4.57954e-06
7.95767e-08
0.000202297
5.26287e-06
3.56437e-07
0.000199127
5.07861e-06
6.50063e-07
0.000196985
4.46343e-06
1.16535e-06
0.000195932
3.3698e-06
2.24958e-06
0.000196368
1.47106e-06
4.8371e-06
0.000199846
-2.36459e-06
1.18886e-05
0.000222132
-1.8939e-05
3.41086e-05
0.000323411
-0.000118456
0.000123334
0.000281986
-3.31623e-05
0.000280178
0.000257713
-1.24377e-05
0.000305475
0.000229493
-9.5827e-06
0.000330406
0.00019491
-5.52921e-06
0.000381419
0.000133042
8.26445e-06
0.000488353
7.52136e-05
0.00077421
0.000224146
1.69497e-10
1.12318e-05
0.000230645
6.90175e-11
1.45895e-05
0.000235273
1.09759e-09
1.24437e-05
0.000234235
2.51278e-09
1.11677e-05
0.000231327
5.15486e-09
9.55237e-06
0.00022726
9.07141e-09
9.18239e-06
0.000225331
1.63256e-08
7.4973e-06
0.000224739
3.12623e-08
5.94625e-06
0.000224906
6.43889e-08
4.20749e-06
0.000226046
1.43707e-07
1.19062e-06
0.000230733
3.54286e-07
-6.77405e-06
0.000252167
9.58455e-07
-3.30971e-05
0.000353628
3.56924e-06
-0.000117632
0.000282929
9.21054e-06
-7.56439e-05
0.000253994
1.13624e-05
2.45448e-05
0.000219153
1.2761e-05
3.72408e-05
0.000178812
1.32067e-05
6.09623e-05
0.000150327
1.25453e-05
7.3271e-05
3.99508e-05
2.06615e-05
0.000147187
1.89693e-05
0.000268578
0.000224146
3.39836e-10
1.12318e-05
0.000230645
1.28168e-10
1.45893e-05
0.000235275
2.21142e-09
1.24429e-05
0.000234238
5.07619e-09
1.11666e-05
0.000231333
1.04105e-08
9.55087e-06
0.000227262
1.83265e-08
9.18117e-06
0.000225331
3.29954e-08
7.49604e-06
0.000224737
6.32432e-08
5.9447e-06