/*--------------------------------*- C++ -*----------------------------------*\
  =========                 |
  \\      /  F ield         | OpenFOAM: The Open Source CFD Toolbox
   \\    /   O peration     | Website:  https://openfoam.org
    \\  /    A nd           | Version:  6.0
     \\/     M anipulation  |
\*---------------------------------------------------------------------------*/
FoamFile
{
    version     2.0;
    format      ascii;
    class       surfaceScalarField;
    location    "4";
    object      phi;
}
// * * * * * * * * * * * * * * * * * * * * * * * * * * * * * * * * * * * * * //

dimensions      [1 0 -1 0 0 0 0];

internalField   nonuniform List<scalar> 
2320
(
0.0041999
1.69008e-10
0.0041999
1.03995e-09
0.0041999
3.42224e-09
0.00419989
9.09738e-09
0.00419987
2.19932e-08
0.00419982
5.08077e-08
0.00419971
1.15044e-07
0.00419946
2.59648e-07
0.0041989
5.93858e-07
0.00419754
1.40712e-06
0.00419409
3.55228e-06
0.00418449
9.73314e-06
0.00415064
3.42232e-05
0.00391223
0.00024147
0.00346351
0.000451154
0.00274044
0.000724008
0.00196645
0.000774138
0.00125521
0.000710914
0.000844921
0.000410159
0.000846251
0.0041999
3.47006e-10
0.0041999
2.13523e-09
0.0041999
7.02662e-09
0.00419989
1.86787e-08
0.00419987
4.51558e-08
0.00419982
1.04316e-07
0.0041997
2.3621e-07
0.00419944
5.33225e-07
0.00419884
1.22052e-06
0.0041974
2.89904e-06
0.00419368
7.37193e-06
0.00418299
2.05699e-05
0.00414419
7.34081e-05
0.0038522
0.000536534
0.00336413
0.00094166
0.00269992
0.00138916
0.00201499
0.00145922
0.00133307
0.00139252
0.00078126
0.000961857
0.00162884
0.0041999
5.43808e-10
0.0041999
3.34597e-09
0.0041999
1.10113e-08
0.00419989
2.92776e-08
0.00419986
7.08074e-08
0.00419981
1.63673e-07
0.00419968
3.70924e-07
0.00419939
8.38279e-07
0.00419871
1.92191e-06
0.00419709
4.57726e-06
0.00419287
1.16997e-05
0.0041806
3.29893e-05
0.00413541
0.000119015
0.003805
0.000870046
0.00328966
0.00145946
0.00266123
0.00201853
0.00202441
0.00209616
0.00138127
0.00203535
0.000736536
0.00160651
0.00236665
0.0041999
7.68385e-10
0.0041999
4.72733e-09
0.0041999
1.55579e-08
0.00419989
4.13781e-08
0.00419986
1.00124e-07
0.00419979
2.3161e-07
0.00419965
5.25395e-07
0.00419931
1.18881e-06
0.00419853
2.72971e-06
0.00419665
6.5147e-06
0.00419176
1.67086e-05
0.00417749
4.74171e-05
0.00412511
0.000171871
0.00376348
0.00123483
0.00322529
0.00200014
0.00262662
0.00261808
0.00202498
0.00269792
0.00139943
0.0026606
0.000700192
0.00230575
0.00306807
0.0041999
1.02916e-09
0.0041999
6.33111e-09
0.0041999
2.08371e-08
0.00419988
5.54346e-08
0.00419985
1.34207e-07
0.00419977
3.10683e-07
0.0041996
7.05428e-07
0.00419921
1.59794e-06
0.0041983
3.67387e-06
0.0041961
8.78175e-06
0.00419036
2.25737e-05
0.00417364
6.43123e-05
0.00411296
0.000233099
0.00372085
0.00163017
0.00316416
0.00255939
0.00259618
0.00318688
0.00202002
0.00327408
0.00140684
0.00327345
0.000688776
0.00302393
0.00375806
0.0041999
1.33427e-09
0.0041999
8.20728e-09
0.0041999
2.70133e-08
0.00419988
7.18869e-08
0.00419984
1.7413e-07
0.00419975
4.03403e-07
0.00419955
9.16798e-07
0.00419909
2.07892e-06
0.00419801
4.78515e-06
0.00419542
1.14522e-05
0.00418865
2.94843e-05
0.00416895
8.42117e-05
0.00409836
0.000304336
0.00367307
0.00205883
0.00310067
0.00313437
0.0025699
0.0037182
0.00201678
0.00382724
0.00141157
0.00387842
0.000682125
0.00375335
0.00444132
0.0041999
1.69137e-09
0.0041999
1.04028e-08
0.00419989
3.42414e-08
0.00419988
9.11512e-08
0.00419983
2.20919e-07
0.00419973
5.12203e-07
0.00419949
1.16519e-06
0.00419894
2.64506e-06
0.00419767
6.09516e-06
0.00419461
1.46042e-05
0.00418661
3.76479e-05
0.00416329
0.000107755
0.00408056
0.000387897
0.00361127
0.00253161
0.00303693
0.00371141
0.00254962
0.00420598
0.00201362
0.00436317
0.00142154
0.00447021
0.000689307
0.00448585
0.00513204
0.0041999
2.10683e-09
0.0041999
1.29567e-08
0.00419989
4.26502e-08
0.00419987
1.13575e-07
0.00419982
2.75435e-07
0.0041997
6.39148e-07
0.00419942
1.4555e-06
0.00419878
3.30792e-06
0.00419729
7.63176e-06
0.00419369
1.83072e-05
0.00418427
4.72545e-05
0.00415675
0.000135554
0.00405915
0.000486421
0.00351699
0.00307774
0.00300542
0.00422513
0.00253497
0.00467644
0.00201419
0.00488386
0.00142682
0.00505741
0.000697239
0.00521552
0.00582984
0.0041999
2.58454e-09
0.0041999
1.58927e-08
0.00419989
5.23182e-08
0.00419987
1.3937e-07
0.00419981
3.38206e-07
0.00419967
7.85494e-07
0.00419934
1.79066e-06
0.0041986
4.07432e-06
0.00419688
9.41052e-06
0.00419271
2.25968e-05
0.00418181
5.83833e-05
0.00414986
0.000167816
0.00403782
0.000599753
0.0034183
0.00370177
0.00299283
0.00465181
0.00252069
0.00514875
0.00201521
0.00538909
0.00143981
0.00563218
0.00071277
0.00594289
0.00654411
0.0041999
3.12523e-09
0.0041999
1.92153e-08
0.00419989
6.32603e-08
0.00419986
1.68579e-07
0.00419979
4.09343e-07
0.00419963
9.51524e-07
0.00419927
2.17134e-06
0.00419843
4.94569e-06
0.00419648
1.14337e-05
0.00419174
2.74718e-05
0.0041794
7.0999e-05
0.00414329
0.000204293
0.00402086
0.000723796
0.00337525
0.00435239
0.00291085
0.00511731
0.00250671
0.00555273
0.00202238
0.00587329
0.00145382
0.00620076
0.000732522
0.00666432
0.00727755
0.0041999
3.72593e-09
0.0041999
2.2906e-08
0.00419989
7.54159e-08
0.00419986
2.01047e-07
0.00419978
4.88505e-07
0.0041996
1.13655e-06
0.0041992
2.59627e-06
0.00419826
5.91978e-06
0.00419608
1.36974e-05
0.0041908
3.29252e-05
0.00417704
8.50845e-05
0.00413687
0.000244901
0.00400561
0.000856997
0.00332497
0.00503905
0.00285679
0.00558583
0.00249839
0.00591031
0.00203593
0.006335
0.00147563
0.00676061
0.000755572
0.0073849
0.00803465
0.0041999
4.37759e-09
0.0041999
2.69088e-08
0.00419989
8.86017e-08
0.00419985
2.36297e-07
0.00419977
5.74567e-07
0.00419958
1.33808e-06
0.00419914
3.06005e-06
0.00419812
6.98498e-06
0.00419574
1.61757e-05
0.00418997
3.88925e-05
0.00417499
0.000100455
0.00413133
0.000289099
0.00399259
0.00099796
0.00328176
0.00575706
0.00281622
0.00605068
0.00250015
0.00622508
0.00205847
0.00677601
0.00150447
0.00731425
0.000786481
0.00810306
0.00882209
0.0041999
5.0624e-09
0.0041999
3.11138e-08
0.00419989
1.02457e-07
0.00419985
2.73376e-07
0.00419977
6.65268e-07
0.00419956
1.551e-06
0.0041991
3.55144e-06
0.00419802
8.11662e-06
0.0041955
1.88133e-05
0.00418939
4.52427e-05
0.00417354
0.000116765
0.00412734
0.000335952
0.00398613
0.00114181
0.00325866
0.00649307
0.00279459
0.00651311
0.00251233
0.00650551
0.00209305
0.00719443
0.00154319
0.0078634
0.000822724
0.00882403
0.00964612
0.0041999
5.75021e-09
0.0041999
3.53354e-08
0.00419989
1.16371e-07
0.00419985
3.10666e-07
0.00419977
7.56703e-07
0.00419956
1.76634e-06
0.00419909
4.05022e-06
0.004198
9.26934e-06
0.00419545
2.15066e-05
0.00418924
5.17282e-05
0.00417319
0.00013337
0.0041264
0.000383519
0.00398934
0.00128196
0.00328357
0.00720912
0.0028117
0.00698207
0.00253974
0.00677523
0.00214167
0.00759196
0.00159682
0.00840772
0.000870541
0.00955053
0.0105176
0.0041999
6.39551e-09
0.0041999
3.92942e-08
0.00419989
1.29423e-07
0.00419986
3.45705e-07
0.00419978
8.42857e-07
0.00419959
1.96997e-06
0.00419915
4.52382e-06
0.00419812
1.0368e-05
0.00419571
2.40796e-05
0.00418985
5.79163e-05
0.00417475
0.000149118
0.00413064
0.000428557
0.00400961
0.00140643
0.00338881
0.00784261
0.00288476
0.00748208
0.00258503
0.00707193
0.00220907
0.00796695
0.00166415
0.00895205
0.000928808
0.0102864
0.0114476
0.0041999
6.93837e-09
0.0041999
4.26231e-08
0.00419989
1.40404e-07
0.00419986
3.75231e-07
0.0041998
9.15647e-07
0.00419964
2.14259e-06
0.00419928
4.92673e-06
0.00419842
1.13053e-05
0.00419641
2.62742e-05
0.00419154
6.31645e-05
0.00417913
0.000162271
0.00414334
0.000465442
0.00404987
0.00150363
0.00361745
0.0082906
0.00299549
0.00809766
0.00266188
0.00740115
0.00230986
0.00831836
0.00174077
0.00952072
0.00100355
0.011024
0.0124523
0.0041999
7.31253e-09
0.0041999
4.49172e-08
0.0041999
1.47976e-07
0.00419988
3.9561e-07
0.00419984
9.65944e-07
0.00419974
2.26201e-06
0.0041995
5.20558e-06
0.00419894
1.19527e-05
0.00419764
2.77787e-05
0.00419454
6.66891e-05
0.00418689
0.000170754
0.00416512
0.000488487
0.0041211
0.00155142
0.00399826
0.00843225
0.00321037
0.00887568
0.00275027
0.00785534
0.00240228
0.00866556
0.00188413
0.0100389
0.00114453
0.011764
0.013598
0.0041999
7.4626e-09
0.0041999
4.58396e-08
0.0041999
1.51019e-07
0.0041999
4.03742e-07
0.00419989
9.85728e-07
0.00419986
2.30794e-06
0.0041998
5.30931e-06
0.00419967
1.2181e-05
0.0041994
2.82589e-05
0.00419894
6.75996e-05
0.00419863
0.000171978
0.00420068
0.000487847
0.00421453
0.00154113
0.00455265
0.008116
0.00358859
0.00982691
0.00287336
0.00856394
0.00251079
0.00902738
0.00200317
0.0105468
0.00123874
0.0125287
0.0148379
0.0041999
7.37033e-09
0.00419991
4.52883e-08
0.00419991
1.49211e-07
0.00419992
3.98731e-07
0.00419994
9.72649e-07
0.00419999
2.27441e-06
0.00420012
5.22299e-06
0.00420044
1.19535e-05
0.00420129
2.76299e-05
0.00420363
6.57137e-05
0.00421082
0.000165716
0.00423454
0.000465608
0.00434528
0.00143319
0.00521615
0.00726931
0.00397062
0.011057
0.00303296
0.00949358
0.00265005
0.00940893
0.00216102
0.0110364
0.00136891
0.0133213
0.0162079
0.00419991
7.13262e-09
0.00419991
4.36915e-08
0.00419991
1.43535e-07
0.00419993
3.82778e-07
0.00419998
9.31822e-07
0.0042001
2.17346e-06
0.00420039
4.97452e-06
0.0042011
1.13321e-05
0.00420291
2.60144e-05
0.00420783
6.12193e-05
0.00422249
0.000151914
0.00427255
0.000417005
0.00435338
0.00135379
0.00592249
0.00572545
0.00425071
0.0127125
0.00321002
0.0105258
0.00284066
0.00977704
0.00235843
0.0115191
0.00155401
0.0141263
0.0177631
0.0167996
4.45682e-09
0.0167996
2.79298e-08
0.0167997
9.34302e-08
0.0167998
2.50807e-07
0.0168002
6.10595e-07
0.016801
1.41829e-06
0.0168028
3.22184e-06
0.016807
7.25863e-06
0.016817
1.63934e-05
0.0168413
3.75996e-05
0.0169052
8.94905e-05
0.0170953
0.000229775
0.0177625
0.000685642
0.0215809
0.00192843
0.0220006
0.0122723
0.0193806
0.0131254
0.0157871
0.0133681
0.015158
0.0121548
0.0164119
0.0128766
0.0116489
0.0225309
0.0167996
3.97629e-09
0.0167996
2.45984e-08
0.0167996
8.14292e-08
0.0167997
2.1765e-07
0.0167998
5.29295e-07
0.0168
1.23026e-06
0.0168005
2.79921e-06
0.0168016
6.31873e-06
0.016804
1.42945e-05
0.0168095
3.28062e-05
0.0168225
7.79638e-05
0.016856
0.000199126
0.0169577
0.000587573
0.0169158
0.00198937
0.0185873
0.0106535
0.0197018
0.0120164
0.0202587
0.0128157
0.0195196
0.0128928
0.0198143
0.012584
0.010278
0.0211846
0.0167996
4.13552e-09
0.0167996
2.49989e-08
0.0167996
8.1162e-08
0.0167996
2.15069e-07
0.0167997
5.21479e-07
0.0167997
1.21216e-06
0.0167999
2.76175e-06
0.0168002
6.24138e-06
0.0168009
1.4104e-05
0.0168028
3.21459e-05
0.0168083
7.49788e-05
0.016828
0.00018446
0.0169103
0.000514054
0.0168748
0.00204123
0.0226534
0.00499785
0.0220506
0.0126165
0.0214768
0.013382
0.0210744
0.0132823
0.021458
0.0121842
0.0103168
0.021415
0.0167996
2.57393e-09
0.0167996
1.60915e-08
0.0167997
5.37272e-08
0.0167997
1.44112e-07
0.0167999
3.50726e-07
0.0168003
8.14333e-07
0.0168013
1.84747e-06
0.0168035
4.14646e-06
0.0168086
9.27488e-06
0.0168204
2.08042e-05
0.0168493
4.71938e-05
0.0169259
0.00011003
0.0171714
0.000273277
0.0183878
0.000818409
0.0211938
0.00221494
0.0221277
0.0116993
0.0233601
0.0121616
0.0237288
0.0129173
0.0228215
0.0130827
0.0107159
0.0224071
0.0167996
2.1209e-09
0.0167996
1.29539e-08
0.0167996
4.24242e-08
0.0167997
1.12827e-07
0.0167998
2.73757e-07
0.0167999
6.35513e-07
0.0168004
1.44363e-06
0.0168013
3.24594e-06
0.0168034
7.27122e-06
0.0168081
1.63078e-05
0.0168189
3.68468e-05
0.0168451
8.48687e-05
0.0169154
0.000204865
0.0171734
0.000562626
0.0171453
0.00224787
0.0237033
0.00517126
0.0238941
0.0119832
0.0241334
0.0126883
0.0244871
0.0127334
0.0115703
0.0236305
0.0167996
1.32701e-09
0.0167996
8.17141e-09
0.0167996
2.69451e-08
0.0167997
7.18776e-08
0.0167998
1.74575e-07
0.0168
4.05197e-07
0.0168006
9.195e-07
0.0168018
2.06345e-06
0.0168045
4.60661e-06
0.0168106
1.02662e-05
0.0168247
2.29013e-05
0.0168586
5.13294e-05
0.0169476
0.000116601
0.0172351
0.000276215
0.0186833
0.000802162
0.0213917
0.0024672
0.0241657
0.00922214
0.0260387
0.0108261
0.0268307
0.0119525
0.0142136
0.024191
0.0167996
5.95061e-10
0.0167996
3.79211e-09
0.0167996
1.28516e-08
0.0167997
3.46663e-08
0.0167998
8.44133e-08
0.0168
1.95466e-07
0.0168005
4.41164e-07
0.0168016
9.82666e-07
0.016804
2.17427e-06
0.0168095
4.79621e-06
0.0168219
1.0574e-05
0.0168501
2.33625e-05
0.0169151
5.19787e-05
0.0170743
0.000117815
0.0175921
0.000285315
0.0191533
0.000909263
0.0261296
0.00225052
0.0254573
0.0115135
0.0272314
0.0101929
0.0123431
0.0291142
0.0167996
4.17438e-10
0.0167996
2.56304e-09
0.0167996
8.42918e-09
0.0167996
2.24449e-08
0.0167997
5.44196e-08
0.0167997
1.26057e-07
0.0167999
2.85365e-07
0.0168003
6.38553e-07
0.016801
1.42075e-06
0.0168027
3.15331e-06
0.0168064
6.99636e-06
0.0168145
1.55517e-05
0.0168322
3.47594e-05
0.0168722
7.87607e-05
0.0169746
0.000184875
0.0173994
0.000487913
0.0179441
0.00171202
0.0254291
0.00405847
0.0263809
0.00925941
0.00981654
0.0289248
0.0167996
2.2907e-10
0.0167996
1.42582e-09
0.0167996
4.74296e-09
0.0167996
1.26964e-08
0.0167997
3.08543e-08
0.0167997
7.15282e-08
0.0167998
1.61929e-07
0.0168001
3.62188e-07
0.0168008
8.05198e-07
0.0168022
1.78471e-06
0.0168053
3.95033e-06
0.0168122
8.74021e-06
0.016828
1.93455e-05
0.0168645
4.28914e-05
0.0169552
9.56104e-05
0.0172284
0.000217372
0.0183729
0.000571892
0.0206483
0.00179221
0.0259006
0.00404155
0.00826476
0.0274649
0.0167996
1.14168e-10
0.0167996
7.10049e-10
0.0167996
2.36001e-09
0.0167996
6.31248e-09
0.0167997
1.53241e-08
0.0167997
3.54743e-08
0.0167998
8.01633e-08
0.0168
1.78919e-07
0.0168004
3.96797e-07
0.0168013
8.77099e-07
0.0168033
1.9354e-06
0.0168078
4.26618e-06
0.0168179
9.39563e-06
0.0168403
2.06674e-05
0.0168909
4.53675e-05
0.0170098
9.93144e-05
0.017363
0.000219628
0.018604
0.000554073
0.0210586
0.00158678
0.00224096
0.0270938
0.0167996
3.31164e-11
0.0167996
2.18967e-10
0.0167996
7.62636e-10
0.0167996
2.07695e-09
0.0167996
5.05827e-09
0.0167997
1.16472e-08
0.0167997
2.6037e-08
0.0167998
5.72765e-08
0.0168001
1.24868e-07
0.0168007
2.70796e-07
0.0168021
5.85342e-07
0.0168051
1.26241e-06
0.0168118
2.71802e-06
0.0168267
5.844e-06
0.0168596
1.25541e-05
0.0169322
2.6982e-05
0.0170941
5.83544e-05
0.0175178
0.000131714
0.0187392
0.000367698
0.000817356
0.0201634
0.0167996
1.57202e-11
0.0167996
9.81583e-11
0.0167996
3.27185e-10
0.0167996
8.75446e-10
0.0167996
2.12121e-09
0.0167996
4.89102e-09
0.0167997
1.09883e-08
0.0167997
2.43452e-08
0.0167998
5.35305e-08
0.0167999
1.17213e-07
0.0168002
2.56069e-07
0.016801
5.58742e-07
0.0168025
1.21855e-06
0.0168057
2.65759e-06
0.0168125
5.79987e-06
0.0168267
1.26789e-05
0.0168572
2.78299e-05
0.0169271
6.17541e-05
0.0171527
0.000141765
0.000371474
0.017608
0.0167996
4.30718e-12
0.0167996
2.87266e-11
0.0167996
1.00686e-10
0.0167996
2.74938e-10
0.0167996
6.70175e-10
0.0167996
1.54268e-09
0.0167996
3.44457e-09
0.0167997
7.56363e-09
0.0167997
1.64518e-08
0.0167998
3.55842e-08
0.0168
7.66881e-08
0.0168003
1.64835e-07
0.0168012
3.53532e-07
0.0168032
7.56854e-07
0.0168074
1.61806e-06
0.0168167
3.45714e-06
0.016837
7.39252e-06
0.0168823
1.58643e-05
0.0169882
3.43535e-05
7.79975e-05
0.0172802
0.0167996
2.26094e-12
0.0167996
1.43956e-11
0.0167996
4.87308e-11
0.0167996
1.31183e-10
0.0167996
3.18297e-10
0.0167996
7.33027e-10
0.0167996
1.64227e-09
0.0167996
3.62482e-09
0.0167996
7.93534e-09
0.0167997
1.72931e-08
0.0167997
3.75917e-08
0.0167998
8.16024e-08
0.0167999
1.76998e-07
0.0168003
3.8373e-07
0.016801
8.31782e-07
0.0168028
1.80386e-06
0.0168067
3.92056e-06
0.0168153
8.57231e-06
0.0168335
1.90264e-05
4.35244e-05
0.0168718
0.0167996
2.27557e-12
0.0167996
1.36552e-11
0.0167996
4.40569e-11
0.0167996
1.16458e-10
0.0167996
2.82186e-10
0.0167996
6.55839e-10
0.0167996
1.49335e-09
0.0167996
3.36664e-09
0.0167996
7.55448e-09
0.0167996
1.69179e-08
0.0167996
3.78608e-08
0.0167996
8.47263e-08
0.0167996
1.89657e-07
0.0167995
4.24736e-07
0.0167993
9.51756e-07
0.0167989
2.13434e-06
0.0167983
4.79352e-06
0.0167978
1.07959e-05
0.0167982
2.45278e-05
5.69625e-05
0.016798
0.0167996
9.13009e-13
0.0167996
5.89586e-12
0.0167996
2.02179e-11
0.0167996
5.4965e-11
0.0167996
1.34652e-10
0.0167996
3.13404e-10
0.0167996
7.10649e-10
0.0167996
1.58987e-09
0.0167996
3.5325e-09
0.0167996
7.8225e-09
0.0167997
1.72978e-08
0.0167997
3.82389e-08
0.0167998
8.45634e-08
0.0168
1.87162e-07
0.0168004
4.1472e-07
0.0168013
9.20379e-07
0.0168034
2.04581e-06
0.0168085
4.56238e-06
0.0168228
1.01773e-05
2.2785e-05
0.0168631
0.0167996
6.63097e-13
0.0167996
4.17098e-12
0.0167996
1.4014e-11
0.0167996
3.7751e-11
0.0167996
9.21675e-11
0.0167996
2.14596e-10
0.0167996
4.88185e-10
0.0167996
1.09831e-09
0.0167996
2.45856e-09
0.0167996
5.49207e-09
0.0167996
1.22596e-08
0.0167997
2.7361e-08
0.0167997
6.10592e-08
0.0167998
1.36241e-07
0.0167999
3.03933e-07
0.0168002
6.77956e-07
0.0168008
1.51287e-06
0.0168018
3.38212e-06
0.0168033
7.597e-06
1.7289e-05
0.0168048
0.0167996
7.56198e-13
0.0167996
4.47845e-12
0.0167996
1.4246e-11
0.0167996
3.71765e-11
0.0167996
8.89215e-11
0.0167996
2.039e-10
0.0167996
4.57835e-10
0.0167996
1.01746e-09
0.0167996
2.25024e-09
0.0167996
4.96693e-09
0.0167996
1.09582e-08
0.0167997
2.41839e-08
0.0167997
5.34159e-08
0.0167997
1.18127e-07
0.0167999
2.61665e-07
0.0168
5.80848e-07
0.0168003
1.29279e-06
0.0168008
2.88789e-06
0.0168014
6.48175e-06
1.47025e-05
0.0168024
0.0167996
2.14151e-13
0.0167996
1.4003e-12
0.0167996
4.84168e-12
0.0167996
1.32134e-11
0.0167996
3.24425e-11
0.0167996
7.55851e-11
0.0167996
1.71248e-10
0.0167996
3.81814e-10
0.0167996
8.42726e-10
0.0167996
1.84694e-09
0.0167996
4.02581e-09
0.0167997
8.73496e-09
0.0167997
1.88739e-08
0.0167998
4.06181e-08
0.0168001
8.70653e-08
0.0168007
1.85883e-07
0.016802
3.9543e-07
0.0168049
8.38527e-07
0.0168111
1.77624e-06
3.77362e-06
0.0168248
0.0167996
0.0167996
0.0167996
0.0167996
0.0167996
0.0167996
0.0167996
0.0167996
0.0167996
0.0167996
0.0167996
0.0167996
0.0167997
0.0167997
0.0167998
0.0168
0.0168005
0.0168014
0.0168026
0.0168069
0.0113512
0.0111894
0.00622255
0.00513582
0.00362405
0.00262172
0.00328915
0.000354225
0.00710266
-0.00379281
0.00692735
0.000199594
0.00621898
0.000727779
0.00574706
0.00048535
0.00578269
-3.43814e-05
0.0072059
-0.00149024
0.00569365
0.00125836
0.00339921
0.0020925
0.00388643
-0.000773169
0.00409917
-0.000591256
0.00496801
-0.00112509
0.00714387
-0.00201218
0.00898069
-0.0017648
0.00961715
-0.00108854
0.00983831
-0.000289949
0.00043986
0.0119305
0.0204568
0.00840099
0.00867587
0.00861073
0.00242519
0.00855158
0.000429113
0.00605808
-0.00127746
0.00690389
-0.000624513
0.00722422
0.000426148
0.00726814
0.000438548
0.00886038
-0.00162028
0.00936706
-0.00194623
0.00749479
0.00297724
0.00596816
0.00349318
0.00524164
-0.000175431
0.00640868
-0.0019192
0.00821138
-0.00309638
0.0100747
-0.00387434
0.0111997
-0.00245774
0.0117256
-0.00164398
0.011814
-0.000371843
0.000389242
0.0168476
0.025036
0.0141841
0.0113544
0.0115524
0.00508613
0.0101239
0.00187832
0.00779331
0.0010731
0.0070442
0.00013681
0.00883414
-0.00135571
0.0115593
-0.00225991
0.0124334
-0.00246904
0.0116002
-0.00102351
0.00850745
0.00604347
0.0100722
0.00198374
0.00864886
0.00133087
0.00900509
-0.00219337
0.0116442
-0.00539355
0.0123432
-0.0044874
0.0128978
-0.00299543
0.0134462
-0.00206673
0.0137288
-0.000722329
0.000719364
0.0197786
0.0276506
0.0159681
0.0151727
0.0130572
0.00801682
0.0109013
0.00404918
0.00957284
0.00241625
0.00974228
-1.53678e-05
0.00977383
-0.00136362
0.00975103
-0.00220193
0.00990196
-0.00257011
0.0103691
-0.00135753
0.0105097
0.00599367
0.0103362
0.00217803
0.0119368
-0.000231445
0.0136583
-0.00379535
0.0138685
-0.00523914
0.0140812
-0.00436975
0.0146418
-0.00363726
0.015075
-0.0023661
0.0151031
-0.000849134
0.000798709
0.0209887
0.0302812
0.0174241
0.018757
0.0145002
0.0109589
0.0125468
0.00601519
0.0114089
0.00358892
0.00994162
0.00149028
0.00919831
-0.000576764
0.00928279
-0.00223021
0.00991344
-0.00313109
0.00997436
-0.00125792
0.0123296
0.00377575
0.011637
0.00283671
0.015698
-0.00428488
0.0164851
-0.00451106
0.0154837
-0.00402549
0.0159352
-0.004646
0.0165833
-0.00403677
0.0168694
-0.00261411
0.0169223
-0.000747938
0.000927468
0.0218956
0.0325832
0.0187664
0.0218762
0.0159228
0.0138248
0.0137829
0.00816686
0.0122967
0.00514969
0.0113248
0.0025067
0.0108785
-7.64825e-05
0.0107853
-0.00207139
0.0111431
-0.003413
0.013361
-0.00328941
0.0179743
-0.000711449
0.0189054
0.00161983
0.0168015
-0.00234755
0.01708
-0.00487151
0.0178303
-0.00486981
0.018475
-0.00527789
0.0187542
-0.00426014
0.0187368
-0.00252589
0.0186037
-0.000571418
0.00121932
0.0230506
0.0386402
0.0198364
0.0250963
0.0171634
0.0165387
0.0150292
0.0103147
0.0136034
0.00663885
0.0125931
0.00355509
0.0118352
0.000734473
0.0114339
-0.00159927
0.0114948
-0.00340549
0.0128721
-0.00461349
0.0166418
-0.00439663
0.0220982
-0.00390066
0.0217657
-0.00207782
0.0192782
-0.00244404
0.0203069
-0.00567469
0.0210439
-0.00588693
0.0207502
-0.00389555
0.0203464
-0.0019994
0.0199915
-0.000227087
0.00155024
0.0232716
0.0442982
0.0208313
0.0275429
0.0183447
0.0190476
0.0163361
0.0123626
0.0151156
0.00790497
0.0136626
0.00503971
0.0124277
0.0020129
0.0116725
-0.000783497
0.0113871
-0.00304353
0.0121257
-0.00524023
0.014805
-0.00697824
0.0197289
-0.00857642
0.023998
-0.00597449
0.0263411
-0.00441426
0.0247809
-0.0037241
0.0232345
-0.00400167
0.0224351
-0.00290624
0.0217203
-0.00144679
0.0211569
0.000336931
0.00193096
0.0268668
0.0449263
0.0223389
0.03196
0.0198037
0.0215422
0.0178321
0.014387
0.0163393
0.00949562
0.0149357
0.00640472
0.0136231
0.00330661
0.0125975
0.000211734
0.0122141
-0.00272781
0.0135377
-0.00659715
0.0180504
-0.0118464
0.0212913
-0.0118948
0.025227
-0.00937094
0.0277429
-0.00626206
0.0277894
-0.00318906
0.0255067
-0.00125854
0.0242116
-0.00127601
0.0231649
-0.000277782
0.0223048
0.000998709
0.00230678
0.0371385
0.0348284
0.0260166
0.0430803
0.0215328
0.0260068
0.0195655
0.0164089
0.0176137
0.0115926
0.0160466
0.00774624
0.0148638
0.00427005
0.013984
0.000821886
0.0139384
-0.0030554
0.0164384
-0.0095503
0.020977
-0.0165426
0.0225692
-0.0122671
0.0256476
-0.0122091
0.0278021
-0.00821014
0.0290355
-0.00404527
0.0285667
-0.000343402
0.0257259
0.00193595
0.0243997
0.00131446
0.0234212
0.00178045
0.0026373
0.0253108
0.0299467
0.0342572
0.034201
0.0283735
0.0319378
0.0215243
0.0232675
0.0190448
0.0141658
0.0170492
0.00912342
0.0159294
0.00482711
0.0151503
0.001029
0.0157897
-0.00415032
0.0202379
-0.0143818
0.0216789
-0.0177881
0.023372
-0.0146945
0.0254053
-0.0142958
0.0275222
-0.0107141
0.0288349
-0.00576846
0.0290768
-0.000940306
0.0277937
0.00321682
0.0252872
0.00429994
0.0243315
0.00286005
0.00316218
0.0283327
0.0191521
0.0289761
0.0334385
0.0281848
0.0327138
0.0245527
0.0268689
0.0208693
0.0180797
0.018293
0.0114305
0.0167793
0.00615603
0.0152622
0.00244042
0.020533
-0.00931887
0.0219887
-0.0159185
0.0230252
-0.0185537
0.0247652
-0.0166403
0.0266002
-0.016298
0.0270433
-0.0117673
0.0275756
-0.00671717
0.0274651
-0.00229654
0.0276882
0.00148758
0.0274986
0.00412126
0.025406
0.00540206
0.00406551
0.0312225
0.00521343
0.0268534
0.0379303
0.0282608
0.0312182
0.0263506
0.0285947
0.0226429
0.0220169
0.0193091
0.0148869
0.0167704
0.00888189
0.0203807
-0.000810466
0.0230348
-0.0112217
0.0243471
-0.0172739
0.0251959
-0.0196206
0.0292146
-0.0198585
0.0287906
-0.0152474
0.0259016
-0.0105427
0.0254412
-0.00689002
0.0255267
-0.00311268
0.0263022
0.000360542
0.0271513
0.00335885
0.0271062
0.00594371
0.00643519
0.0186042
0.00346368
0.0267934
0.0298586
0.0258712
0.0321913
0.0253706
0.0293863
0.0226441
0.0248813
0.0191799
0.0184237
0.0204668
0.00778973
0.0245215
-0.00416677
0.0265557
-0.012494
0.0276927
-0.0179623
0.030341
-0.0215552
0.0285952
-0.0159771
0.027002
-0.0126891
0.0254483
-0.0101084
0.0246959
-0.00650165
0.0246083
-0.00330602
0.0249788
-0.000262121
0.0255204
0.00264229
0.0263937
0.00529802
0.00794697
0.016535
0.00388161
0.0281514
0.0185815
0.027068
0.0335321
0.0264284
0.0302494
0.0252194
0.0261741
0.0259224
0.0181488
0.0261795
0.00820083
0.0280891
-0.00542305
0.0312153
-0.0148972
0.0329815
-0.0200469
0.0305456
-0.0205512
0.0278857
-0.0129907
0.0265369
-0.0111618
0.0253328
-0.00911732
0.0242601
-0.00599142
0.0238787
-0.00335589
0.0240665
-0.000848807
0.0245836
0.00164916
0.0251526
0.00414713
0.00655144
0.0195519
0.0014432
0.0325061
0.00620961
0.0282525
0.0384668
0.0284432
0.0299376
0.0293476
0.0256744
0.0290636
0.0187443
0.0322156
0.00521634
0.0349234
-0.00811489
0.0365617
-0.0167562
0.0408378
-0.0254865
0.0299659
-0.0119196
0.0284209
-0.010343
0.0267631
-0.00930591
0.0252176
-0.00782934
0.0239293
-0.00518932
0.0232434
-0.00305745
0.0231002
-0.00103435
0.0234794
0.000937853
0.0242705
0.00300487
0.00513687
0.0173102
0.000811492
0.0179217
0.00535608
0.0286564
0.0283264
0.0314725
0.0273543
0.0345231
0.0232165
0.03638
0.015074
0.0393568
0.000110669
0.0429609
-0.0137219
0.0477424
-0.0221682
0.0337571
-0.0117219
0.0305705
-0.0095056
0.0288311
-0.00793143
0.027073
-0.00737262
0.0251564
-0.00620271
0.0235181
-0.00396952
0.0227761
-0.00270536
0.0225478
-0.00107833
0.0228239
0.000465003
0.0234672
0.00208474
0.00401887
0.0167238
0.000750045
0.0175979
0.00399897
0.0334489
0.0108195
0.037644
0.0229041
0.0391792
0.0220476
0.0460951
0.0087748
0.0516587
-0.00486497
0.0504708
-0.0120613
0.0396273
-0.010796
0.0343837
-0.0074167
0.0307632
-0.0061757
0.028857
-0.00543892
0.0271504
-0.00516902
0.0250515
-0.00426443
0.0234615
-0.00279861
0.0220521
-0.00165574
0.0215196
-0.000836655
0.0218348
-3.89852e-05
0.0225503
0.0011585
0.00284804
0.0174708
0.000118602
0.0198152
0.00149992
0.0261812
0.00563179
0.0468118
0.0028009
0.0475481
0.0199442
0.0475465
0.00838377
0.0520817
-0.00895505
0.0474903
-0.00637444
0.0394398
-0.0022145
0.0339429
-0.00311517
0.0305432
-0.00316117
0.0287447
-0.00301601
0.0270695
-0.00267897
0.0249186
-0.00217091
0.0231512
-0.00144401
0.0217409
-0.000672852
0.0209509
-0.000344188
0.02074
-4.71341e-05
0.0212605
0.000434923
0.00134312
0.0168003
0.0184116
0.02433
0.026458
0.0468105
0.0561821
0.0480408
0.0414865
0.0379865
0.033458
0.0301632
0.0282681
0.0266243
0.0244276
0.0225491
0.0214485
0.0206786
0.0203062
0.0204326
)
;

boundaryField
{
    inlet
    {
        type            calculated;
        value           nonuniform List<scalar> 
40
(
-0.0041999
-0.0041999
-0.0041999
-0.0041999
-0.0041999
-0.0041999
-0.0041999
-0.0041999
-0.0041999
-0.0041999
-0.0041999
-0.0041999
-0.0041999
-0.0041999
-0.0041999
-0.0041999
-0.0041999
-0.0041999
-0.0041999
-0.0041999
-0.0167996
-0.0167996
-0.0167996
-0.0167996
-0.0167996
-0.0167996
-0.0167996
-0.0167996
-0.0167996
-0.0167996
-0.0167996
-0.0167996
-0.0167996
-0.0167996
-0.0167996
-0.0167996
-0.0167996
-0.0167996
-0.0167996
-0.0167996
)
;
    }
    outlet
    {
        type            calculated;
        value           nonuniform List<scalar> 
20
(
0.0095645
0.0116039
0.0136847
0.0151308
0.016706
0.0183763
0.0196659
0.0207768
0.0217658
0.0227014
0.0235607
0.0242793
0.0248001
0.0250649
0.0247822
0.0245323
0.0241018
0.0233506
0.0225473
0.0214921
)
;
    }
    top
    {
        type            symmetryPlane;
        value           uniform 0;
    }
    bottom
    {
        type            symmetryPlane;
        value           uniform 0;
    }
    step
    {
        type            calculated;
        value           uniform 0;
    }
    defaultFaces
    {
        type            empty;
        value           nonuniform 0();
    }
}


// ************************************************************************* //
