/*--------------------------------*- C++ -*----------------------------------*\
  =========                 |
  \\      /  F ield         | OpenFOAM: The Open Source CFD Toolbox
   \\    /   O peration     | Website:  https://openfoam.org
    \\  /    A nd           | Version:  6.0
     \\/     M anipulation  |
\*---------------------------------------------------------------------------*/
FoamFile
{
    version     2.0;
    format      ascii;
    class       volScalarField;
    location    "4";
    object      T;
}
// * * * * * * * * * * * * * * * * * * * * * * * * * * * * * * * * * * * * * //

dimensions      [0 0 0 1 0 0 0];

internalField   nonuniform List<scalar> 
1200
(
1.00005
1.00015
1.00038
1.00089
1.00201
1.0045
1.01005
1.02249
1.0507
1.11623
1.27504
1.70358
2.73588
2.78312
2.76781
2.76547
2.75914
2.77617
2.79298
2.79121
1.00005
1.00015
1.00038
1.00089
1.002
1.00449
1.01004
1.02247
1.05066
1.11613
1.2748
1.70299
2.73484
2.78268
2.76703
2.7647
2.75866
2.77565
2.79163
2.79032
1.00005
1.00015
1.00038
1.00088
1.002
1.00448
1.01002
1.02243
1.05056
1.11591
1.2743
1.70169
2.73243
2.78167
2.76523
2.76311
2.75791
2.77529
2.79085
2.78871
1.00005
1.00015
1.00038
1.00088
1.00199
1.00447
1.00999
1.02236
1.05041
1.11556
1.27349
1.69955
2.72822
2.78021
2.76228
2.76071
2.75682
2.77442
2.78912
2.78721
1.00005
1.00015
1.00038
1.00088
1.00198
1.00445
1.00994
1.02226
1.05019
1.11505
1.27231
1.6964
2.72233
2.77807
2.75969
2.75764
2.75491
2.77323
2.78712
2.78394
1.00005
1.00015
1.00038
1.00087
1.00197
1.00442
1.00988
1.02213
1.04989
1.11437
1.27071
1.69206
2.71446
2.77533
2.7561
2.755
2.75293
2.77052
2.78454
2.78176
1.00005
1.00015
1.00037
1.00086
1.00196
1.00439
1.0098
1.02195
1.0495
1.11348
1.2686
1.68631
2.70445
2.77183
2.75229
2.75114
2.7509
2.76857
2.78096
2.7773
1.00005
1.00015
1.00037
1.00086
1.00194
1.00434
1.0097
1.02173
1.049
1.11233
1.26589
1.67884
2.69217
2.76748
2.74791
2.74778
2.7478
2.76431
2.77683
2.77359
1.00005
1.00015
1.00036
1.00084
1.00191
1.00428
1.00958
1.02146
1.04838
1.11089
1.26245
1.66929
2.67699
2.7618
2.74307
2.74464
2.7452
2.76143
2.77177
2.7685
1.00005
1.00014
1.00036
1.00083
1.00188
1.00422
1.00943
1.02111
1.04761
1.10909
1.25816
1.65724
2.65809
2.75479
2.73889
2.73984
2.74105
2.75652
2.76614
2.76217
1.00005
1.00014
1.00035
1.00081
1.00184
1.00413
1.00924
1.0207
1.04666
1.1069
1.25292
1.64221
2.63751
2.74441
2.73791
2.73507
2.73673
2.75155
2.75951
2.75571
1.00004
1.00014
1.00034
1.00079
1.0018
1.00403
1.00902
1.02019
1.04553
1.10426
1.24656
1.62414
2.6101
2.73431
2.73485
2.72987
2.7311
2.74554
2.75172
2.74668
1.00004
1.00013
1.00033
1.00077
1.00175
1.00391
1.00875
1.0196
1.04418
1.10111
1.23897
1.60261
2.57596
2.72109
2.73337
2.72794
2.72548
2.73813
2.74321
2.73787
1.00004
1.00013
1.00032
1.00074
1.00168
1.00378
1.00844
1.01891
1.04261
1.09743
1.23006
1.57712
2.53638
2.70327
2.7304
2.72379
2.72013
2.72989
2.73249
2.72526
1.00004
1.00012
1.00031
1.00071
1.00161
1.00362
1.00809
1.01811
1.04079
1.09318
1.21972
1.5479
2.48297
2.68387
2.72902
2.72226
2.7122
2.72062
2.72113
2.71204
1.00004
1.00012
1.00029
1.00068
1.00154
1.00344
1.00769
1.01722
1.03875
1.08838
1.20801
1.51439
2.42312
2.65639
2.72509
2.71904
2.70604
2.70909
2.70651
2.69331
1.00004
1.00011
1.00028
1.00064
1.00145
1.00325
1.00726
1.01624
1.0365
1.0831
1.195
1.47823
2.33898
2.63072
2.72043
2.71613
2.69573
2.69751
2.69049
2.67126
1.00003
1.0001
1.00026
1.0006
1.00136
1.00305
1.0068
1.0152
1.03412
1.07746
1.18116
1.4389
2.25372
2.59449
2.70778
2.70909
2.68774
2.68068
2.67051
2.64
1.00003
1.0001
1.00024
1.00056
1.00127
1.00284
1.00633
1.01413
1.03168
1.07175
1.16697
1.40133
2.13221
2.57396
2.69665
2.699
2.67476
2.66624
2.64402
2.5984
1.00003
1.00009
1.00023
1.00052
1.00118
1.00264
1.00587
1.0131
1.02931
1.0662
1.15347
1.36334
2.04875
2.53204
2.66492
2.68723
2.66257
2.6439
2.61392
2.53638
1.00002
1.00007
1.00018
1.00043
1.00096
1.00215
1.00478
1.01063
1.02373
1.05332
1.12189
1.28758
1.72846
2.52175
2.62556
2.6124
2.60018
2.56819
2.48329
2.38857
1.00002
1.00006
1.00014
1.00033
1.00075
1.00168
1.00373
1.00832
1.01856
1.04168
1.09491
1.22235
1.55419
2.40171
2.57443
2.57274
2.55012
2.51241
2.41661
2.32692
1.00001
1.00004
1.00011
1.00025
1.00056
1.00125
1.00278
1.00619
1.0138
1.03092
1.06995
1.16236
1.38932
2.09598
2.4555
2.5277
2.49344
2.45335
2.36946
2.29438
1.00001
1.00003
1.00007
1.00016
1.00036
1.0008
1.00177
1.00392
1.00869
1.01934
1.04331
1.09844
1.23002
1.58641
2.25768
2.42931
2.42554
2.39669
2.3323
2.26511
1.00001
1.00002
1.00004
1.0001
1.00023
1.00052
1.00116
1.00258
1.00572
1.01273
1.02843
1.06414
1.14777
1.35677
1.94244
2.29721
2.35437
2.34278
2.29674
2.24907
1
1.00001
1.00003
1.00006
1.00013
1.00029
1.00065
1.00143
1.00317
1.00702
1.01558
1.03474
1.07849
1.18154
1.4589
2.01232
2.21138
2.24402
2.22034
2.20031
1
1.00001
1.00001
1.00003
1.00007
1.00015
1.00033
1.00073
1.0016
1.00352
1.00775
1.01713
1.03807
1.0857
1.20015
1.52457
2.01048
2.15686
2.15319
2.14104
1
1
1.00001
1.00002
1.00004
1.00009
1.00019
1.00043
1.00095
1.0021
1.00464
1.01028
1.02285
1.05124
1.11661
1.28058
1.70059
2.03393
2.07585
2.07393
1
1
1
1.00001
1.00002
1.00004
1.00009
1.00021
1.00046
1.00101
1.00222
1.00489
1.01079
1.02389
1.05351
1.12104
1.30715
1.68573
1.91453
1.95701
1
1
1
1
1.00001
1.00002
1.00004
1.00009
1.00019
1.00043
1.00093
1.00204
1.00447
1.00981
1.02162
1.04802
1.1095
1.271
1.59246
1.76751
1
1
1
1
1
1.00001
1.00001
1.00003
1.00006
1.00014
1.0003
1.00064
1.00138
1.00296
1.00637
1.01376
1.02991
1.0672
1.16646
1.3846
1
1
1
1
1
1
1.00001
1.00001
1.00003
1.00007
1.00015
1.00034
1.00074
1.00163
1.00357
1.00785
1.01727
1.03871
1.08309
1.24514
1
1
1
1
1
1
1
1.00001
1.00001
1.00003
1.00007
1.00015
1.00033
1.00072
1.00157
1.00342
1.00748
1.01644
1.0358
1.08464
1
1
1
1
1
1
1
1
1.00001
1.00002
1.00005
1.00011
1.00025
1.00055
1.00122
1.00271
1.00599
1.0133
1.02959
1.06724
1
1
1
1
1
1
1
1
1.00001
1.00002
1.00004
1.00009
1.0002
1.00044
1.00098
1.00218
1.00485
1.0108
1.02427
1.05344
1
1
1
1
1
1
1
1
1.00001
1.00001
1.00003
1.00006
1.00012
1.00027
1.00061
1.00134
1.00298
1.00651
1.0155
1.03038
1
1
1
1
1
1
1
1
1
1.00001
1.00002
1.00004
1.0001
1.00022
1.00049
1.00108
1.0024
1.0053
1.01195
1.0253
1
1
1
1
1
1
1
1
1
1.00001
1.00002
1.00004
1.00008
1.00017
1.00038
1.00085
1.00187
1.00414
1.00931
1.01971
1
1
1
1
1
1
1
1
1
1.00001
1.00001
1.00003
1.00006
1.00013
1.00029
1.00063
1.00139
1.00305
1.00681
1.01437
1
1
1
1
1
1
1
1
1
1.00001
1.00001
1.00002
1.00005
1.00012
1.00027
1.00059
1.00131
1.00289
1.00651
1.0138
2.22048
2.22057
2.36779
2.50247
2.41223
2.45002
2.47758
2.54255
2.6961
2.857
2.8324
2.86277
2.90408
2.97393
2.97182
2.91012
2.85119
2.81793
2.81064
2.79955
2.19311
2.22733
2.29894
2.29235
2.2491
2.25861
2.30491
2.40186
2.5051
2.67094
2.73061
2.80861
2.80798
2.79008
2.73896
2.61803
2.5526
2.53797
2.53989
2.58146
2.18501
2.17279
2.11811
2.08928
2.09765
2.11998
2.16572
2.21497
2.30151
2.51599
2.59112
2.67079
2.66394
2.63797
2.56842
2.469
2.42089
2.42109
2.41278
2.42448
2.1496
2.10895
2.07072
2.04139
2.06112
2.07539
2.09271
2.13443
2.23407
2.47681
2.57293
2.62048
2.6155
2.58235
2.51513
2.41448
2.3407
2.32707
2.33142
2.35403
2.12757
2.07595
2.04045
2.01696
2.02569
2.03811
2.05753
2.09673
2.1792
2.40822
2.53213
2.61859
2.56417
2.52427
2.45768
2.36646
2.28487
2.24154
2.23625
2.25948
2.10343
2.05442
2.01665
1.99054
1.99303
2.01083
2.03056
2.05934
2.11921
2.27315
2.42839
2.53768
2.49577
2.44533
2.36491
2.29786
2.22652
2.17905
2.15094
2.15509
2.07091
2.03651
2.00184
1.97498
1.97293
1.99389
2.01149
2.03632
2.08208
2.21191
2.35087
2.43147
2.39004
2.35576
2.28973
2.2208
2.16146
2.11546
2.07753
2.07665
2.03219
2.00154
1.98313
1.96684
1.96095
1.98356
2.00084
2.02174
2.06057
2.16461
2.25692
2.32394
2.27519
2.23902
2.20648
2.15317
2.0925
2.0728
2.03445
2.01546
1.98254
1.97362
1.95297
1.94393
1.9373
1.9603
1.97986
1.99769
2.03526
2.09763
2.15672
2.22145
2.17703
2.14706
2.1081
2.08367
2.03346
2.00165
1.97814
1.96093
1.90044
1.9397
1.94109
1.93213
1.91855
1.94178
1.96091
1.97782
2.01913
2.06499
2.09007
2.09086
2.06521
2.05979
2.04537
2.02114
1.97413
1.93512
1.92618
1.91529
1.8164
1.87694
1.8984
1.90163
1.89398
1.93607
1.95669
1.99195
2.03168
2.03706
2.02373
2.01269
1.96111
1.95628
1.96077
1.95899
1.94172
1.89925
1.88006
1.8811
1.72144
1.83421
1.86797
1.88426
1.89642
1.93881
1.97024
2.00667
2.03227
1.99477
1.96814
1.95082
1.90769
1.88343
1.88588
1.89905
1.89448
1.87546
1.8516
1.85015
1.6089
1.76391
1.8093
1.85524
1.88369
1.93189
1.97287
1.99915
1.99444
1.94514
1.92092
1.90011
1.86283
1.84133
1.82659
1.83078
1.84073
1.84367
1.83957
1.83921
1.54464
1.75557
1.78389
1.81188
1.87069
1.92468
1.99046
2.00655
1.97692
1.91004
1.88198
1.84057
1.8083
1.7813
1.78674
1.79296
1.80383
1.8131
1.83098
1.82324
1.44305
1.69283
1.75157
1.78117
1.84655
1.93674
1.99817
2.00206
1.94873
1.88785
1.86587
1.80985
1.75211
1.73459
1.7434
1.7594
1.76985
1.77961
1.8026
1.81145
1.25629
1.60003
1.72017
1.76829
1.86245
1.96776
2.0002
1.99332
1.93304
1.88303
1.8563
1.79039
1.7233
1.70704
1.71336
1.73224
1.74245
1.75265
1.77102
1.77836
1.16565
1.53137
1.71714
1.78715
1.93116
2.02896
2.02678
2.01022
1.9602
1.887
1.83223
1.77586
1.7068
1.68576
1.69069
1.71337
1.72834
1.73926
1.75101
1.76162
1.11857
1.42816
1.65892
1.81682
1.97374
2.04726
2.05544
2.03607
1.97614
1.87615
1.8265
1.78462
1.71424
1.68043
1.68237
1.7005
1.72446
1.74166
1.75545
1.75886
1.07923
1.30345
1.5998
1.81342
2.03419
2.10021
2.10757
2.04472
1.96657
1.90228
1.86811
1.81376
1.72194
1.67599
1.67672
1.68979
1.7176
1.73656
1.75404
1.75998
1.07626
1.26847
1.53817
2.03937
2.21103
2.18736
2.14998
2.10426
2.05095
1.99351
1.93396
1.84454
1.74453
1.69744
1.6994
1.7087
1.73996
1.75869
1.7794
1.78759
)
;

boundaryField
{
    inlet
    {
        type            fixedValue;
        value           uniform 1;
    }
    outlet
    {
        type            inletOutlet;
        inletValue      uniform 1;
        value           nonuniform List<scalar> 
20
(
2.79955
2.58146
2.42448
2.35403
2.25948
2.15509
2.07665
2.01546
1.96093
1.91529
1.8811
1.85015
1.83921
1.82324
1.81145
1.77836
1.76162
1.75886
1.75998
1.78759
)
;
    }
    top
    {
        type            symmetryPlane;
    }
    bottom
    {
        type            symmetryPlane;
    }
    step
    {
        type            zeroGradient;
    }
    defaultFaces
    {
        type            empty;
    }
}


// ************************************************************************* //
