/*--------------------------------*- C++ -*----------------------------------*\
  =========                 |
  \\      /  F ield         | OpenFOAM: The Open Source CFD Toolbox
   \\    /   O peration     | Website:  https://openfoam.org
    \\  /    A nd           | Version:  6.0
     \\/     M anipulation  |
\*---------------------------------------------------------------------------*/
FoamFile
{
    version     2.0;
    format      ascii;
    class       volVectorField;
    location    "4";
    object      U;
}
// * * * * * * * * * * * * * * * * * * * * * * * * * * * * * * * * * * * * * //

dimensions      [0 1 -1 0 0 0 0];

internalField   nonuniform List<vector> 
1200
(
(2.99996 2.01203e-08 0)
(2.99987 1.23523e-07 0)
(2.99969 4.05621e-07 0)
(2.99927 1.07662e-06 0)
(2.99835 2.59815e-06 0)
(2.9963 5.98361e-06 0)
(2.99172 1.34627e-05 0)
(2.98142 2.99736e-05 0)
(2.95788 6.6613e-05 0)
(2.90233 0.000149039 0)
(2.76193 0.000339518 0)
(2.35821 0.000805041 0)
(1.16629 0.00221217 0)
(0.274093 0.00636512 0)
(0.315561 0.0119099 0)
(0.396976 0.0203494 0)
(0.43691 0.0248775 0)
(0.361604 0.0258576 0)
(0.148724 0.0177341 0)
(-0.0291749 0.0315613 0)
(2.99996 6.14313e-08 0)
(2.99987 3.77132e-07 0)
(2.99969 1.23838e-06 0)
(2.99927 3.28684e-06 0)
(2.99835 7.93156e-06 0)
(2.9963 1.82654e-05 0)
(2.99173 4.10943e-05 0)
(2.98143 9.15018e-05 0)
(2.95792 0.000203466 0)
(2.90242 0.000456096 0)
(2.76215 0.00104481 0)
(2.35879 0.00251106 0)
(1.16765 0.00697876 0)
(0.275294 0.0202615 0)
(0.318171 0.0358073 0)
(0.400383 0.0553046 0)
(0.43744 0.0607581 0)
(0.360594 0.0577772 0)
(0.159119 0.0388883 0)
(-0.0269999 0.06332 0)
(2.99996 1.06051e-07 0)
(2.99987 6.51073e-07 0)
(2.99969 2.13808e-06 0)
(2.99927 5.67566e-06 0)
(2.99835 1.36996e-05 0)
(2.99631 3.15602e-05 0)
(2.99174 7.10431e-05 0)
(2.98147 0.000158315 0)
(2.958 0.000352527 0)
(2.90261 0.000792439 0)
(2.7626 0.00182673 0)
(2.36006 0.00445091 0)
(1.17116 0.0125469 0)
(0.279387 0.0369964 0)
(0.323592 0.0630061 0)
(0.404711 0.0917146 0)
(0.436915 0.0983663 0)
(0.356756 0.0945446 0)
(0.165576 0.070781 0)
(-0.0221462 0.103689 0)
(2.99996 1.56216e-07 0)
(2.99987 9.59107e-07 0)
(2.99969 3.15017e-06 0)
(2.99927 8.365e-06 0)
(2.99836 2.02012e-05 0)
(2.99632 4.65717e-05 0)
(2.99177 0.000104934 0)
(2.98153 0.000234128 0)
(2.95813 0.000522211 0)
(2.90291 0.00117678 0)
(2.76334 0.00272448 0)
(2.36217 0.00669316 0)
(1.17725 0.0190161 0)
(0.286697 0.0557114 0)
(0.331144 0.0915803 0)
(0.409415 0.126259 0)
(0.435765 0.133735 0)
(0.351737 0.130867 0)
(0.16942 0.106322 0)
(-0.015399 0.144542 0)
(2.99996 2.13997e-07 0)
(2.99987 1.31395e-06 0)
(2.99969 4.31645e-06 0)
(2.99928 1.14661e-05 0)
(2.99837 2.77058e-05 0)
(2.99634 6.39221e-05 0)
(2.99181 0.00014417 0)
(2.98161 0.000322059 0)
(2.95831 0.00071941 0)
(2.90334 0.00162434 0)
(2.7644 0.00377183 0)
(2.36524 0.00931308 0)
(1.18618 0.0265302 0)
(0.297173 0.0761998 0)
(0.340223 0.121376 0)
(0.413998 0.159164 0)
(0.434018 0.167129 0)
(0.346395 0.165822 0)
(0.171954 0.144685 0)
(-0.0068964 0.183266 0)
(2.99996 2.81366e-07 0)
(2.99988 1.72772e-06 0)
(2.99969 5.6768e-06 0)
(2.99928 1.50852e-05 0)
(2.99838 3.64715e-05 0)
(2.99636 8.42111e-05 0)
(2.99185 0.000190113 0)
(2.98172 0.000425177 0)
(2.95856 0.000951018 0)
(2.90392 0.00215073 0)
(2.76585 0.00500499 0)
(2.36945 0.0123979 0)
(1.1982 0.0353013 0)
(0.310773 0.0987056 0)
(0.350276 0.152548 0)
(0.41807 0.190661 0)
(0.431874 0.199295 0)
(0.341621 0.200181 0)
(0.173903 0.185197 0)
(0.00183519 0.221125 0)
(2.99996 3.60202e-07 0)
(2.99988 2.21198e-06 0)
(2.99969 7.26941e-06 0)
(2.99929 1.93248e-05 0)
(2.99839 4.67493e-05 0)
(2.99639 0.000108029 0)
(2.99192 0.000244127 0)
(2.98186 0.000546609 0)
(2.95889 0.00122423 0)
(2.90468 0.0027727 0)
(2.76776 0.00646419 0)
(2.37499 0.0160517 0)
(1.21363 0.0456251 0)
(0.327362 0.123736 0)
(0.360676 0.184764 0)
(0.421239 0.220479 0)
(0.429594 0.230591 0)
(0.337765 0.234267 0)
(0.175978 0.226153 0)
(0.0105951 0.259151 0)
(2.99996 4.52175e-07 0)
(2.99988 2.77702e-06 0)
(2.9997 9.12841e-06 0)
(2.9993 2.42769e-05 0)
(2.99841 5.87674e-05 0)
(2.99643 0.00013592 0)
(2.992 0.000307486 0)
(2.98204 0.000689336 0)
(2.9593 0.00154606 0)
(2.90565 0.00350707 0)
(2.77022 0.00819147 0)
(2.38213 0.02039 0)
(1.23295 0.0579034 0)
(0.346695 0.152575 0)
(0.37062 0.216301 0)
(0.423047 0.248845 0)
(0.427485 0.261187 0)
(0.334996 0.268188 0)
(0.17823 0.267149 0)
(0.0190161 0.297961 0)
(2.99996 5.58506e-07 0)
(2.99988 3.43037e-06 0)
(2.9997 1.12788e-05 0)
(2.9993 3.00094e-05 0)
(2.99843 7.26941e-05 0)
(2.99647 0.000168286 0)
(2.9921 0.000381142 0)
(2.98227 0.000855588 0)
(2.95983 0.00192175 0)
(2.90688 0.00436631 0)
(2.77333 0.0102175 0)
(2.39119 0.025495 0)
(1.25721 0.0724127 0)
(0.368513 0.186557 0)
(0.379253 0.244903 0)
(0.423829 0.276466 0)
(0.425645 0.291357 0)
(0.333411 0.302033 0)
(0.181159 0.308445 0)
(0.0272227 0.338004 0)
(2.99996 6.79746e-07 0)
(2.99988 4.17545e-06 0)
(2.9997 1.3732e-05 0)
(2.99932 3.65532e-05 0)
(2.99845 8.86072e-05 0)
(2.99653 0.000205315 0)
(2.99223 0.000465533 0)
(2.98256 0.00104637 0)
(2.96047 0.00235354 0)
(2.90841 0.00535509 0)
(2.7772 0.0125505 0)
(2.40254 0.0313739 0)
(1.28767 0.0889908 0)
(0.392748 0.225058 0)
(0.385845 0.27185 0)
(0.424964 0.302591 0)
(0.424376 0.32095 0)
(0.333226 0.335871 0)
(0.184958 0.350186 0)
(0.0352304 0.37958 0)
(2.99996 8.15628e-07 0)
(2.99988 5.01064e-06 0)
(2.99971 1.6483e-05 0)
(2.99933 4.38969e-05 0)
(2.99848 0.000106484 0)
(2.9966 0.000246972 0)
(2.99238 0.000560626 0)
(2.9829 0.00126173 0)
(2.96126 0.00284174 0)
(2.91027 0.00647444 0)
(2.78195 0.0151929 0)
(2.41645 0.0380168 0)
(1.32482 0.107496 0)
(0.419577 0.2675 0)
(0.389447 0.29969 0)
(0.426097 0.326011 0)
(0.42422 0.349607 0)
(0.334745 0.369712 0)
(0.190043 0.392541 0)
(0.0431777 0.423143 0)
(2.99996 9.6472e-07 0)
(2.99989 5.92724e-06 0)
(2.99972 1.95038e-05 0)
(2.99935 5.19682e-05 0)
(2.99852 0.000126161 0)
(2.99668 0.000292905 0)
(2.99257 0.000665706 0)
(2.98332 0.00150025 0)
(2.96221 0.0033837 0)
(2.91252 0.00771948 0)
(2.78768 0.0181351 0)
(2.43322 0.0454007 0)
(1.36954 0.127909 0)
(0.44921 0.314589 0)
(0.389109 0.328045 0)
(0.427012 0.346703 0)
(0.425768 0.377353 0)
(0.33832 0.403708 0)
(0.196788 0.435725 0)
(0.0513534 0.469163 0)
(2.99996 1.12383e-06 0)
(2.99989 6.9057e-06 0)
(2.99973 2.27308e-05 0)
(2.99936 6.06012e-05 0)
(2.99856 0.000147245 0)
(2.99678 0.000342243 0)
(2.99279 0.000778896 0)
(2.98381 0.00175798 0)
(2.96333 0.00397112 0)
(2.91519 0.00907248 0)
(2.7945 0.0213376 0)
(2.45315 0.0534382 0)
(1.4231 0.149997 0)
(0.482168 0.367118 0)
(0.384002 0.356114 0)
(0.427808 0.364987 0)
(0.429615 0.404339 0)
(0.344325 0.438028 0)
(0.205644 0.480078 0)
(0.0600575 0.518342 0)
(2.99997 1.28724e-06 0)
(2.99989 7.91104e-06 0)
(2.99974 2.60495e-05 0)
(2.99939 6.94943e-05 0)
(2.99861 0.000169016 0)
(2.99689 0.000393351 0)
(2.99304 0.000896594 0)
(2.98438 0.0020271 0)
(2.96465 0.00458711 0)
(2.91831 0.0104969 0)
(2.80249 0.0247192 0)
(2.47649 0.0619285 0)
(1.48704 0.1733 0)
(0.51916 0.425147 0)
(0.373932 0.383703 0)
(0.428827 0.381391 0)
(0.436332 0.430654 0)
(0.353184 0.472869 0)
(0.217207 0.52602 0)
(0.0697813 0.571557 0)
(2.99997 1.44594e-06 0)
(2.9999 8.88796e-06 0)
(2.99975 2.92783e-05 0)
(2.99941 7.81638e-05 0)
(2.99867 0.000190303 0)
(2.99702 0.000443513 0)
(2.99333 0.00101264 0)
(2.98504 0.00229382 0)
(2.96616 0.00520087 0)
(2.92191 0.0119232 0)
(2.81172 0.0281185 0)
(2.50344 0.0704817 0)
(1.56294 0.19668 0)
(0.561548 0.487777 0)
(0.36009 0.413969 0)
(0.430743 0.397857 0)
(0.446533 0.456393 0)
(0.365437 0.508563 0)
(0.232132 0.574104 0)
(0.0810627 0.630066 0)
(2.99997 1.5874e-06 0)
(2.9999 9.75924e-06 0)
(2.99976 3.21621e-05 0)
(2.99944 8.59239e-05 0)
(2.99873 0.000209417 0)
(2.99716 0.000488738 0)
(2.99366 0.00111779 0)
(2.98578 0.00253679 0)
(2.96786 0.00576311 0)
(2.92597 0.0132363 0)
(2.82216 0.0312575 0)
(2.53392 0.0783708 0)
(1.65222 0.21829 0)
(0.611769 0.552362 0)
(0.346227 0.447368 0)
(0.434166 0.41585 0)
(0.460699 0.481464 0)
(0.381882 0.546056 0)
(0.251237 0.624881 0)
(0.0946889 0.695651 0)
(2.99997 1.69657e-06 0)
(2.99991 1.04323e-05 0)
(2.99977 3.43929e-05 0)
(2.99947 9.1939e-05 0)
(2.9988 0.000224272 0)
(2.99732 0.000524009 0)
(2.99401 0.00120014 0)
(2.98659 0.00272802 0)
(2.96973 0.0062078 0)
(2.93044 0.014279 0)
(2.83365 0.0337538 0)
(2.56755 0.0846358 0)
(1.75464 0.235437 0)
(0.672227 0.613222 0)
(0.338536 0.481794 0)
(0.44117 0.437257 0)
(0.480029 0.50608 0)
(0.403214 0.584674 0)
(0.275988 0.678489 0)
(0.112363 0.771864 0)
(2.99997 1.75898e-06 0)
(2.99991 1.08174e-05 0)
(2.99979 3.56708e-05 0)
(2.9995 9.53836e-05 0)
(2.99888 0.000232765 0)
(2.99749 0.000544118 0)
(2.99439 0.00124691 0)
(2.98745 0.0028361 0)
(2.97172 0.00645717 0)
(2.93519 0.0148556 0)
(2.8459 0.0350958 0)
(2.60336 0.0878212 0)
(1.86854 0.244084 0)
(0.744788 0.661527 0)
(0.345207 0.523789 0)
(0.454352 0.467489 0)
(0.504968 0.531368 0)
(0.430671 0.623501 0)
(0.30834 0.736428 0)
(0.135142 0.863013 0)
(2.99997 1.76586e-06 0)
(2.99992 1.08594e-05 0)
(2.9998 3.58038e-05 0)
(2.99954 9.57075e-05 0)
(2.99895 0.000233438 0)
(2.99766 0.000545339 0)
(2.99478 0.00124872 0)
(2.98833 0.00283745 0)
(2.97374 0.00645203 0)
(2.94003 0.0148164 0)
(2.85827 0.0349029 0)
(2.63951 0.0869609 0)
(1.98675 0.240627 0)
(0.834974 0.676744 0)
(0.373689 0.573404 0)
(0.475944 0.510094 0)
(0.535741 0.558044 0)
(0.465839 0.663484 0)
(0.351344 0.800992 0)
(0.165483 0.974462 0)
(2.99998 1.72657e-06 0)
(2.99993 1.06178e-05 0)
(2.99981 3.50012e-05 0)
(2.99957 9.35078e-05 0)
(2.99903 0.000227828 0)
(2.99783 0.000531377 0)
(2.99516 0.0012141 0)
(2.98919 0.002751 0)
(2.97572 0.00623262 0)
(2.94472 0.0142425 0)
(2.87018 0.0333125 0)
(2.67369 0.0821299 0)
(2.09654 0.224802 0)
(0.93208 0.656685 0)
(0.425989 0.625033 0)
(0.506183 0.565902 0)
(0.57195 0.582591 0)
(0.511115 0.699982 0)
(0.409292 0.86989 0)
(0.206912 1.11285 0)
(2.99998 1.37972e-06 0)
(2.99994 8.48158e-06 0)
(2.99985 2.79319e-05 0)
(2.99965 7.44863e-05 0)
(2.99921 0.000180971 0)
(2.99823 0.000420449 0)
(2.99606 0.000955885 0)
(2.99123 0.00215273 0)
(2.98037 0.00484048 0)
(2.95563 0.0109531 0)
(2.8973 0.0252572 0)
(2.74983 0.0608548 0)
(2.33116 0.161934 0)
(1.25823 0.48635 0)
(0.611366 0.657048 0)
(0.632111 0.698557 0)
(0.707807 0.703312 0)
(0.746937 0.778695 0)
(0.788997 0.951677 0)
(0.691818 1.23905 0)
(2.99998 1.00396e-06 0)
(2.99995 6.16771e-06 0)
(2.99988 2.02866e-05 0)
(2.99973 5.40006e-05 0)
(2.99938 0.000130877 0)
(2.99862 0.000303114 0)
(2.99692 0.000686474 0)
(2.99314 0.00153869 0)
(2.98466 0.00343871 0)
(2.9654 0.00771287 0)
(2.92041 0.0175297 0)
(2.80896 0.0411331 0)
(2.50052 0.103827 0)
(1.61964 0.297058 0)
(0.796688 0.674251 0)
(0.706236 0.756224 0)
(0.755845 0.783751 0)
(0.858677 0.823625 0)
(1.02495 0.926054 0)
(1.0973 1.06699 0)
(2.99999 9.65712e-07 0)
(2.99996 5.93645e-06 0)
(2.99991 1.95526e-05 0)
(2.9998 5.21617e-05 0)
(2.99954 0.000126813 0)
(2.99897 0.00029486 0)
(2.99771 0.000670842 0)
(2.99489 0.001511 0)
(2.98859 0.00339239 0)
(2.97436 0.00763317 0)
(2.94151 0.0173377 0)
(2.86209 0.0402867 0)
(2.65017 0.0984345 0)
(2.0279 0.265862 0)
(1.09644 0.712368 0)
(0.818275 0.798887 0)
(0.838213 0.855383 0)
(0.944043 0.890815 0)
(1.12971 0.930243 0)
(1.26185 0.967444 0)
(2.99999 7.98761e-07 0)
(2.99998 4.91057e-06 0)
(2.99994 1.6174e-05 0)
(2.99987 4.31398e-05 0)
(2.99971 0.000104837 0)
(2.99934 0.000243608 0)
(2.99854 0.000553755 0)
(2.99677 0.00124574 0)
(2.99282 0.00279149 0)
(2.984 0.00626044 0)
(2.96398 0.0141321 0)
(2.91719 0.0324387 0)
(2.80009 0.0773635 0)
(2.46022 0.202518 0)
(1.65308 0.556952 0)
(1.093 0.801832 0)
(1.01069 0.889086 0)
(1.03342 0.935923 0)
(1.1719 0.949524 0)
(1.31814 0.943336 0)
(3 5.5892e-07 0)
(2.99999 3.43488e-06 0)
(2.99996 1.1305e-05 0)
(2.99991 3.01163e-05 0)
(2.99981 7.30605e-05 0)
(2.99957 0.000169387 0)
(2.99904 0.000383966 0)
(2.99788 0.000860846 0)
(2.99528 0.00192081 0)
(2.98949 0.00428295 0)
(2.97644 0.00958275 0)
(2.94644 0.021659 0)
(2.87435 0.0501503 0)
(2.68266 0.123283 0)
(2.14291 0.332263 0)
(1.39292 0.781956 0)
(1.17502 0.901033 0)
(1.15138 0.960352 0)
(1.22453 0.983313 0)
(1.34006 0.965071 0)
(3 4.10474e-07 0)
(2.99999 2.52318e-06 0)
(2.99998 8.30925e-06 0)
(2.99995 2.21592e-05 0)
(2.99989 5.38388e-05 0)
(2.99976 0.000125062 0)
(2.99947 0.000284117 0)
(2.99882 0.000638474 0)
(2.99739 0.00142777 0)
(2.99421 0.00318855 0)
(2.98712 0.00713297 0)
(2.97114 0.0160536 0)
(2.93412 0.0366619 0)
(2.84271 0.0866787 0)
(2.57601 0.224982 0)
(1.96001 0.58826 0)
(1.46376 0.889361 0)
(1.33198 0.967335 0)
(1.32786 1.00879 0)
(1.38733 1.00424 0)
(3 2.28823e-07 0)
(3 1.40585e-06 0)
(2.99999 4.62438e-06 0)
(2.99998 1.2309e-05 0)
(2.99994 2.98256e-05 0)
(2.99988 6.90392e-05 0)
(2.99973 0.00015618 0)
(2.9994 0.000349252 0)
(2.99868 0.000776641 0)
(2.9971 0.00172321 0)
(2.9936 0.00382442 0)
(2.98582 0.00851523 0)
(2.96832 0.0191234 0)
(2.92767 0.0438397 0)
(2.82404 0.106425 0)
(2.52814 0.286624 0)
(1.89156 0.683138 0)
(1.57704 0.859743 0)
(1.50462 0.953043 0)
(1.49229 0.996637 0)
(3 1.20538e-07 0)
(3 7.40379e-07 0)
(2.99999 2.43379e-06 0)
(2.99999 6.47014e-06 0)
(2.99997 1.56475e-05 0)
(2.99993 3.61254e-05 0)
(2.99984 8.14558e-05 0)
(2.99965 0.000181448 0)
(2.99922 0.00040169 0)
(2.99827 0.000886631 0)
(2.99617 0.00195521 0)
(2.99151 0.00431578 0)
(2.98107 0.00956237 0)
(2.95729 0.0213898 0)
(2.901 0.0489876 0)
(2.75415 0.120701 0)
(2.36058 0.317019 0)
(1.84351 0.718245 0)
(1.69147 0.865649 0)
(1.64239 0.949964 0)
(3 7.69669e-08 0)
(3 4.73032e-07 0)
(3 1.55695e-06 0)
(2.99999 4.1476e-06 0)
(2.99998 1.00599e-05 0)
(2.99996 2.33124e-05 0)
(2.99992 5.28018e-05 0)
(2.99983 0.000118224 0)
(2.99962 0.000263197 0)
(2.99917 0.000584393 0)
(2.99817 0.0012964 0)
(2.99596 0.00287716 0)
(2.99108 0.0063987 0)
(2.98015 0.014303 0)
(2.95524 0.0323464 0)
(2.89533 0.0752858 0)
(2.72856 0.189196 0)
(2.33623 0.482445 0)
(1.97069 0.767069 0)
(1.84544 0.892284 0)
(3 4.08626e-08 0)
(3 2.51078e-07 0)
(3 8.25947e-07 0)
(3 2.19821e-06 0)
(2.99999 5.3246e-06 0)
(2.99998 1.23183e-05 0)
(2.99997 2.78448e-05 0)
(2.99993 6.22031e-05 0)
(2.99984 0.00013813 0)
(2.99965 0.000305837 0)
(2.99923 0.000676285 0)
(2.99832 0.00149509 0)
(2.99631 0.00330783 0)
(2.99188 0.00733598 0)
(2.98203 0.0163606 0)
(2.95965 0.0369663 0)
(2.90523 0.0865475 0)
(2.7527 0.22063 0)
(2.42404 0.509675 0)
(2.13848 0.782345 0)
(3 1.75343e-08 0)
(3 1.077e-07 0)
(3 3.53925e-07 0)
(3 9.40035e-07 0)
(3 2.26975e-06 0)
(2.99999 5.22829e-06 0)
(2.99999 1.17549e-05 0)
(2.99998 2.60958e-05 0)
(2.99995 5.75462e-05 0)
(2.99989 0.000126451 0)
(2.99975 0.000277347 0)
(2.99947 0.000607784 0)
(2.99886 0.00133176 0)
(2.99755 0.00292051 0)
(2.99471 0.00642052 0)
(2.98854 0.0142006 0)
(2.97477 0.0318629 0)
(2.94138 0.0745725 0)
(2.84683 0.188829 0)
(2.65031 0.412257 0)
(3 5.81402e-09 0)
(3 3.56791e-08 0)
(3 1.16984e-07 0)
(3 3.09421e-07 0)
(3 7.42363e-07 0)
(3 1.69527e-06 0)
(2.99999 3.77056e-06 0)
(2.99999 8.26468e-06 0)
(2.99997 1.7964e-05 0)
(2.99994 3.88496e-05 0)
(2.99987 8.37457e-05 0)
(2.99972 0.00018012 0)
(2.99939 0.000386763 0)
(2.99866 0.000829494 0)
(2.99706 0.00177801 0)
(2.99353 0.00381347 0)
(2.98571 0.0082068 0)
(2.96809 0.0178525 0)
(2.92691 0.0405462 0)
(2.80697 0.0958118 0)
(3 2.38427e-09 0)
(3 1.46393e-08 0)
(3 4.80814e-08 0)
(3 1.27634e-07 0)
(3 3.07902e-07 0)
(3 7.08206e-07 0)
(3 1.58895e-06 0)
(2.99999 3.51814e-06 0)
(2.99999 7.7343e-06 0)
(2.99997 1.69378e-05 0)
(2.99994 3.7016e-05 0)
(2.99988 8.08072e-05 0)
(2.99973 0.000176321 0)
(2.99941 0.000384731 0)
(2.99871 0.000839899 0)
(2.99717 0.00183579 0)
(2.99381 0.00402286 0)
(2.98641 0.0088585 0)
(2.96987 0.0197347 0)
(2.92519 0.0450049 0)
(3 7.81936e-10 0)
(3 4.79753e-09 0)
(3 1.57213e-08 0)
(3 4.15389e-08 0)
(3 9.94896e-08 0)
(3 2.26634e-07 0)
(3 5.02431e-07 0)
(3 1.09691e-06 0)
(2.99999 2.37332e-06 0)
(2.99998 5.10623e-06 0)
(2.99996 1.0944e-05 0)
(2.99991 2.33857e-05 0)
(2.99979 4.98404e-05 0)
(2.99955 0.000105957 0)
(2.999 0.000224729 0)
(2.99778 0.000475692 0)
(2.99507 0.00100577 0)
(2.98903 0.00212713 0)
(2.97546 0.00451817 0)
(2.93977 0.00967663 0)
(3 5.40073e-10 0)
(3 3.31831e-09 0)
(3 1.09176e-08 0)
(3 2.90696e-08 0)
(3 7.0455e-08 0)
(3 1.63089e-07 0)
(3 3.68846e-07 0)
(3 8.24409e-07 0)
(2.99999 1.83186e-06 0)
(2.99999 4.05916e-06 0)
(2.99997 8.98424e-06 0)
(2.99993 1.98788e-05 0)
(2.99984 4.39887e-05 0)
(2.99964 9.7367e-05 0)
(2.9992 0.000215588 0)
(2.99821 0.000477513 0)
(2.99602 0.00105834 0)
(2.99111 0.0023481 0)
(2.98002 0.00523345 0)
(2.9517 0.0117466 0)
(3 3.79602e-10 0)
(3 2.33457e-09 0)
(3 7.69614e-09 0)
(3 2.05609e-08 0)
(3 5.00655e-08 0)
(3 1.16573e-07 0)
(3 2.65469e-07 0)
(3 5.97963e-07 0)
(3 1.33986e-06 0)
(2.99999 2.99529e-06 0)
(2.99998 6.69044e-06 0)
(2.99995 1.49429e-05 0)
(2.9999 3.33852e-05 0)
(2.99978 7.46273e-05 0)
(2.9995 0.000166919 0)
(2.9989 0.000373583 0)
(2.99756 0.000836688 0)
(2.99459 0.00187568 0)
(2.98798 0.00421397 0)
(2.97238 0.0095153 0)
(3 1.87636e-10 0)
(3 1.1557e-09 0)
(3 3.8124e-09 0)
(3 1.01691e-08 0)
(3 2.4667e-08 0)
(3 5.71129e-08 0)
(3 1.29172e-07 0)
(3 2.8873e-07 0)
(3 6.41684e-07 0)
(2.99999 1.42236e-06 0)
(2.99998 3.14957e-06 0)
(2.99996 6.97278e-06 0)
(2.99992 1.544e-05 0)
(2.99982 3.42024e-05 0)
(2.9996 7.57993e-05 0)
(2.99911 0.000168083 0)
(2.99802 0.000372891 0)
(2.99561 0.000828504 0)
(2.99022 0.00183764 0)
(2.97771 0.00408742 0)
(3 1.68967e-10 0)
(3 1.03964e-09 0)
(3 3.42534e-09 0)
(3 9.12129e-09 0)
(3 2.2096e-08 0)
(3 5.11323e-08 0)
(3 1.15689e-07 0)
(3 2.58919e-07 0)
(3 5.76623e-07 0)
(2.99999 1.28166e-06 0)
(2.99999 2.84737e-06 0)
(2.99997 6.32693e-06 0)
(2.99993 1.40653e-05 0)
(2.99986 3.12872e-05 0)
(2.99968 6.96428e-05 0)
(2.9993 0.00015514 0)
(2.99844 0.000345926 0)
(2.99655 0.00077246 0)
(2.99233 0.00172843 0)
(2.98273 0.00388778 0)
(3 1.1552e-10 0)
(3 7.08434e-10 0)
(3 2.32466e-09 0)
(3 6.17003e-09 0)
(3 1.49055e-08 0)
(3 3.43911e-08 0)
(3 7.75109e-08 0)
(3 1.72561e-07 0)
(3 3.81635e-07 0)
(3 8.40914e-07 0)
(2.99999 1.84894e-06 0)
(2.99998 4.06006e-06 0)
(2.99995 8.90868e-06 0)
(2.99989 1.95408e-05 0)
(2.99976 4.28636e-05 0)
(2.99948 9.40648e-05 0)
(2.99885 0.000206615 0)
(2.99745 0.000454531 0)
(2.99437 0.00100217 0)
(2.9875 0.00222095 0)
(3 2.54947e-11 0)
(3 1.55675e-10 0)
(3 5.0838e-10 0)
(3 1.34811e-09 0)
(3 3.26188e-09 0)
(3 7.54199e-09 0)
(3 1.70147e-08 0)
(3 3.78237e-08 0)
(3 8.32486e-08 0)
(3 1.81832e-07 0)
(2.99999 3.94575e-07 0)
(2.99998 8.51056e-07 0)
(2.99996 1.82463e-06 0)
(2.9999 3.88741e-06 0)
(2.99978 8.22601e-06 0)
(2.99951 1.72767e-05 0)
(2.99892 3.59936e-05 0)
(2.99761 7.43097e-05 0)
(2.99468 0.000152077 0)
(2.98812 0.000308399 0)
(1.28372 1.14601 0)
(1.46803 0.959998 0)
(1.48779 0.576357 0)
(1.40722 0.124257 0)
(1.46324 -0.0431828 0)
(1.40239 -0.0188311 0)
(1.34991 -0.0014176 0)
(1.21949 -0.00269775 0)
(0.861006 -0.0475154 0)
(0.154276 -0.0659799 0)
(-0.280486 0.00779024 0)
(-0.138994 0.0365115 0)
(0.0908411 -0.00344016 0)
(0.253011 -0.0533915 0)
(0.527453 -0.0977823 0)
(0.758906 -0.11023 0)
(0.882869 -0.0912431 0)
(0.966156 -0.0566939 0)
(1.0285 -0.0209372 0)
(1.10623 0.0074734 0)
(1.48255 0.888284 0)
(1.59494 0.526888 0)
(1.59467 0.213485 0)
(1.6199 0.0387028 0)
(1.65367 -0.0250394 0)
(1.63142 -0.00918543 0)
(1.54754 -0.0103365 0)
(1.40577 -0.0365226 0)
(1.19413 -0.0989149 0)
(0.763187 -0.0842689 0)
(0.366438 0.0756951 0)
(0.31732 0.0970786 0)
(0.432265 0.0167562 0)
(0.624635 -0.0773714 0)
(0.814872 -0.135968 0)
(0.972388 -0.133283 0)
(1.06823 -0.0988402 0)
(1.13972 -0.0591166 0)
(1.19211 -0.0149292 0)
(1.25138 0.0188006 0)
(1.56399 0.771589 0)
(1.69664 0.460886 0)
(1.78925 0.290087 0)
(1.83637 0.23807 0)
(1.83488 0.1498 0)
(1.81008 0.0430698 0)
(1.75086 -0.0603948 0)
(1.66317 -0.120019 0)
(1.51995 -0.133888 0)
(1.18295 -0.076808 0)
(0.806949 0.125071 0)
(0.672174 0.0978511 0)
(0.728141 0.0176382 0)
(0.843699 -0.0879324 0)
(1.01171 -0.152689 0)
(1.13212 -0.145296 0)
(1.2183 -0.107687 0)
(1.28618 -0.0695467 0)
(1.33637 -0.028397 0)
(1.38863 0.00827477 0)
(1.60838 0.788513 0)
(1.75116 0.58075 0)
(1.85761 0.399825 0)
(1.90456 0.2599 0)
(1.89393 0.139715 0)
(1.87776 0.013109 0)
(1.85155 -0.0778937 0)
(1.78965 -0.131613 0)
(1.64115 -0.138248 0)
(1.27958 -0.0510991 0)
(0.908486 0.174531 0)
(0.839099 0.0710744 0)
(0.876368 -0.0294176 0)
(0.997256 -0.118671 0)
(1.13766 -0.149863 0)
(1.2581 -0.144202 0)
(1.34721 -0.118155 0)
(1.41547 -0.0731294 0)
(1.46512 -0.0250869 0)
(1.51235 0.0261149 0)
(1.62987 0.830621 0)
(1.77357 0.651952 0)
(1.88296 0.472896 0)
(1.94017 0.306908 0)
(1.94406 0.195906 0)
(1.9369 0.0927574 0)
(1.91302 -0.0112551 0)
(1.85573 -0.0999462 0)
(1.72865 -0.146838 0)
(1.41329 -0.0869752 0)
(0.988542 0.221859 0)
(0.891325 0.0733735 0)
(1.03518 -0.0592692 0)
(1.15692 -0.118604 0)
(1.27873 -0.128507 0)
(1.40038 -0.137456 0)
(1.4896 -0.121915 0)
(1.55426 -0.0779904 0)
(1.59813 -0.0260296 0)
(1.63776 0.0272861 0)
(1.64632 0.866989 0)
(1.78527 0.706469 0)
(1.895 0.538545 0)
(1.96033 0.375615 0)
(1.97373 0.254891 0)
(1.9642 0.132136 0)
(1.94507 0.0100648 0)
(1.90364 -0.094005 0)
(1.81282 -0.160756 0)
(1.61384 -0.150167 0)
(1.24255 0.0999057 0)
(1.10092 0.0287199 0)
(1.18458 -0.0403253 0)
(1.32128 -0.0875222 0)
(1.45175 -0.116878 0)
(1.55891 -0.142544 0)
(1.63985 -0.125658 0)
(1.69702 -0.0792283 0)
(1.73267 -0.0207835 0)
(1.76156 0.0342272 0)
(1.66214 0.909498 0)
(1.79501 0.760865 0)
(1.90158 0.597876 0)
(1.97179 0.43156 0)
(1.99292 0.303334 0)
(1.98512 0.174676 0)
(1.97182 0.0505049 0)
(1.93975 -0.0611059 0)
(1.86819 -0.146903 0)
(1.71572 -0.191257 0)
(1.43448 -0.145663 0)
(1.32162 -0.0984322 0)
(1.38781 -0.074671 0)
(1.47259 -0.0721074 0)
(1.58376 -0.10473 0)
(1.68178 -0.127507 0)
(1.7581 -0.111931 0)
(1.81013 -0.0680163 0)
(1.83971 -0.0114008 0)
(1.86135 0.0444628 0)
(1.70492 0.937494 0)
(1.81006 0.798097 0)
(1.90766 0.641406 0)
(1.9798 0.475948 0)
(2.00736 0.341787 0)
(2.00141 0.220993 0)
(1.99119 0.0973427 0)
(1.96534 -0.0239246 0)
(1.90541 -0.130746 0)
(1.77789 -0.223703 0)
(1.55876 -0.268927 0)
(1.50877 -0.167783 0)
(1.58397 -0.121654 0)
(1.64234 -0.0955217 0)
(1.70284 -0.0915421 0)
(1.77927 -0.0954685 0)
(1.85347 -0.0822721 0)
(1.90562 -0.0494222 0)
(1.93541 -0.000583935 0)
(1.95322 0.0511523 0)
(1.77653 0.952355 0)
(1.83348 0.848516 0)
(1.91869 0.68136 0)
(1.98866 0.512818 0)
(2.02254 0.377526 0)
(2.01977 0.263201 0)
(2.009 0.143956 0)
(1.98695 0.0182051 0)
(1.93604 -0.113533 0)
(1.83327 -0.266014 0)
(1.6957 -0.37993 0)
(1.66691 -0.26528 0)
(1.73103 -0.210163 0)
(1.7832 -0.147672 0)
(1.827 -0.0921304 0)
(1.88022 -0.0565114 0)
(1.94336 -0.0388986 0)
(1.99187 -0.0144887 0)
(2.01957 0.0229971 0)
(2.03315 0.0660234 0)
(1.88137 0.951567 0)
(1.87435 0.909768 0)
(1.92848 0.750452 0)
(1.99909 0.56242 0)
(2.03931 0.424981 0)
(2.03894 0.296995 0)
(2.02675 0.169796 0)
(2.00532 0.033311 0)
(1.95639 -0.136175 0)
(1.87165 -0.366109 0)
(1.8108 -0.481228 0)
(1.79921 -0.356057 0)
(1.8491 -0.260255 0)
(1.89815 -0.167341 0)
(1.93429 -0.0779459 0)
(1.96904 -0.0105754 0)
(2.01434 0.0127392 0)
(2.06066 0.0266023 0)
(2.08759 0.0447241 0)
(2.10041 0.0741998 0)
(2.01812 0.884704 0)
(1.92398 0.916051 0)
(1.93997 0.82897 0)
(1.99773 0.672131 0)
(2.04676 0.497349 0)
(2.0494 0.332091 0)
(2.03841 0.176419 0)
(2.01362 0.0115321 0)
(1.9567 -0.222672 0)
(1.90481 -0.462644 0)
(1.89687 -0.527526 0)
(1.91013 -0.449629 0)
(1.94983 -0.337338 0)
(1.99089 -0.224423 0)
(2.01999 -0.110736 0)
(2.04234 -0.00901035 0)
(2.06973 0.0526531 0)
(2.10455 0.0740478 0)
(2.13094 0.0790466 0)
(2.14666 0.0914583 0)
(2.15101 0.863012 0)
(2.00069 0.908724 0)
(1.97509 0.87073 0)
(2.00476 0.754284 0)
(2.04204 0.570292 0)
(2.05037 0.379022 0)
(2.04263 0.18858 0)
(2.01204 -0.0225946 0)
(1.95826 -0.330437 0)
(1.9444 -0.485299 0)
(1.96013 -0.537831 0)
(1.99214 -0.507825 0)
(2.03437 -0.415118 0)
(2.06863 -0.291398 0)
(2.092 -0.159655 0)
(2.10821 -0.0360676 0)
(2.11947 0.0609024 0)
(2.13601 0.103534 0)
(2.1556 0.112876 0)
(2.17405 0.114228 0)
(2.34122 0.730351 0)
(2.09713 0.85126 0)
(2.03138 0.862945 0)
(2.02543 0.789882 0)
(2.04147 0.631337 0)
(2.04826 0.441941 0)
(2.03911 0.216726 0)
(1.99965 -0.0892432 0)
(1.97179 -0.329882 0)
(1.97811 -0.470293 0)
(2.00603 -0.528881 0)
(2.05002 -0.509168 0)
(2.09669 -0.434138 0)
(2.13622 -0.311087 0)
(2.15788 -0.183892 0)
(2.16708 -0.0653446 0)
(2.16972 0.0372256 0)
(2.17288 0.107585 0)
(2.18055 0.137572 0)
(2.19674 0.143017 0)
(2.53377 0.251403 0)
(2.15821 0.735834 0)
(2.07956 0.805609 0)
(2.04998 0.778494 0)
(2.04648 0.660938 0)
(2.04288 0.475109 0)
(2.01795 0.179123 0)
(1.98342 -0.126473 0)
(1.97817 -0.319542 0)
(1.99595 -0.449268 0)
(2.04034 -0.493061 0)
(2.09549 -0.46652 0)
(2.15552 -0.394884 0)
(2.19762 -0.296455 0)
(2.21324 -0.189968 0)
(2.21868 -0.0854735 0)
(2.21757 0.0117663 0)
(2.21257 0.0952609 0)
(2.20908 0.149045 0)
(2.2199 0.1698 0)
(2.64751 0.16966 0)
(2.22553 0.745255 0)
(2.11763 0.790515 0)
(2.07456 0.776539 0)
(2.05125 0.667835 0)
(2.02341 0.447914 0)
(1.99502 0.147242 0)
(1.98203 -0.117836 0)
(1.98395 -0.318279 0)
(2.01595 -0.42101 0)
(2.07316 -0.427774 0)
(2.1409 -0.394594 0)
(2.20321 -0.342801 0)
(2.24539 -0.283111 0)
(2.2618 -0.190406 0)
(2.2634 -0.0994001 0)
(2.25946 -0.0114158 0)
(2.24977 0.0721859 0)
(2.23865 0.141525 0)
(2.24365 0.178306 0)
(2.79437 0.127797 0)
(2.379 0.634294 0)
(2.18309 0.751795 0)
(2.10386 0.766159 0)
(2.04495 0.6174 0)
(1.99784 0.329305 0)
(1.97368 0.063577 0)
(1.97155 -0.169533 0)
(1.98979 -0.320844 0)
(2.04277 -0.359709 0)
(2.10806 -0.345231 0)
(2.17911 -0.319937 0)
(2.23696 -0.294449 0)
(2.28098 -0.25495 0)
(2.29955 -0.180117 0)
(2.29824 -0.104198 0)
(2.29225 -0.0290256 0)
(2.28174 0.0452605 0)
(2.26504 0.117171 0)
(2.26395 0.166681 0)
(2.85293 0.0492352 0)
(2.52711 0.312018 0)
(2.21462 0.707869 0)
(2.10512 0.735097 0)
(2.00985 0.474332 0)
(1.97037 0.193369 0)
(1.9701 -0.0369618 0)
(1.97574 -0.216388 0)
(2.01036 -0.287451 0)
(2.06684 -0.278663 0)
(2.14196 -0.258328 0)
(2.20158 -0.249058 0)
(2.25509 -0.240437 0)
(2.30256 -0.216257 0)
(2.32442 -0.159725 0)
(2.32133 -0.0971308 0)
(2.31373 -0.0343613 0)
(2.30275 0.0272376 0)
(2.28482 0.0888117 0)
(2.28275 0.146311 0)
(2.88849 0.0431324 0)
(2.63497 0.232804 0)
(2.27464 0.686216 0)
(2.08232 0.705021 0)
(1.96379 0.34754 0)
(1.95143 0.115254 0)
(1.96039 -0.0846818 0)
(1.97906 -0.195814 0)
(2.0269 -0.225763 0)
(2.09734 -0.203258 0)
(2.15796 -0.193192 0)
(2.20881 -0.188545 0)
(2.25881 -0.183844 0)
(2.30944 -0.169337 0)
(2.33546 -0.134243 0)
(2.33209 -0.0842548 0)
(2.32291 -0.0339675 0)
(2.31053 0.0162409 0)
(2.29252 0.0676827 0)
(2.29041 0.123846 0)
(2.92363 0.0260504 0)
(2.75729 0.141742 0)
(2.42076 0.475787 0)
(2.05473 0.575361 0)
(1.92153 0.335144 0)
(1.92567 0.151497 0)
(1.91797 -0.00205094 0)
(1.9502 -0.0898949 0)
(2.02133 -0.120129 0)
(2.09751 -0.125537 0)
(2.15348 -0.122999 0)
(2.19892 -0.120249 0)
(2.24633 -0.117838 0)
(2.29807 -0.111985 0)
(2.32832 -0.0985409 0)
(2.32704 -0.0695286 0)
(2.31623 -0.0416842 0)
(2.303 -0.011393 0)
(2.28554 0.0288247 0)
(2.28472 0.0855806 0)
(2.92957 0.0030672 0)
(2.79326 0.0233303 0)
(2.48338 0.125582 0)
(1.95664 0.189119 0)
(1.75871 0.189651 0)
(1.78899 0.113811 0)
(1.81512 0.0524587 0)
(1.88015 0.0136977 0)
(1.97114 0.00434291 0)
(2.05067 0.000351556 0)
(2.10805 0.00159929 0)
(2.15397 0.00098158 0)
(2.20397 -0.002878 0)
(2.26073 -0.00748647 0)
(2.29749 -0.00956949 0)
(2.30047 -0.00537051 0)
(2.29163 -0.00188165 0)
(2.28132 0.00309615 0)
(2.26858 0.0141644 0)
(2.27012 0.0400265 0)
)
;

boundaryField
{
    inlet
    {
        type            fixedValue;
        value           uniform (3 0 0);
    }
    outlet
    {
        type            inletOutlet;
        inletValue      uniform (3 0 0);
        value           nonuniform List<vector> 
20
(
(1.10623 0.0074734 0)
(1.25138 0.0188006 0)
(1.38863 0.00827477 0)
(1.51235 0.0261149 0)
(1.63776 0.0272861 0)
(1.76156 0.0342272 0)
(1.86135 0.0444628 0)
(1.95322 0.0511523 0)
(2.03315 0.0660234 0)
(2.10041 0.0741998 0)
(2.14666 0.0914583 0)
(2.17405 0.114228 0)
(2.19674 0.143017 0)
(2.2199 0.1698 0)
(2.24365 0.178306 0)
(2.26395 0.166681 0)
(2.28275 0.146311 0)
(2.29041 0.123846 0)
(2.28472 0.0855806 0)
(2.27012 0.0400265 0)
)
;
    }
    top
    {
        type            symmetryPlane;
    }
    bottom
    {
        type            symmetryPlane;
    }
    step
    {
        type            slip;
    }
    defaultFaces
    {
        type            empty;
    }
}


// ************************************************************************* //
