/*--------------------------------*- C++ -*----------------------------------*\
  =========                 |
  \\      /  F ield         | OpenFOAM: The Open Source CFD Toolbox
   \\    /   O peration     | Website:  https://openfoam.org
    \\  /    A nd           | Version:  6.0
     \\/     M anipulation  |
\*---------------------------------------------------------------------------*/
FoamFile
{
    version     2.0;
    format      ascii;
    class       volScalarField;
    location    "2.5";
    object      p;
}
// * * * * * * * * * * * * * * * * * * * * * * * * * * * * * * * * * * * * * //

dimensions      [1 -1 -2 0 0 0 0];

internalField   nonuniform List<scalar> 
24000
(
0.704228
0.583928
0.535223
0.502634
0.479593
0.477453
0.479318
0.48764
0.513354
0.583256
0.769489
1.30138
2.72342
3.51408
3.56355
3.59557
3.66756
3.85455
4.32703
5.31502
0.704227
0.583928
0.535222
0.502635
0.479588
0.477439
0.479301
0.487613
0.513302
0.583145
0.769236
1.30081
2.72283
3.51494
3.56424
3.59632
3.66858
3.85621
4.3297
5.31628
0.704225
0.583928
0.535219
0.502638
0.479575
0.477406
0.479263
0.487553
0.513187
0.58289
0.768628
1.29928
2.71995
3.51559
3.56522
3.59741
3.67008
3.85849
4.33309
5.32021
0.704223
0.583929
0.535216
0.502645
0.479555
0.477351
0.479198
0.487454
0.512993
0.582459
0.767581
1.2965
2.71386
3.51591
3.56645
3.5988
3.67197
3.86122
4.33715
5.32747
0.704221
0.58393
0.535211
0.502654
0.479523
0.47727
0.479103
0.487308
0.512709
0.581822
0.766006
1.29221
2.70369
3.51575
3.56773
3.60024
3.67395
3.86401
4.34118
5.33757
0.704221
0.583929
0.535205
0.502667
0.47948
0.477158
0.478972
0.487108
0.512319
0.580942
0.763807
1.28612
2.68851
3.51503
3.56891
3.60159
3.67585
3.8666
4.34458
5.3492
0.704225
0.583926
0.535197
0.502682
0.479422
0.477012
0.4788
0.486845
0.511806
0.579779
0.76088
1.27791
2.66737
3.51383
3.56988
3.60271
3.6775
3.86868
4.34679
5.36119
0.704231
0.583921
0.535187
0.502702
0.479348
0.476824
0.478581
0.486509
0.51115
0.578289
0.757112
1.26724
2.63923
3.51239
3.57066
3.60352
3.67863
3.8698
4.34707
5.37227
0.704238
0.583917
0.535174
0.502725
0.479255
0.47659
0.478307
0.48609
0.510331
0.576426
0.752382
1.25375
2.60302
3.51097
3.57132
3.60396
3.67897
3.86936
4.34461
5.38156
0.704246
0.583911
0.535157
0.502751
0.479139
0.476303
0.477971
0.485578
0.50933
0.574143
0.746564
1.23705
2.55755
3.51028
3.57207
3.604
3.67828
3.867
4.33818
5.38637
0.704256
0.583902
0.535138
0.502777
0.478996
0.475958
0.477568
0.484963
0.508127
0.571392
0.739534
1.21689
2.50079
3.51095
3.57266
3.60354
3.67642
3.86216
4.32685
5.38515
0.704267
0.583887
0.535117
0.502795
0.478828
0.475554
0.477097
0.48424
0.506704
0.568121
0.731138
1.19272
2.43201
3.51292
3.57329
3.60256
3.67294
3.85448
4.31104
5.37636
0.704278
0.583865
0.535096
0.502799
0.478634
0.475096
0.476558
0.483406
0.505042
0.564271
0.721226
1.16396
2.34993
3.51714
3.57418
3.6008
3.66716
3.84285
4.28922
5.3552
0.704289
0.583835
0.535076
0.502789
0.478419
0.474582
0.475951
0.482454
0.503123
0.559801
0.7097
1.13044
2.2529
3.52492
3.57517
3.59779
3.65812
3.82573
4.25891
5.31858
0.704302
0.583798
0.535056
0.502765
0.478179
0.474007
0.47527
0.481379
0.500945
0.554711
0.696573
1.09222
2.14078
3.53593
3.57517
3.59261
3.64487
3.80176
4.21775
5.26423
0.704316
0.583753
0.535037
0.502725
0.47792
0.473372
0.474515
0.480181
0.498517
0.549051
0.682024
1.04988
2.01537
3.54771
3.57321
3.58375
3.62608
3.7698
4.1634
5.18709
0.704333
0.583703
0.53503
0.502644
0.477704
0.472646
0.473659
0.478854
0.495883
0.542993
0.666608
1.00533
1.88296
3.5462
3.56597
3.56937
3.60137
3.7292
4.09197
5.07609
0.704346
0.583655
0.535042
0.502493
0.477665
0.471713
0.472612
0.477374
0.493144
0.536903
0.651502
0.963617
1.78373
3.50925
3.54723
3.54407
3.56804
3.67818
3.99912
4.91573
0.704357
0.583608
0.535071
0.502296
0.477695
0.470681
0.471461
0.475781
0.490269
0.5306
0.635903
0.917836
1.69052
3.43125
3.51405
3.50868
3.5247
3.60954
3.8689
4.67308
0.704373
0.583558
0.535111
0.502077
0.477744
0.469605
0.470265
0.474142
0.487364
0.524364
0.620819
0.875125
1.59052
3.32484
3.47084
3.46479
3.47175
3.52124
3.68671
4.28704
1.04777
1.03885
1.01539
0.980133
0.958111
0.959265
0.967117
0.993447
1.06482
1.24573
1.7103
3.00666
6.55409
7.73406
7.77155
7.78629
7.89792
8.29937
9.37477
10.5624
1.04777
1.03885
1.01539
0.980136
0.958093
0.959242
0.967081
0.993382
1.06468
1.24542
1.70957
3.00471
6.54973
7.73109
7.76907
7.78437
7.89672
8.29792
9.36846
10.5646
1.04777
1.03885
1.01539
0.980144
0.958053
0.959193
0.967006
0.993244
1.0644
1.24478
1.708
3.00044
6.53898
7.72437
7.76339
7.77992
7.89366
8.29441
9.35551
10.5701
1.04777
1.03884
1.01538
0.980157
0.957988
0.959114
0.966885
0.993022
1.06394
1.24374
1.70544
2.99335
6.52002
7.71392
7.75464
7.77307
7.88874
8.28883
9.33678
10.5776
1.04777
1.03884
1.01538
0.980175
0.957893
0.958997
0.966709
0.992705
1.06328
1.24225
1.70173
2.9829
6.49114
7.69982
7.74289
7.76369
7.88167
8.28082
9.31247
10.5854
1.04777
1.03884
1.01538
0.980199
0.957761
0.958836
0.966469
0.992274
1.0624
1.24023
1.69667
2.96851
6.45051
7.6822
7.72821
7.75175
7.8722
8.26995
9.28243
10.5914
1.04777
1.03884
1.01537
0.980229
0.957586
0.958624
0.966154
0.991712
1.06124
1.2376
1.69005
2.94955
6.39636
7.66125
7.71077
7.73723
7.8601
8.25563
9.24569
10.5933
1.04777
1.03884
1.01537
0.980267
0.95736
0.958352
0.965753
0.990999
1.05978
1.23427
1.68165
2.92539
6.32686
7.6374
7.69078
7.72016
7.84513
8.23737
9.20034
10.5896
1.04777
1.03884
1.01536
0.980311
0.957077
0.95801
0.965252
0.990114
1.05797
1.23014
1.67123
2.89534
6.24006
7.61126
7.66855
7.70055
7.82698
8.21483
9.14418
10.5771
1.04777
1.03883
1.01535
0.980361
0.956726
0.95759
0.964638
0.989037
1.05577
1.22512
1.65855
2.85869
6.1339
7.58381
7.64431
7.6783
7.80514
8.18671
9.07654
10.5524
1.04777
1.03883
1.01533
0.980406
0.956301
0.957083
0.963905
0.987752
1.05315
1.21913
1.64334
2.81459
6.0061
7.55614
7.61863
7.65337
7.77882
8.15136
8.99692
10.5119
1.04776
1.03882
1.0153
0.980426
0.955807
0.956494
0.963053
0.986255
1.05007
1.21205
1.62535
2.76228
5.85424
7.52931
7.59218
7.62558
7.74722
8.1075
8.90438
10.4509
1.04775
1.0388
1.01525
0.980379
0.955279
0.955857
0.962104
0.984541
1.04649
1.20379
1.60432
2.70114
5.67586
7.50492
7.56515
7.59461
7.70933
8.05377
8.8022
10.356
1.04773
1.03876
1.01517
0.980275
0.954722
0.955173
0.961054
0.982595
1.04238
1.19424
1.58002
2.63065
5.4689
7.48494
7.53727
7.55937
7.66351
7.9882
8.68665
10.2224
1.04771
1.03872
1.01508
0.980137
0.954103
0.954413
0.959883
0.980408
1.03773
1.18341
1.55249
2.55089
5.23284
7.46974
7.50726
7.51803
7.60772
7.90779
8.55007
10.0489
1.04768
1.03868
1.01498
0.979965
0.953424
0.953575
0.958582
0.97797
1.03255
1.17138
1.52196
2.46275
4.97019
7.45585
7.4724
7.46791
7.54103
7.81092
8.38719
9.82454
1.04765
1.03863
1.01489
0.979732
0.952789
0.95258
0.957104
0.975279
1.02691
1.15839
1.48919
2.36877
4.68923
7.43116
7.42816
7.40427
7.46321
7.69588
8.19168
9.53497
1.04763
1.03859
1.0148
0.979419
0.952453
0.951102
0.955302
0.972349
1.02098
1.14487
1.45549
2.27433
4.41485
7.37974
7.37001
7.32505
7.36944
7.55766
7.95345
9.14805
1.0476
1.03855
1.01473
0.979051
0.952192
0.949469
0.953332
0.969212
1.01475
1.13082
1.42076
2.17982
4.13654
7.29236
7.28724
7.23257
7.25857
7.38919
7.65771
8.62439
1.04757
1.03851
1.01466
0.978654
0.951941
0.947768
0.951278
0.965954
1.00831
1.11637
1.38528
2.08359
3.85679
7.16082
7.18987
7.1322
7.12832
7.18137
7.28313
7.88357
1.07501
1.13281
1.14766
1.14604
1.14597
1.15034
1.16659
1.21055
1.31876
1.58175
2.24959
4.13938
9.57025
10.4395
10.3764
10.2605
10.3815
10.8648
12.1367
12.9266
1.07501
1.13281
1.14766
1.14605
1.14596
1.15031
1.16655
1.21047
1.31858
1.58136
2.24864
4.1367
9.56367
10.433
10.3689
10.256
10.3788
10.863
12.1224
12.9237
1.075
1.13281
1.14766
1.14605
1.14591
1.15026
1.16647
1.21031
1.31823
1.58055
2.24663
4.131
9.54796
10.4186
10.3531
10.2456
10.3715
10.8576
12.0908
12.9167
1.075
1.13281
1.14767
1.14606
1.14585
1.15018
1.16634
1.21005
1.31767
1.57926
2.24341
4.12174
9.52081
10.3965
10.3302
10.23
10.3593
10.848
12.0449
12.9042
1.075
1.1328
1.14767
1.14608
1.14575
1.15006
1.16615
1.20968
1.31688
1.57742
2.23879
4.10828
9.48018
10.3669
10.3007
10.2091
10.342
10.8331
11.9867
12.8847
1.075
1.1328
1.14768
1.1461
1.14561
1.1499
1.16589
1.20918
1.31581
1.57494
2.23254
4.08994
9.42402
10.3302
10.2649
10.183
10.3195
10.8119
11.917
12.8564
1.075
1.13281
1.14769
1.14612
1.14543
1.14968
1.16555
1.20854
1.31442
1.57174
2.22441
4.06602
9.35041
10.2867
10.2235
10.1519
10.2915
10.7839
11.8354
12.8174
1.075
1.13281
1.14771
1.14615
1.14519
1.14939
1.16511
1.20772
1.31268
1.5677
2.21415
4.03577
9.25739
10.2367
10.1768
10.1158
10.258
10.7486
11.7397
12.7653
1.075
1.13281
1.14772
1.14619
1.14489
1.14904
1.16457
1.20671
1.31053
1.56273
2.20151
3.99846
9.143
10.1811
10.1256
10.0749
10.2189
10.7083
11.6262
12.6968
1.075
1.13281
1.14774
1.14623
1.14451
1.1486
1.16391
1.20548
1.30793
1.55672
2.1862
3.95331
9.00524
10.1204
10.0704
10.0288
10.1734
10.6589
11.4969
12.6087
1.07499
1.1328
1.14775
1.14626
1.14406
1.14807
1.16312
1.20402
1.30484
1.54956
2.16795
3.89946
8.84208
10.0556
10.0123
9.97755
10.1207
10.5977
11.353
12.498
1.07499
1.1328
1.14773
1.14626
1.14353
1.14745
1.16221
1.20233
1.30124
1.54117
2.14647
3.83613
8.65115
9.98822
9.95197
9.9205
10.0598
10.5226
11.1942
12.3602
1.07497
1.13281
1.14763
1.14612
1.14302
1.14683
1.16121
1.20039
1.29706
1.53139
2.12147
3.76261
8.43002
9.91989
9.89023
9.85688
9.98969
10.4319
11.0219
12.1888
1.07494
1.13281
1.14746
1.14589
1.14254
1.14619
1.16012
1.19821
1.29226
1.52013
2.0927
3.67831
8.17642
9.85282
9.82712
9.78531
9.90866
10.3236
10.8345
11.9755
1.07491
1.13281
1.14725
1.14562
1.14199
1.14548
1.15891
1.19575
1.28684
1.50737
2.06008
3.58305
7.88886
9.78914
9.76129
9.70434
9.8152
10.1951
10.6241
11.7171
1.07488
1.13282
1.14701
1.14531
1.14138
1.14469
1.15756
1.19302
1.28079
1.49314
2.02374
3.47726
7.56783
9.72761
9.69061
9.61211
9.70805
10.0446
10.3852
11.4019
1.07484
1.13282
1.14676
1.14497
1.14073
1.14382
1.15606
1.18999
1.27414
1.47756
1.98411
3.36239
7.21716
9.6626
9.61297
9.50669
9.58616
9.86884
10.1113
11.0149
1.0748
1.13282
1.1465
1.14462
1.14006
1.14286
1.15437
1.18664
1.26692
1.46083
1.94183
3.24083
6.84416
9.58765
9.52576
9.3905
9.44941
9.66471
9.794
10.5278
1.07475
1.13282
1.14623
1.14425
1.13937
1.14183
1.15254
1.18303
1.2592
1.44303
1.89707
3.11303
6.44723
9.49846
9.42597
9.26709
9.29804
9.42774
9.42429
9.90442
1.07471
1.13283
1.14595
1.14387
1.13864
1.14076
1.15062
1.17923
1.25105
1.42423
1.84983
2.97823
6.0324
9.39099
9.319
9.14991
9.12992
9.15078
8.98971
9.07728
1.04234
1.10626
1.14053
1.15923
1.17542
1.18829
1.2154
1.27528
1.41173
1.73439
2.552
4.91659
12.0339
12.3167
11.9965
11.6999
11.821
12.3243
13.3734
13.792
1.04234
1.10626
1.14053
1.15923
1.17541
1.18827
1.21536
1.27521
1.41157
1.73401
2.55106
4.91385
12.0266
12.3069
11.9832
11.693
11.8178
12.3254
13.3524
13.7828
1.04234
1.10626
1.14053
1.15924
1.17539
1.18824
1.21529
1.27505
1.41122
1.73321
2.54909
4.908
12.0086
12.2848
11.9557
11.6767
11.8075
12.3235
13.3044
13.761
1.04234
1.10625
1.14053
1.15925
1.17536
1.18818
1.21517
1.2748
1.41068
1.73195
2.54591
4.89847
11.9771
12.2512
11.9172
11.6519
11.7895
12.3166
13.2355
13.7242
1.04233
1.10625
1.14053
1.15926
1.17531
1.18809
1.215
1.27445
1.4099
1.73015
2.54134
4.88464
11.9301
12.2063
11.869
11.6194
11.7637
12.3012
13.1504
13.6726
1.04233
1.10625
1.14053
1.15928
1.17524
1.18796
1.21476
1.27397
1.40886
1.72772
2.53516
4.86582
11.8658
12.1504
11.812
11.5795
11.73
12.2755
13.0505
13.6055
1.04233
1.10626
1.14054
1.15931
1.17514
1.1878
1.21446
1.27336
1.40752
1.72459
2.52714
4.84133
11.7825
12.0837
11.7471
11.5323
11.6882
12.2387
12.9354
13.5226
1.04233
1.10626
1.14054
1.15934
1.17502
1.18759
1.21407
1.27258
1.40582
1.72064
2.51704
4.81047
11.6785
12.0064
11.6752
11.4783
11.6382
12.1906
12.8052
13.4221
1.04233
1.10626
1.14054
1.15938
1.17485
1.18732
1.21359
1.27161
1.40374
1.7158
2.50461
4.77256
11.5523
11.9192
11.5973
11.4174
11.5799
12.131
12.6584
13.3026
1.04233
1.10626
1.14054
1.15942
1.17464
1.18699
1.213
1.27044
1.40122
1.70995
2.48961
4.72687
11.4024
11.8225
11.5144
11.3496
11.5127
12.0578
12.4971
13.1618
1.04232
1.10627
1.14054
1.15946
1.17438
1.18658
1.21229
1.26905
1.39823
1.703
2.47177
4.67267
11.2274
11.7169
11.4275
11.2746
11.4358
11.9686
12.3205
12.9978
1.04231
1.10627
1.14051
1.15946
1.17407
1.18611
1.21147
1.26744
1.39475
1.69486
2.45082
4.60923
11.0258
11.6035
11.3379
11.1919
11.3485
11.862
12.1303
12.8059
1.0423
1.10628
1.14044
1.15937
1.17375
1.18561
1.21056
1.2656
1.39073
1.68541
2.4265
4.5359
10.7957
11.4838
11.2467
11.1009
11.2501
11.7363
11.9257
12.5831
1.04228
1.1063
1.14033
1.1592
1.17343
1.18508
1.20957
1.26353
1.38612
1.67454
2.39853
4.45201
10.5351
11.3603
11.1543
11.0005
11.1392
11.5904
11.7051
12.3229
1.04226
1.10632
1.14019
1.15899
1.17309
1.18451
1.20846
1.26119
1.38089
1.66217
2.36673
4.35699
10.2412
11.2395
11.0581
10.8901
11.0155
11.4216
11.4623
12.0223
1.04222
1.10635
1.14002
1.15876
1.1727
1.18386
1.20722
1.25858
1.37503
1.64829
2.331
4.25058
9.91158
11.1249
10.9546
10.7696
10.8784
11.2284
11.1943
11.6694
1.04219
1.10638
1.13984
1.15851
1.17225
1.18313
1.20584
1.25568
1.36852
1.63288
2.29139
4.13303
9.54695
11.0116
10.8486
10.6407
10.7284
11.0067
10.8945
11.2528
1.04216
1.10641
1.13965
1.15827
1.17174
1.18234
1.20434
1.2525
1.36137
1.61595
2.24791
4.00448
9.14588
10.8985
10.7423
10.5071
10.5674
10.7562
10.557
10.747
1.04212
1.10644
1.13943
1.15803
1.17118
1.18148
1.20272
1.24904
1.35357
1.59748
2.2005
3.86448
8.70491
10.7888
10.6383
10.3745
10.3965
10.4756
10.1726
10.1184
1.04208
1.10648
1.13921
1.15779
1.1706
1.18057
1.201
1.24534
1.34518
1.5775
2.14899
3.71222
8.22103
10.6887
10.5395
10.2566
10.2126
10.1719
9.73356
9.2878
1.01505
1.05567
1.09233
1.1188
1.14261
1.15949
1.19327
1.26396
1.4198
1.78355
2.70756
5.44033
14.0133
13.7315
12.9387
12.487
12.5987
13.0875
13.6825
13.8965
1.01505
1.05566
1.09233
1.1188
1.14261
1.15948
1.19324
1.2639
1.41966
1.78323
2.70678
5.43795
14.0054
13.7181
12.9205
12.4778
12.5952
13.0909
13.6607
13.8839
1.01505
1.05566
1.09232
1.1188
1.14261
1.15946
1.19318
1.26377
1.41937
1.78256
2.70512
5.43278
13.9854
13.6892
12.8825
12.4554
12.5816
13.0893
13.6095
13.8525
1.01505
1.05566
1.09232
1.1188
1.1426
1.15942
1.1931
1.26357
1.41891
1.78149
2.70241
5.42423
13.9504
13.6456
12.8297
12.4212
12.5567
13.0798
13.5355
13.8005
1.01505
1.05566
1.09232
1.11881
1.14258
1.15937
1.19297
1.26328
1.41826
1.77995
2.69847
5.41169
13.8989
13.5878
12.7646
12.3772
12.5218
13.0581
13.4443
13.7294
1.01505
1.05567
1.09231
1.11883
1.14256
1.1593
1.19279
1.26288
1.41737
1.77787
2.69312
5.39453
13.8293
13.5156
12.6889
12.324
12.4769
13.0229
13.3378
13.6398
1.01505
1.05567
1.09231
1.11884
1.14253
1.1592
1.19256
1.26237
1.41622
1.77517
2.68614
5.37212
13.7403
13.4292
12.6039
12.2622
12.4218
12.9732
13.2151
13.533
1.01505
1.05567
1.0923
1.11886
1.14248
1.15907
1.19226
1.26172
1.41477
1.77176
2.67733
5.34388
13.6309
13.3286
12.5109
12.1921
12.3567
12.9088
13.0789
13.4084
1.01505
1.05568
1.09229
1.11889
1.14242
1.15891
1.19189
1.26091
1.41298
1.76757
2.66646
5.3092
13.5
13.2135
12.4116
12.114
12.2814
12.8285
12.9276
13.2658
1.01504
1.05568
1.09228
1.11892
1.14234
1.1587
1.19144
1.25993
1.41081
1.7625
2.65333
5.26744
13.3466
13.0845
12.3069
12.0277
12.1956
12.732
12.764
13.1027
1.01504
1.05568
1.09226
1.11895
1.14222
1.15845
1.19089
1.25876
1.40824
1.75648
2.6377
5.21798
13.1703
12.9415
12.1984
11.9335
12.0988
12.6172
12.5858
12.9185
1.01504
1.05569
1.09224
1.11895
1.14208
1.15815
1.19026
1.2574
1.40523
1.7494
2.6193
5.16017
12.9702
12.7851
12.087
11.8309
11.9907
12.4842
12.396
12.7088
1.01503
1.0557
1.09221
1.1189
1.14192
1.15784
1.18955
1.25584
1.40175
1.74119
2.59793
5.09351
12.7453
12.6159
11.9748
11.7197
11.871
12.3308
12.1912
12.4728
1.01502
1.05571
1.09216
1.11881
1.14175
1.15751
1.18876
1.25407
1.39775
1.73171
2.5733
5.01727
12.4941
12.4362
11.8624
11.5996
11.7393
12.157
11.9709
12.2046
1.01501
1.05573
1.09211
1.11869
1.14155
1.15716
1.18787
1.25205
1.39318
1.72087
2.54515
4.93057
12.2129
12.2577
11.7447
11.471
11.5959
11.9604
11.7302
11.9017
1.01499
1.05575
1.09204
1.11855
1.14133
1.15675
1.18687
1.24978
1.38802
1.70859
2.51324
4.83264
11.8974
12.0904
11.6154
11.3357
11.4417
11.7402
11.4665
11.5527
1.01497
1.05578
1.09195
1.11841
1.14108
1.1563
1.18575
1.24723
1.38221
1.69477
2.47735
4.72293
11.5483
11.9224
11.4893
11.1971
11.2784
11.4936
11.1733
11.1466
1.01496
1.0558
1.09186
1.11827
1.14077
1.1558
1.18451
1.24441
1.37574
1.67932
2.43717
4.60055
11.1614
11.7529
11.3749
11.0592
11.1074
11.2217
10.845
10.6577
1.01494
1.05583
1.09174
1.11815
1.14043
1.15526
1.18316
1.24129
1.36857
1.66212
2.39233
4.46414
10.7308
11.5918
11.2774
10.9278
10.9283
10.9271
10.4682
10.0514
1.01492
1.05587
1.09162
1.11803
1.14007
1.1547
1.1817
1.23789
1.36069
1.6431
2.34245
4.31199
10.2415
11.4583
11.197
10.8136
10.7369
10.6166
10.0267
9.24842
1.00391
1.02013
1.04471
1.06798
1.0919
1.11019
1.14684
1.22325
1.39037
1.77864
2.77129
5.7752
15.5686
14.7983
13.4735
12.8572
12.9428
13.3768
13.567
13.6981
1.00391
1.02013
1.04471
1.06797
1.0919
1.11019
1.14682
1.2232
1.39026
1.7784
2.77072
5.77339
15.5599
14.7815
13.4526
12.8451
12.9384
13.3789
13.5495
13.6854
1.00391
1.02013
1.04471
1.06797
1.0919
1.11017
1.14679
1.22311
1.39005
1.77789
2.76946
5.7693
15.5378
14.7464
13.4081
12.8155
12.9203
13.3723
13.505
13.6514
1.00391
1.02013
1.04471
1.06797
1.0919
1.11016
1.14673
1.22296
1.3897
1.77706
2.76737
5.7623
15.4995
14.6949
13.3453
12.7711
12.8873
13.3535
13.438
13.5943
1.00391
1.02013
1.0447
1.06797
1.0919
1.11013
1.14664
1.22274
1.38919
1.77586
2.76429
5.75179
15.4438
14.6277
13.2677
12.7157
12.8423
13.3193
13.3548
13.5183
1.00391
1.02013
1.0447
1.06797
1.0919
1.11009
1.14652
1.22244
1.3885
1.77422
2.76004
5.73716
15.3694
14.5449
13.1773
12.6501
12.7859
13.2703
13.2579
13.4242
1.00391
1.02014
1.04469
1.06798
1.09189
1.11003
1.14636
1.22206
1.38759
1.77206
2.75443
5.71785
15.2754
14.4465
13.0758
12.5751
12.7183
13.2048
13.1464
13.3132
1.00391
1.02014
1.04469
1.06799
1.09189
1.10996
1.14615
1.22156
1.38644
1.76932
2.74729
5.69334
15.1611
14.3328
12.9647
12.4913
12.6399
13.1234
13.0228
13.1845
1.00391
1.02014
1.04468
1.068
1.09188
1.10987
1.1459
1.22095
1.38502
1.76594
2.73845
5.66315
15.026
14.2032
12.8458
12.3992
12.5507
13.0246
12.8858
13.0385
1.00391
1.02014
1.04467
1.06801
1.09186
1.10976
1.14558
1.2202
1.38329
1.76183
2.7277
5.62676
14.8696
14.0581
12.7199
12.299
12.4509
12.9096
12.7375
12.8755
1.00391
1.02014
1.04465
1.06801
1.09183
1.10962
1.1452
1.21931
1.38124
1.75694
2.71487
5.58363
14.6915
13.8975
12.5887
12.1908
12.3403
12.7765
12.5756
12.6944
1.00391
1.02014
1.04464
1.06801
1.09179
1.10944
1.14475
1.21826
1.37882
1.75119
2.6997
5.53318
14.4914
13.7219
12.4529
12.075
12.219
12.6265
12.4018
12.4931
1.00391
1.02014
1.04463
1.06799
1.09173
1.10925
1.14424
1.21705
1.37601
1.74448
2.68201
5.47493
14.2687
13.5319
12.3142
11.9515
12.0871
12.4574
12.2131
12.2697
1.00391
1.02015
1.04462
1.06795
1.09165
1.10906
1.14366
1.21565
1.37276
1.7367
2.66151
5.40818
14.0226
13.3292
12.1735
11.8211
11.9452
12.2701
12.0084
12.0203
1.00391
1.02015
1.04461
1.0679
1.09157
1.10885
1.14301
1.21405
1.36902
1.72774
2.63792
5.33209
13.7517
13.1194
12.029
11.6848
11.7939
12.062
11.7835
11.7384
1.00391
1.02016
1.04459
1.06783
1.09146
1.1086
1.14226
1.21222
1.36475
1.71749
2.61092
5.24573
13.4536
12.9058
11.8826
11.5452
11.6353
11.8328
11.5357
11.4139
1.00391
1.02016
1.04457
1.06776
1.09135
1.10833
1.14141
1.21015
1.35989
1.70582
2.58016
5.14817
13.1268
12.682
11.7474
11.4061
11.4708
11.5815
11.2573
11.0329
1.00391
1.02017
1.04454
1.0677
1.0912
1.10802
1.14045
1.20781
1.3544
1.69258
2.54523
5.03814
12.7675
12.4461
11.6354
11.2709
11.2996
11.312
10.9381
10.5704
1.00391
1.02018
1.04449
1.06765
1.09104
1.10768
1.13939
1.20519
1.34821
1.6776
2.50557
4.91373
12.3696
12.2101
11.552
11.1455
11.1177
11.0285
10.5591
9.98788
1.00391
1.02018
1.04444
1.0676
1.09085
1.10735
1.13824
1.20229
1.34129
1.66074
2.46071
4.77278
11.9123
12.0055
11.4949
11.0324
10.9233
10.7197
10.1104
9.20706
1.00094
1.00524
1.01474
1.0297
1.04834
1.06655
1.10336
1.18077
1.3514
1.75079
2.78121
5.97327
16.766
15.5556
13.7806
12.977
13.0098
13.3583
13.3096
13.4066
1.00094
1.00524
1.01474
1.0297
1.04834
1.06654
1.10334
1.18074
1.35132
1.75063
2.78082
5.97209
16.7561
15.5365
13.7587
12.9611
13.0046
13.3568
13.2989
13.3977
1.00094
1.00524
1.01474
1.0297
1.04834
1.06654
1.10332
1.18067
1.35117
1.75027
2.77995
5.96917
16.7316
15.4971
13.7107
12.9229
12.9823
13.342
13.2662
13.3689
1.00094
1.00524
1.01474
1.02969
1.04835
1.06652
1.10327
1.18057
1.35092
1.74967
2.77845
5.96387
16.6902
15.4399
13.6419
12.8677
12.9413
13.3107
13.2129
13.3171
1.00094
1.00524
1.01474
1.02969
1.04835
1.0665
1.10321
1.18041
1.35055
1.74879
2.77618
5.95556
16.6307
15.3664
13.5564
12.8011
12.8872
13.2637
13.1456
13.2488
1.00094
1.00524
1.01473
1.02969
1.04835
1.06648
1.10313
1.18019
1.35004
1.74756
2.77297
5.94365
16.5521
15.2768
13.4564
12.7241
12.8212
13.2014
13.0666
13.1648
1.00094
1.00524
1.01473
1.02969
1.04835
1.06644
1.10301
1.17991
1.34936
1.74592
2.76866
5.9276
16.4539
15.1717
13.344
12.6377
12.7437
13.1232
12.9752
13.0656
1.00094
1.00524
1.01473
1.02969
1.04835
1.0664
1.10287
1.17954
1.34849
1.74381
2.76311
5.90693
16.3354
15.0513
13.2204
12.5429
12.6554
13.03
12.8723
12.9506
1.00094
1.00524
1.01472
1.02969
1.04836
1.06634
1.10269
1.17908
1.3474
1.74118
2.75616
5.88123
16.1965
14.9153
13.0876
12.44
12.5569
12.9214
12.7565
12.8201
1.00094
1.00524
1.01472
1.02968
1.04836
1.06627
1.10246
1.17852
1.34607
1.73798
2.74768
5.85012
16.037
14.7639
12.946
12.3297
12.4488
12.7985
12.6286
12.6743
1.00094
1.00524
1.01472
1.02968
1.04835
1.06618
1.10219
1.17785
1.34448
1.73413
2.73749
5.81303
15.8565
14.597
12.7979
12.2124
12.3312
12.6602
12.4868
12.5121
1.00094
1.00523
1.01471
1.02967
1.04834
1.06607
1.10186
1.17705
1.3426
1.72955
2.72532
5.76942
15.6547
14.4157
12.6436
12.0886
12.2043
12.5074
12.3314
12.3322
1.00094
1.00523
1.01471
1.02966
1.04832
1.06593
1.10148
1.17612
1.34039
1.7242
2.71102
5.71873
15.4314
14.2204
12.4847
11.9588
12.0685
12.3385
12.1597
12.1309
1.00094
1.00523
1.01471
1.02965
1.0483
1.06578
1.10104
1.17504
1.33782
1.71796
2.69434
5.66039
15.1864
14.0116
12.3228
11.8243
11.9248
12.1538
11.9709
11.9048
1.00094
1.00523
1.01471
1.02962
1.04826
1.06559
1.10053
1.17378
1.33485
1.71072
2.675
5.59372
14.9192
13.7902
12.1595
11.6865
11.7743
11.9504
11.7602
11.6457
1.00094
1.00523
1.01471
1.0296
1.04822
1.06538
1.09994
1.17234
1.33143
1.70238
2.6527
5.51786
14.6289
13.5563
11.9992
11.5482
11.6202
11.7272
11.5247
11.3441
1.00094
1.00523
1.0147
1.02957
1.04817
1.06514
1.09926
1.17069
1.32749
1.69278
2.62704
5.43178
14.3135
13.3086
11.8503
11.4124
11.4605
11.4864
11.2541
10.9819
1.00094
1.00523
1.0147
1.02954
1.04811
1.06486
1.09849
1.16879
1.32298
1.68177
2.59757
5.33424
13.9705
13.0477
11.7223
11.2821
11.2908
11.2373
10.9337
10.5348
1.00094
1.00523
1.01469
1.02951
1.04804
1.06455
1.09762
1.16665
1.31785
1.66918
2.56374
5.22342
13.5945
12.7824
11.6222
11.1643
11.1116
10.9655
10.5495
9.96131
1.00094
1.00523
1.01467
1.02948
1.04795
1.06423
1.09667
1.16424
1.31204
1.65483
2.52505
5.0972
13.1691
12.5365
11.5543
11.053
10.9173
10.6611
10.0932
9.18013
1.0002
1.0011
1.00354
1.0093
1.02106
1.03818
1.0734
1.149
1.31832
1.71953
2.76585
6.07727
17.6444
16.0587
13.9495
12.9718
12.925
13.1773
13.0652
13.1595
1.0002
1.0011
1.00354
1.0093
1.02106
1.03817
1.07339
1.14898
1.31827
1.71942
2.76559
6.07667
17.6334
16.0383
13.9276
12.9511
12.9194
13.172
13.0596
13.1548
1.0002
1.0011
1.00354
1.0093
1.02106
1.03816
1.07337
1.14893
1.31816
1.71916
2.76499
6.07487
17.607
15.9957
13.8783
12.9031
12.8945
13.1488
13.0365
13.1348
1.0002
1.0011
1.00354
1.0093
1.02106
1.03815
1.07334
1.14885
1.31798
1.71874
2.76391
6.07116
17.5631
15.9345
13.8065
12.8371
12.8485
13.1073
12.9945
13.0949
1.0002
1.0011
1.00354
1.0093
1.02106
1.03814
1.07329
1.14874
1.31771
1.71808
2.76222
6.06489
17.5007
15.8566
13.7168
12.76
12.789
13.0521
12.9412
13.0408
1.0002
1.0011
1.00354
1.0093
1.02105
1.03811
1.07323
1.14858
1.31733
1.71714
2.75976
6.05548
17.4189
15.7629
13.6116
12.6731
12.7177
12.9823
12.8777
12.9734
1.0002
1.0011
1.00354
1.00929
1.02105
1.03808
1.07314
1.14836
1.31681
1.71587
2.7564
6.04239
17.3175
15.6537
13.4933
12.5774
12.6349
12.899
12.8037
12.8925
1.0002
1.0011
1.00354
1.00929
1.02104
1.03804
1.07302
1.14807
1.31613
1.71422
2.75199
6.02516
17.1961
15.5297
13.3627
12.4743
12.5414
12.8035
12.7184
12.7972
1.0002
1.0011
1.00353
1.00929
1.02103
1.03799
1.07288
1.14772
1.31528
1.71214
2.74641
6.00339
17.0546
15.3907
13.222
12.3639
12.4383
12.6955
12.6204
12.687
1.00019
1.0011
1.00353
1.00928
1.02102
1.03793
1.0727
1.14728
1.31424
1.70959
2.73957
5.97686
16.893
15.2367
13.0714
12.2473
12.3267
12.5762
12.5096
12.5617
1.00019
1.0011
1.00353
1.00927
1.02101
1.03785
1.07248
1.14675
1.31298
1.70651
2.73131
5.94487
16.7112
15.0674
12.9135
12.1245
12.2068
12.4444
12.3835
12.4196
1.00019
1.0011
1.00352
1.00926
1.02099
1.03775
1.07222
1.14612
1.31148
1.70282
2.72139
5.90684
16.5085
14.8846
12.7485
11.9968
12.0795
12.3008
12.2426
12.2598
1.00019
1.00109
1.00352
1.00925
1.02097
1.03764
1.07191
1.14537
1.3097
1.69846
2.70967
5.86216
16.2846
14.6893
12.578
11.8644
11.9449
12.143
12.0834
12.0771
1.00019
1.00109
1.00351
1.00924
1.02094
1.0375
1.07155
1.14449
1.30761
1.69335
2.69592
5.81041
16.0396
14.4808
12.4037
11.7293
11.8044
11.9714
11.9056
11.8684
1.00019
1.00109
1.00351
1.00922
1.02091
1.03734
1.07112
1.14346
1.30519
1.68741
2.67995
5.75107
15.7735
14.2581
12.2288
11.5926
11.6589
11.7813
11.7033
11.6245
1.00019
1.00109
1.0035
1.00921
1.02087
1.03716
1.07062
1.14228
1.30238
1.68053
2.66147
5.68342
15.4857
14.0205
12.0576
11.4573
11.5115
11.5718
11.4735
11.3367
1.00019
1.00108
1.00349
1.00918
1.02082
1.03694
1.07005
1.1409
1.29914
1.67257
2.64009
5.60637
15.1746
13.7691
11.8962
11.3253
11.3573
11.3466
11.2039
10.9837
1.00019
1.00108
1.00348
1.00916
1.02076
1.03669
1.06939
1.13932
1.29539
1.66339
2.61529
5.51885
14.8388
13.5054
11.7524
11.2001
11.1915
11.1138
10.8796
10.5412
1.00019
1.00108
1.00347
1.00913
1.0207
1.0364
1.06863
1.13752
1.2911
1.65283
2.58659
5.41917
14.4738
13.2364
11.6341
11.0873
11.0167
10.8485
10.4913
9.96478
1.00019
1.00107
1.00346
1.0091
1.02062
1.03608
1.06779
1.13547
1.28622
1.64073
2.55352
5.30559
14.0679
12.9802
11.5498
10.9779
10.823
10.5471
10.0314
9.16901
1.00006
1.00036
1.0012
1.00365
1.01002
1.02461
1.05706
1.12967
1.29595
1.69506
2.74512
6.12428
18.2243
16.3595
14.0341
12.9283
12.7851
12.9325
12.8985
12.9972
1.00006
1.00036
1.0012
1.00365
1.01002
1.0246
1.05705
1.12965
1.29591
1.69498
2.74494
6.12413
18.2124
16.3383
14.0123
12.9031
12.7786
12.9245
12.8958
12.9989
1.00006
1.00036
1.0012
1.00365
1.01002
1.0246
1.05704
1.12962
1.29583
1.69479
2.74452
6.12319
18.1847
16.2938
13.9623
12.8464
12.7514
12.8968
12.8781
12.9905
1.00006
1.00036
1.0012
1.00365
1.01001
1.02458
1.05701
1.12956
1.29569
1.69447
2.74373
6.1207
18.139
16.2301
13.8888
12.7705
12.7037
12.8511
12.8428
12.9678
1.00006
1.00036
1.00119
1.00364
1.01001
1.02457
1.05697
1.12947
1.29548
1.69396
2.74243
6.11601
18.0747
16.1493
13.7971
12.6838
12.644
12.7942
12.7972
12.9319
1.00006
1.00035
1.00119
1.00364
1.01
1.02454
1.05691
1.12933
1.29517
1.69322
2.7405
6.10851
17.991
16.0527
13.6897
12.5881
12.5736
12.7257
12.7421
12.8829
1.00006
1.00035
1.00119
1.00364
1.00998
1.02451
1.05684
1.12915
1.29475
1.69219
2.73778
6.09766
17.8877
15.9408
13.5689
12.4848
12.4914
12.6471
12.6766
12.8211
1.00006
1.00035
1.00119
1.00363
1.00997
1.02447
1.05674
1.12892
1.29419
1.69083
2.73415
6.08298
17.7647
15.8145
13.4353
12.3756
12.3977
12.5592
12.5999
12.7443
1.00006
1.00035
1.00118
1.00362
1.00994
1.02442
1.05661
1.12862
1.29349
1.6891
2.72949
6.06406
17.6218
15.6739
13.2908
12.2606
12.2944
12.4616
12.5103
12.6522
1.00006
1.00035
1.00118
1.00361
1.00992
1.02435
1.05646
1.12825
1.29262
1.68695
2.72369
6.04053
17.4589
15.5194
13.136
12.1404
12.1831
12.3543
12.4073
12.5433
1.00006
1.00035
1.00117
1.0036
1.00989
1.02427
1.05627
1.1278
1.29155
1.68433
2.71661
6.01184
17.276
15.3507
12.9733
12.0151
12.0647
12.2361
12.2888
12.4163
1.00006
1.00035
1.00117
1.00358
1.00985
1.02418
1.05604
1.12726
1.29027
1.68118
2.70806
5.97743
17.0728
15.1689
12.803
11.8859
11.9401
12.1069
12.1548
12.2697
1.00006
1.00034
1.00116
1.00356
1.0098
1.02407
1.05576
1.12662
1.28875
1.67742
2.69788
5.9368
16.8491
14.9744
12.6273
11.7532
11.8093
11.9646
12.0014
12.0978
1.00006
1.00034
1.00115
1.00354
1.00975
1.02393
1.05544
1.12586
1.28696
1.673
2.6859
5.88954
16.6048
14.7668
12.4476
11.6189
11.6736
11.8088
11.8284
11.898
1.00006
1.00034
1.00114
1.00351
1.00969
1.02377
1.05506
1.12497
1.28486
1.66785
2.67195
5.83533
16.3398
14.5448
12.267
11.4842
11.5334
11.6348
11.6292
11.6601
1.00006
1.00033
1.00113
1.00348
1.00961
1.02359
1.05462
1.12394
1.28244
1.6619
2.65586
5.77344
16.0537
14.3077
12.0898
11.3515
11.391
11.4395
11.4002
11.3776
1.00006
1.00033
1.00111
1.00345
1.00953
1.02338
1.05411
1.12275
1.27963
1.655
2.63726
5.70276
15.7448
14.0585
11.9204
11.2225
11.2416
11.2263
11.1289
11.0267
1.00006
1.00032
1.0011
1.00341
1.00943
1.02314
1.05353
1.12138
1.27639
1.64705
2.61575
5.62221
15.4122
13.7992
11.766
11.1016
11.0808
11.0003
10.8019
10.5823
1.00005
1.00031
1.00108
1.00336
1.00932
1.02286
1.05285
1.1198
1.27266
1.63786
2.59083
5.53013
15.052
13.536
11.635
10.9912
10.9092
10.7384
10.4131
9.99723
1.00005
1.00031
1.00106
1.00331
1.00919
1.02254
1.05209
1.118
1.2684
1.62729
2.56195
5.42516
14.6549
13.2867
11.537
10.8828
10.7151
10.4396
9.95225
9.18678
1.00007
1.00036
1.00108
1.00301
1.00804
1.0207
1.05089
1.12107
1.2849
1.68188
2.7316
6.1407
18.513
16.4994
14.0683
12.895
12.6888
12.7683
12.8134
12.9216
1.00007
1.00036
1.00108
1.003
1.00804
1.0207
1.05088
1.12105
1.28487
1.68181
2.73146
6.14079
18.5008
16.4778
14.0465
12.8672
12.6807
12.762
12.812
12.9289
1.00007
1.00036
1.00108
1.003
1.00804
1.02069
1.05087
1.12102
1.2848
1.68166
2.73113
6.14031
18.4724
16.4323
13.9962
12.8055
12.6515
12.7347
12.7955
12.929
1.00007
1.00036
1.00108
1.003
1.00803
1.02068
1.05084
1.12097
1.28468
1.68138
2.73048
6.13849