/*--------------------------------*- C++ -*----------------------------------*\
  =========                 |
  \\      /  F ield         | OpenFOAM: The Open Source CFD Toolbox
   \\    /   O peration     | Website:  https://openfoam.org
    \\  /    A nd           | Version:  6.0
     \\/     M anipulation  |
\*---------------------------------------------------------------------------*/
FoamFile
{
    version     2.0;
    format      ascii;
    class       surfaceScalarField;
    location    "2.5";
    object      phi;
}
// * * * * * * * * * * * * * * * * * * * * * * * * * * * * * * * * * * * * * //

dimensions      [1 0 -1 0 0 0 0];

internalField   nonuniform List<scalar> 
69200
(
0.000164489
1.19812e-10
4.66106e-05
0.000147721
1.19619e-10
1.67662e-05
0.000140688
2.61797e-10
7.03396e-06
0.000135263
1.97918e-10
5.42473e-06
0.000132467
9.91474e-10
2.79627e-06
0.000129946
3.03799e-09
2.5324e-06
0.000126913
5.52373e-09
3.04355e-06
0.000123624
9.49645e-09
3.30151e-06
0.000120522
1.77735e-08
3.12354e-06
0.000118149
3.78173e-08
2.40691e-06
0.000117372
9.07295e-08
7.93416e-07
0.000132435
2.48453e-07
-1.50755e-05
0.000188478
9.25015e-07
-5.57453e-05
0.000188735
1.0124e-06
-1.07657e-06
0.000183665
9.01585e-07
4.27651e-06
0.000178668
7.28274e-07
4.29341e-06
0.000162769
4.89528e-07
1.53273e-05
0.000136038
4.07614e-08
2.64424e-05
0.000144878
-5.05319e-07
-8.54912e-06
-1.21077e-06
0.000145777
0.000164489
2.50955e-10
4.66103e-05
0.000147721
2.08624e-10
1.67667e-05
0.000140688
5.45826e-10
7.03373e-06
0.000135263
2.70462e-10
5.42451e-06
0.000132466
2.00902e-09
2.79779e-06
0.000129946
6.5554e-09
2.53004e-06
0.000126915
1.19552e-08
3.04176e-06
0.000123626
2.06156e-08
3.30031e-06
0.000120522
3.88428e-08
3.1228e-06
0.000118142
8.38344e-08
2.40615e-06
0.000117346
2.07427e-07
7.85998e-07
0.000132345
5.938e-07
-1.51048e-05
0.000188168
2.40127e-06
-5.60727e-05
0.000188167
2.81007e-06
-1.60614e-06
0.000183056
2.55403e-06
3.56386e-06
0.000177929
2.25502e-06
3.62566e-06
0.000162027
1.85788e-06
1.44684e-05
0.000134784
1.21424e-06
2.58523e-05
0.000143688
7.41071e-07
-1.03459e-05
-1.26749e-06
0.000143459
0.00016449
3.51143e-10
4.66096e-05
0.000147721
2.36524e-10
1.67676e-05
0.000140688
8.03837e-10
7.03323e-06
0.000135264
9.87352e-11
5.42404e-06
0.000132463
3.08342e-09
2.80141e-06
0.000129948
1.07247e-08
2.52518e-06
0.000126919
1.96722e-08
3.03857e-06
0.00012363
3.39555e-08
3.29889e-06
0.000120522
6.40906e-08
3.12319e-06
0.000118131
1.39261e-07
2.40894e-06
0.000117308
3.50333e-07
7.88298e-07
0.000132204
1.02442e-06
-1.50851e-05
0.000187898
4.29668e-06
-5.63527e-05
0.000187723
5.20718e-06
-2.03591e-06
0.000182596
4.86796e-06
2.91573e-06
0.000177333
4.47476e-06
3.06625e-06
0.000161522
3.97108e-06
1.36338e-05
0.000134131
3.23338e-06
2.51688e-05
0.000143021
2.90142e-06
-1.12304e-05
-7.31778e-08
0.000141474
0.00016449
3.46139e-10
4.66086e-05
0.000147721
2.33761e-10
1.67688e-05
0.000140688
9.67084e-10
7.03253e-06
0.000135265
-1.47434e-10
5.42341e-06
0.000132457
4.3213e-09
2.80759e-06
0.000129951
1.56384e-08
2.5171e-06
0.000126925
2.88846e-08
3.03344e-06
0.000123637
4.99099e-08
3.29661e-06
0.000120525
9.41969e-08
3.12362e-06
0.000118121
2.05309e-07
2.41265e-06
0.000117266
5.21641e-07
7.94052e-07
0.000132042
1.54551e-06
-1.50529e-05
0.000187656
6.60438e-06
-5.66718e-05
0.000187343
8.1524e-06
-2.45242e-06
0.000182224
7.75009e-06
2.33489e-06
0.000176845
7.28875e-06
2.58791e-06
0.000161212
6.72041e-06
1.28281e-05
0.000133735
5.99098e-06
2.45236e-05
0.000142232
5.96506e-06
-1.17528e-05
2.36319e-06
0.000139404
0.00016449
1.64361e-10
4.66076e-05
0.000147721
2.29343e-10
1.67699e-05
0.000140688
1.14794e-09
7.03205e-06
0.000135266
-4.02599e-10
5.42242e-06
0.00013245
5.74646e-09
2.81664e-06
0.000129954
2.13754e-08
2.50531e-06
0.000126935
3.97402e-08
3.02599e-06
0.000123648
6.87941e-08
3.29307e-06
0.000120531
1.29792e-07
3.12327e-06
0.000118115
2.83193e-07
2.41549e-06
0.000117225
7.23812e-07
7.99775e-07
0.000131877
2.16127e-06
-1.50195e-05
0.000187463
9.33304e-06
-5.70465e-05
0.000187029
1.16225e-05
-2.87421e-06
0.000181922
1.11707e-05
1.77948e-06
0.000176436
1.06473e-05
2.15152e-06
0.000161067
1.00381e-05
1.20034e-05
0.000133716
9.40158e-06
2.37553e-05
0.00014124
9.77742e-06
-1.15551e-05
6.33939e-06
0.000136821
0.000164489
-2.22966e-10
4.66073e-05
0.000147722
2.4488e-10
1.67699e-05
0.000140688
1.39757e-09
7.03208e-06
0.000135267
-6.73852e-10
5.42087e-06
0.000132439
7.41225e-09
2.82896e-06
0.000129959
2.80545e-08
2.48927e-06
0.000126949
5.23981e-08
3.01597e-06
0.000123664
9.08855e-08
3.28812e-06
0.000120543
1.71468e-07
3.1218e-06
0.000118115
3.74209e-07
2.41638e-06
0.000117191
9.59708e-07
8.03661e-07
0.00013172
2.87848e-06
-1.49923e-05
0.000187356
1.24724e-05
-5.74791e-05
0.000186816
1.55935e-05
-3.29938e-06
0.000181707
1.50985e-05
1.25967e-06
0.000176122
1.45093e-05
1.74198e-06
0.000161103
1.3884e-05
1.11292e-05
0.000134076
1.34251e-05
2.28307e-05
0.000140042
1.42639e-05
-1.06903e-05
1.17325e-05
0.000134159
0.000164485
-6.28974e-10
4.66087e-05
0.000147721
2.33112e-10
1.67678e-05
0.000140688
1.6831e-09
7.03253e-06
0.000135269
-9.89878e-10
5.41892e-06
0.000132425
9.39301e-09
2.84503e-06
0.000129966
3.58055e-08
2.46823e-06
0.000126967
6.70273e-08
3.00292e-06
0.000123686
1.164e-07
3.28159e-06
0.000120563
2.19603e-07
3.11905e-06
0.000118124
4.7921e-07
2.41445e-06
0.000117168
1.23136e-06
8.03618e-07
0.000131586
3.70042e-06
-1.49786e-05
0.000187356
1.60118e-05
-5.79748e-05
0.00018673
2.00612e-05
-3.744e-06
0.0001816
1.94936e-05
7.9e-07
0.000175924
1.88361e-05
1.35251e-06
0.000161316
1.824e-05
1.02054e-05
0.000134763
1.80696e-05
2.17501e-05
0.000138619
1.94559e-05
-9.31261e-06
1.85382e-05
0.000131284
0.000164481
-8.29566e-10
4.66122e-05
0.00014772
6.95633e-11
1.67643e-05
0.000140687
1.98073e-09
7.03256e-06
0.000135271
-1.26708e-09
5.41654e-06
0.000132406
1.17868e-08
2.86557e-06
0.000129973
4.4812e-08
2.44147e-06
0.00012699
8.38449e-08
2.98639e-06
0.000123715
1.45577e-07
3.27313e-06
0.000120591
2.74504e-07
3.1147e-06
0.000118146
5.98805e-07
2.40899e-06
0.000117162
1.54047e-06
7.98519e-07
0.000131487
4.63262e-06
-1.49867e-05
0.000187496
1.99267e-05
-5.8542e-05
0.000186794
2.50213e-05
-4.19757e-06
0.000181618
2.43189e-05
3.80158e-07
0.000175834
2.35893e-05
1.00913e-06
0.000161658
2.30832e-05
9.2735e-06
0.000135676
2.3367e-05
2.053e-05
0.000137001
2.54438e-05
-7.5877e-06
2.66641e-05
0.000128314
0.000164477
-9.32519e-10
4.66162e-05
0.000147719
-5.79148e-12
1.67608e-05
0.000140685
2.33529e-09
7.03247e-06
0.000135272
-1.33701e-09
5.41338e-06
0.000132382
1.4863e-08
2.89101e-06
0.000129982
5.52592e-08
2.4082e-06
0.000127018
1.03028e-07
2.96588e-06
0.000123751
1.78574e-07
3.2624e-06
0.000120629
3.3631e-07
3.10821e-06
0.000118183
7.33197e-07
2.39879e-06
0.00011718
1.88766e-06
7.85219e-07
0.000131434
5.67163e-06
-1.501e-05
0.000187798
2.42023e-05
-5.91988e-05
0.000187033
3.04408e-05
-4.63997e-06
0.000181751
2.95662e-05
3.06093e-08
0.000175792
2.87827e-05
7.01648e-07
0.00016203
2.84322e-05
8.33459e-06
0.000136705
2.92328e-05
1.93078e-05
0.000135155
3.20409e-05
-5.33848e-06
3.67164e-05
0.000124494
0.000164472
-1.11233e-09
4.66207e-05
0.000147719
1.99018e-10
1.67564e-05
0.000140685
2.90232e-09
7.0328e-06
0.000135274
-9.31781e-10
5.40985e-06
0.000132351
1.88697e-08
2.92179e-06
0.000129992
6.72512e-08
2.3676e-06
0.000127051
1.24531e-07
2.94077e-06
0.000123796
2.15204e-07
3.2489e-06
0.000120679
4.04702e-07
3.09899e-06
0.000118239
8.82022e-07
2.38255e-06
0.00011723
2.2724e-06
7.62239e-07
0.000131447
6.80408e-06
-1.50629e-05
0.000188276
2.89015e-05
-6.00117e-05
0.000187432
3.62971e-05
-5.03304e-06
0.000181938
3.53784e-05
-3.58038e-07
0.000175709
3.44801e-05
4.43347e-07
0.000162391
3.42072e-05
7.44262e-06
0.000137876
3.55776e-05
1.80113e-05
0.000133186
3.91942e-05
-2.7706e-06
4.84742e-05
0.000120802
0.000164466
-1.25902e-09
4.66266e-05
0.000147718
6.76067e-10
1.67509e-05
0.000140683
3.63842e-09
7.03321e-06
0.000135276
4.01564e-10
5.40603e-06
0.000132316
2.37734e-08
2.95857e-06
0.000130004
8.04375e-08
2.31929e-06
0.000127093
1.4764e-07
2.9107e-06
0.000123853
2.5449e-07
3.23201e-06
0.000120745
4.78702e-07
3.08601e-06
0.000118321
1.04487e-06
2.35837e-06
0.000117302
2.69715e-06
7.38373e-07
0.00013162
8.05028e-06
-1.52319e-05
0.000189283
3.37855e-05
-6.09456e-05
0.000188115
4.28531e-05
-5.51432e-06
0.00018233
4.16781e-05
-5.6865e-07
0.000175839
4.06192e-05
1.65025e-07
0.000162839
4.05454e-05
6.54843e-06
0.000139066
4.25793e-05
1.66164e-05
0.000130977
4.70878e-05
-1.03535e-07
6.25492e-05
0.000116256
0.000164459
-1.33253e-09
4.66338e-05
0.000147717
1.57046e-09
1.67441e-05
0.000140681
4.3786e-09
7.03446e-06
0.000135277
2.91446e-09
5.40263e-06
0.000132274
2.94401e-08
3.00044e-06
0.00013002
9.40099e-08
2.26236e-06
0.000127145
1.71155e-07
2.87474e-06
0.000123926
2.94992e-07
3.21078e-06
0.000120834
5.56938e-07
3.06799e-06
0.000118437
1.22078e-06
2.32338e-06
0.000117426
3.161e-06
7.02765e-07
0.000131893
9.42222e-06
-1.54875e-05
0.000190609
3.87953e-05
-6.19906e-05
0.000189194
4.99635e-05
-5.90342e-06
0.00018296
4.84704e-05
-6.83592e-07
0.000176136
4.73038e-05
-1.12454e-07
0.000163164
4.75365e-05
5.83078e-06
0.000139771
5.04191e-05
1.53752e-05
0.000127993
5.63892e-05
2.19824e-06
7.87305e-05
0.000111142
0.00016445
-1.34417e-09
4.66426e-05
0.000147716
2.67364e-09
1.67367e-05
0.000140678
5.13095e-09
7.03589e-06
0.000135275
6.00958e-09
5.40106e-06
0.000132227
3.53808e-08
3.04637e-06
0.00013004
1.07839e-07
2.1945e-06
0.00012721
1.95006e-07
2.83025e-06
0.000124019
3.36523e-07
3.18356e-06
0.00012095
6.38684e-07
3.04437e-06
0.000118596
1.40706e-06
2.27656e-06
0.000117632
3.65318e-06
6.37802e-07
0.00013231
1.08512e-05
-1.57386e-05
0.000192289
4.38357e-05
-6.31786e-05
0.000190662
5.75182e-05
-6.23754e-06
0.000183944
5.57392e-05
-7.31883e-07
0.000176574
5.45279e-05
-1.35429e-07
0.000163376
5.52125e-05
5.30207e-06
0.000140174
5.92214e-05
1.41858e-05
0.000125616
6.71619e-05
3.53131e-06
9.72225e-05
0.00010645
0.000164439
-1.51314e-09
4.66532e-05
0.000147714
3.57468e-09
1.67283e-05
0.000140674
6.06963e-09
7.03763e-06
0.000135272
8.81454e-09
5.40113e-06
0.000132174
4.16304e-08
3.09591e-06
0.000130068
1.22467e-07
2.11409e-06
0.000127292
2.20079e-07
2.77566e-06
0.000124134
3.79768e-07
3.14973e-06
0.000121094
7.2287e-07
3.01599e-06
0.0001188
1.59669e-06
2.21904e-06
0.000117927
4.14878e-06
5.51665e-07
0.000132976
1.22483e-05
-1.60457e-05
0.000194815
4.84158e-05
-6.44629e-05
0.00019265
6.56166e-05
-6.41629e-06
0.000185266
6.36326e-05
-7.70102e-07
0.000177164
6.24067e-05
-8.8418e-08
0.000163404
6.36582e-05
5.05041e-06
0.000140387
6.90272e-05
1.29647e-05
0.000123705
7.93649e-05
4.2376e-06
0.000118442
0.000101781
0.000164427
-1.74408e-09
4.66654e-05
0.000147712
4.27045e-09
1.67185e-05
0.000140669
6.56657e-09
7.04077e-06
0.000135268
1.13494e-08
5.40179e-06
0.000132115
4.75245e-08
3.15033e-06
0.000130102
1.35973e-07
2.02253e-06
0.00012739
2.45173e-07
2.71274e-06
0.000124273
4.23874e-07
3.10953e-06
0.00012127
8.06884e-07
2.98076e-06
0.000119061
1.77776e-06
2.14689e-06
0.000118344
4.60194e-06
4.44933e-07
0.000133972
1.34639e-05
-1.64218e-05
0.000198339
5.18469e-05
-6.57285e-05
0.000195413
7.41474e-05
-6.27036e-06
0.000187017
7.24744e-05
-8.35887e-07
0.000177961
7.12298e-05
-1.06874e-07
0.000163307
7.30832e-05
4.94538e-06
0.000140485
7.98426e-05
1.17551e-05
0.00012205
9.29773e-05
4.57773e-06
0.000142601
9.71568e-05
0.000164412
-2.00232e-09
4.66794e-05
0.00014771
4.93372e-09
1.67067e-05
0.000140663
5.82337e-09
7.04554e-06
0.000135261
1.56182e-08
5.40177e-06
0.000132051
4.84494e-08
3.21179e-06
0.000130145
1.45745e-07
1.91994e-06
0.000127503
2.72282e-07
2.6422e-06
0.000124427
4.72322e-07
3.06473e-06
0.000121467
8.88912e-07
2.94108e-06
0.000119375
1.92838e-06
2.06344e-06
0.000118915
4.92672e-06
3.2657e-07
0.00013537
1.42146e-05
-1.68009e-05
0.000203001
5.30466e-05
-6.6681e-05
0.000199067
8.33586e-05
-6.00136e-06
0.000189489
8.24044e-05
-8.15533e-07
0.000178911
8.13321e-05
2.90253e-08
0.000163286
8.36724e-05
4.64562e-06
0.000140757
9.17918e-05
1.02398e-05
0.000120563
0.000108181
4.73215e-06
0.000170692
9.17161e-05
0.000164396
-1.77569e-09
4.66949e-05
0.00014771
5.10474e-09
1.66919e-05
0.000140654
3.36168e-09
7.05398e-06
0.000135255
2.38672e-08
5.39844e-06
0.000131988
2.96584e-08
3.28185e-06
0.000130187
1.65888e-07
1.80854e-06
0.000127612
3.12409e-07
2.56634e-06
0.000124579
5.28586e-07
3.01727e-06
0.000121673
9.59284e-07
2.90104e-06
0.000119726
2.01273e-06
1.98494e-06
0.00011959
5.00367e-06
2.46601e-07
0.000137098
1.40222e-05
-1.68524e-05
0.000209418
4.889e-05
-6.61382e-05
0.000203144
9.72178e-05
-8.36495e-06
0.000192369
9.34961e-05
-9.94948e-07
0.000180003
9.33082e-05
-5.5531e-08
0.000163987
9.59006e-05
3.48564e-06
0.00014215
0.000105147
8.21528e-06
0.000119747
0.000125427
4.88028e-06
0.00020398
8.56507e-05
0.000164384
-1.27484e-09
4.67088e-05
0.000147708
4.85095e-09
1.66783e-05
0.000140644
1.01145e-09
7.06392e-06
0.000135253
2.84724e-08
5.39289e-06
0.000131932
2.34793e-08
3.32204e-06
0.000130175
1.72824e-07
1.77917e-06
0.000127687
3.37113e-07
2.49529e-06
0.000124751
5.71665e-07
2.93284e-06
0.000121927
1.02046e-06
2.82729e-06
0.000120035
2.08905e-06
1.92974e-06
0.000119839
5.0741e-06
3.44589e-07
0.000134545
1.46344e-05
-1.53515e-05
0.000194083
4.55244e-05
-5.50477e-05
0.00020471
0.0001046
-1.70776e-05
0.000196024
0.000105172
-3.01877e-06
0.000182595
0.000106607
-2.64439e-07
0.00016647
0.000109764
1.70679e-06
0.000144898
0.000120916
5.37348e-06
0.000119724
0.000146303
3.99555e-06
0.000245287
7.75464e-05
0.000164377
-1.79099e-09
4.6717e-05
0.00014771
5.12108e-09
1.66699e-05
0.000140634
-5.66865e-10
7.07475e-06
0.000135254
3.03713e-08
5.38574e-06
0.000131884
2.23402e-08
3.36402e-06
0.000130151
1.77182e-07
1.75806e-06
0.000127742
3.51978e-07
2.42544e-06
0.000124912
5.99099e-07
2.84311e-06
0.000122196
1.0607e-06
2.74113e-06
0.000120376
2.13241e-06
1.87753e-06
0.000120691
5.03626e-06
-2.07323e-08
0.000129373
1.44776e-05
-9.41631e-06
0.000169418
4.46066e-05
-3.85164e-05
0.000199973
0.000111322
-3.57154e-05
0.000194557
0.000118715
-7.87385e-06
0.000183923
0.000121853
-4.65721e-06
0.000169308
0.000126456
-2.4361e-06
0.000148095
0.000140527
1.26162e-06
0.000119655
0.000173133
1.36954e-06
0.00029888
6.52383e-05
0.000164367
4.67265e-05
-2.15292e-09
0.000147711
1.66589e-05
5.10084e-09
0.000140621
7.08792e-06
-1.1258e-09
0.000135252
5.37597e-06
3.16119e-08
0.000131836
3.40825e-06
2.24196e-08
0.000130122
1.73556e-06
1.84786e-07
0.000127788
2.35521e-06
3.62397e-07
0.000125055
2.75621e-06
6.15677e-07
0.000122427
2.66638e-06
1.08471e-06
0.000120646
1.86768e-06
2.15351e-06
0.000121221
-2.89928e-07
4.97653e-06
0.000125197
-3.30374e-06
1.37196e-05
0.000151933
-2.43463e-05
4.28617e-05
0.000193489
-5.64399e-05
0.00012743
0.000188923
-1.42653e-05
0.000137778
0.000180761
-1.26476e-05
0.000142786
0.00016878
-1.1062e-05
0.000149392
0.00014904
-7.81147e-06
0.000167882
0.000118906
-7.38627e-06
0.000210471
4.49763e-05
0.000372051
0.000230866
2.06219e-10
2.56049e-05
0.000226444
4.06625e-10
2.11902e-05
0.000216804
7.28044e-10
1.66741e-05
0.000212167
7.04612e-10
1.00595e-05
0.000208766
3.22815e-09
6.20552e-06
0.000204373
6.31999e-09
6.93377e-06
0.000200583
1.12044e-08
6.84325e-06
0.000197638
2.09198e-08
6.26037e-06
0.000195541
4.3037e-08
5.23983e-06
0.000194487
9.88729e-08
3.47887e-06
0.000196013
2.55659e-07
-8.04361e-07
0.000203757
7.38185e-07
-2.31335e-05
0.000253023
3.42683e-06
-0.000106174
0.000234518
5.12484e-06
1.27764e-05
0.000223967
6.06189e-06
9.13016e-06
0.000192602
6.73079e-06
2.90885e-05
0.000162791
6.83384e-06
3.8343e-05
0.000129456
6.77192e-06
5.29745e-05
4.66584e-05
1.16315e-05
6.20978e-05
6.07831e-07
0.000191475
0.000230866
3.8838e-10
2.56048e-05
0.000226444
7.53204e-10
2.119e-05
0.000216804
1.31321e-09
1.66739e-05
0.000212167
9.3992e-10
1.00598e-05
0.000208768
6.5519e-09
6.20464e-06
0.000204373
1.32494e-08
6.93297e-06
0.000200583
2.35852e-08
6.84171e-06
0.000197637
4.38509e-08
6.25801e-06
0.000195541
8.98279e-08
5.23585e-06
0.000194487
2.0637e-07
3.47025e-06
0.000196009
5.38427e-07
-8.34362e-07
0.000203722
1.57701e-06
-2.32288e-05
0.000252373
7.72517e-06
-0.000106752
0.000233815
1.12474e-05
1.12997e-05
0.000223022
1.31445e-05
7.64257e-06
0.000192042
1.44339e-05
2.70793e-05
0.000162607
1.47304e-05
3.60631e-05
0.000130061
1.47418e-05
5.03928e-05
4.97975e-05
2.39084e-05
5.71237e-05
2.99506e-06
0.000190506
0.000230866
4.81426e-10
2.56045e-05
0.000226445
9.40423e-10
2.11897e-05
0.000216805
1.61553e-09
1.66733e-05
0.000212166
5.60901e-10
1.00608e-05
0.000208773
1.00961e-08
6.20319e-06
0.000204374
2.13062e-08
6.93183e-06
0.000200581
3.82327e-08
6.83911e-06
0.000197635
7.0796e-08
6.25431e-06
0.000195539
1.44285e-07
5.23051e-06
0.000194482
3.31113e-07
3.4602e-06
0.000195995
8.68373e-07
-8.66914e-07
0.000203661
2.57249e-06
-2.33151e-05
0.000251744
1.29696e-05
-0.000107396
0.000233201
1.84086e-05
9.80964e-06
0.000222185
2.11954e-05
6.24305e-06
0.000191835
2.30753e-05
2.49519e-05
0.000162963
2.36129e-05
3.36926e-05
0.000131461
2.3822e-05
4.75706e-05
5.37162e-05
3.69995e-05
5.29094e-05
8.17535e-06
0.000189658
0.000230865
4.38597e-10
2.56043e-05
0.000226446
9.2258e-10
2.11895e-05
0.000216806
1.65492e-09
1.66718e-05
0.000212165
-1.51948e-10
1.00625e-05
0.00020878
1.39661e-08
6.20133e-06
0.000204374
3.07248e-08
6.93041e-06
0.000200578
5.57369e-08
6.8351e-06
0.000197631
1.02936e-07
6.2485e-06
0.000195534
2.08602e-07
5.22251e-06
0.000194476
4.77579e-07
3.4461e-06
0.000195983
1.25615e-06
-9.10467e-07
0.000203617
3.74854e-06
-2.34242e-05
0.000251187
1.91628e-05
-0.000108134
0.000232739
2.65583e-05
8.30449e-06
0.000221506
3.01581e-05
4.94269e-06
0.000192005
3.26081e-05
2.27208e-05
0.00016377
3.34578e-05
3.12754e-05
0.000133527
3.39968e-05
4.45846e-05
5.80373e-05
5.07778e-05
4.94694e-05
1.65522e-05
0.000188661
0.000230863
2.56701e-10
2.56042e-05
0.000226446
7.26411e-10
2.11892e-05
0.000216809
1.56239e-09
1.66697e-05
0.000212163
-1.10666e-09
1.00648e-05
0.00020879
1.83043e-08
6.19906e-06
0.000204373
4.16386e-08
6.92873e-06
0.000200573
7.64015e-08
6.82937e-06
0.000197626
1.41084e-07
6.23992e-06
0.000195531
2.84541e-07
5.21068e-06
0.000194472
6.49261e-07
3.42581e-06
0.000195984
1.7092e-06
-9.70787e-07
0.000203613
5.11811e-06
-2.35708e-05
0.000250748
2.62694e-05
-0.000108961
0.000232459
3.56426e-05
6.77793e-06
0.000220992
3.99572e-05
3.76452e-06
0.000192486
4.29478e-05
2.04508e-05
0.000164916
4.41993e-05
2.88645e-05
0.000136034
4.52424e-05
4.13938e-05
6.26388e-05
6.53281e-05
4.68312e-05
2.81512e-05
0.000187403
0.000230863
-2.92916e-11
2.56042e-05
0.000226446
4.26131e-10
2.11888e-05
0.000216812
1.48185e-09
1.66666e-05
0.000212162
-2.26658e-09
1.00678e-05
0.000208803
2.32865e-08
6.19625e-06
0.00020437
5.42448e-08
6.92675e-06
0.000200566
1.00428e-07
6.82173e-06
0.000197621
1.85672e-07
6.22815e-06
0.00019553
3.73241e-07
5.19414e-06
0.000194476
8.4878e-07
3.39739e-06
0.000196007
2.23317e-06
-1.05265e-06
0.000203666
6.69374e-06
-2.37675e-05
0.000250478
3.42311e-05
-0.000109888
0.000232382
4.56135e-05
5.24017e-06
0.000220648
5.05099e-05
2.72893e-06
0.000193246
5.40034e-05
1.81923e-05
0.000166342
5.57499e-05
2.6497e-05
0.000138744
5.75352e-05
3.81126e-05
6.71523e-05
8.09717e-05
4.48303e-05
4.29912e-05
0.000185959
0.000230864
-2.1493e-10
2.56044e-05
0.000226445
1.71523e-10
2.11883e-05
0.000216815
1.41471e-09
1.66624e-05
0.000212159
-3.57093e-09
1.00717e-05
0.000208819
2.92281e-08
6.19278e-06
0.000204367
6.89427e-08
6.92443e-06
0.000200556
1.28205e-07
6.81191e-06
0.000197614
2.37087e-07
6.21273e-06
0.000195532
4.75381e-07
5.17206e-06
0.000194489
1.07776e-06
3.35896e-06
0.000196059
2.83172e-06
-1.1609e-06
0.000203795
8.47914e-06
-2.4026e-05
0.000250404
4.29898e-05
-0.000110923
0.000232536
5.63965e-05
3.70646e-06
0.000220496
6.17268e-05
1.85859e-06
0.000194262
6.56867e-05
1.59881e-05
0.000168006
6.80207e-05
2.41857e-05
0.000141646
7.08014e-05
3.4774e-05
7.1689e-05
9.8013e-05
4.32081e-05
6.10491e-05
0.000184352
0.000230866
-3.13805e-10
2.56044e-05
0.000226444
5.40284e-11
2.1188e-05
0.00021682
1.48123e-09
1.66568e-05
0.000212156
-4.63104e-09
1.00764e-05
0.00020884
3.64262e-08
6.18885e-06
0.000204362
8.61437e-08
6.92191e-06
0.000200544
1.60232e-07
6.79964e-06
0.000197607
2.95853e-07
6.19304e-06
0.000195537
5.91545e-07
5.14341e-06
0.000194513
1.33725e-06
3.30868e-06
0.000196148
3.50741e-06
-1.3003e-06
0.000204016
1.04744e-05
-2.43584e-05
0.000250558
5.24815e-05
-0.000112084
0.00023294
6.79291e-05
2.19422e-06
0.000220538
7.35318e-05
1.17603e-06
0.000195485
7.79201e-05
1.38828e-05
0.000169872
8.09379e-05
2.1939e-05
0.000144897
8.4863e-05
3.13458e-05
7.63621e-05
0.00011656
4.20275e-05
8.24594e-05
0.000182655
0.00023087
-2.85671e-10
2.56043e-05
0.000226443
1.80886e-10
2.1188e-05
0.000216825
1.88474e-09
1.66498e-05
0.000212152
-5.14354e-09
1.00821e-05
0.000208865
4.55231e-08
6.18396e-06
0.000204355
1.06502e-07
6.91886e-06
0.000200527
1.97113e-07
6.7845e-06
0.000197598
3.62399e-07
6.16862e-06
0.000195547
7.21902e-07
5.10745e-06
0.000194551
1.62739e-06
3.2447e-06
0.000196279
4.26155e-06
-1.47555e-06
0.000204346
1.26833e-05
-2.47731e-05
0.000250983
6.26294e-05
-0.000113398
0.000233621
8.01357e-05
7.59038e-07
0.000220801
8.58602e-05
6.74262e-07
0.000196893
9.06356e-05
1.19065e-05
0.000171882
9.45107e-05
1.9699e-05
0.000148913
0.000100056
2.69521e-05
8.15416e-05
0.000136059
4.21857e-05
0.000106696
0.000181191
0.000230875
-1.68271e-10
2.56042e-05
0.000226443
6.31056e-10
2.11881e-05
0.000216833
3.08224e-09
1.66418e-05
0.000212147
-3.96086e-09
1.0089e-05
0.000208895
5.72685e-08
6.17801e-06
0.000204344
1.30292e-07
6.91526e-06
0.000200507
2.38615e-07
6.7662e-06
0.000197589
4.35951e-07
6.13876e-06
0.000195563
8.65208e-07
5.06287e-06
0.000194608
1.94687e-06
3.16454e-06
0.000196464
5.09424e-06
-1.69268e-06
0.000204803
1.511e-05
-2.52895e-05
0.000251705
7.33255e-05
-0.0001149
0.000234587
9.29923e-05
-5.81865e-07
0.00022134
9.86126e-05
2.47245e-07
0.000198489
0.000103807
1.00863e-05
0.000174047
0.000108768
1.75099e-05
0.000153202
0.000116452
2.22998e-05
8.7165e-05
0.00015627
4.27394e-05
0.000134539
0.000179491
0.00023088
1.95651e-10
2.5604e-05
0.000226443
1.65157e-09
2.11876e-05
0.000216841
5.47619e-09
1.66336e-05
0.00021214
9.61398e-10
1.0097e-05
0.000208929
7.23482e-08
6.17108e-06
0.000204333
1.56511e-07
6.9112e-06
0.000200485
2.82405e-07
6.74441e-06
0.000197585
5.13323e-07
6.10263e-06
0.000195594
1.01802e-06
5.00805e-06
0.000194695
2.29245e-06
3.06466e-06
0.000196736
6.0014e-06
-1.96096e-06
0.000205372
1.77386e-05
-2.59518e-05
0.000252788
8.44265e-05
-0.000116556
0.000235644
0.000106587
-1.83746e-06
0.000221979
0.000111765
2.43419e-09
0.000200045
0.000117332
8.4939e-06
0.000176254
0.0001236
1.53633e-05
0.000157515
0.000133892
1.77367e-05
9.32923e-05
0.000177073
4.30216e-05
0.00016585
0.000177581
0.000230888
9.69467e-10
2.56035e-05
0.000226445
3.58841e-09
2.11859e-05
0.000216847
1.00885e-08
1.66284e-05
0.000212129
1.3196e-08
1.01054e-05
0.000208968
8.85927e-08
6.16199e-06
0.000204322
1.81246e-07
6.90589e-06
0.000200468
3.23553e-07
6.71832e-06
0.000197592
5.89843e-07
6.05908e-06
0.000195647
1.17706e-06
4.94112e-06
0.00019482
2.6624e-06
2.94157e-06
0.000197099
6.97935e-06
-2.28862e-06
0.000206135
2.05366e-05
-2.67683e-05
0.00025436
9.57275e-05
-0.000118428
0.000237023
0.000120795
-2.73491e-06
0.000222855
0.00012531
-4.7879e-08
0.000201532
0.000131214
7.21077e-06
0.000178462
0.000139033
1.32912e-05
0.000161665
0.000152326
1.35424e-05
0.000101122
0.000197045
4.24949e-05
0.000202922
0.000174509
0.000230898
2.01924e-09
2.56026e-05
0.000226452
6.1148e-09
2.11812e-05
0.000216848
1.59237e-08
1.66353e-05
0.000212111
2.81673e-08
1.01232e-05
0.00020902
1.05115e-07
6.13612e-06
0.000204321
2.05406e-07
6.89041e-06
0.000200456
3.63649e-07
6.68541e-06
0.000197603
6.66737e-07
6.00947e-06
0.000195711
1.34212e-06
4.86423e-06
0.000194972
3.05295e-06
2.79589e-06
0.000197537
8.0142e-06
-2.67695e-06
0.000207172
2.34536e-05
-2.77055e-05
0.000256628
0.000106892
-0.000120543
0.000238859
0.000135481
-3.26667e-06
0.000224029
0.000139308
5.54411e-08
0.000202884
0.000145654
6.42802e-06
0.00018045
0.000155247
1.13247e-05
0.000164949
0.000171925
9.86948e-06
0.000103584
0.000218769
4.293e-05
0.000243421
0.000168865
0.00023091
2.74244e-09
2.56009e-05
0.000226465
8.01384e-09
2.11732e-05
0.000216844
2.00006e-08
1.66562e-05
0.000212086
3.78585e-08
1.01508e-05
0.000209088
1.24678e-07
6.0893e-06
0.000204333
2.3471e-07
6.86158e-06
0.000200449
4.09684e-07
6.64458e-06
0.000197614
7.49356e-07
5.95472e-06
0.000195775
1.51303e-06
4.7792e-06
0.000195147
3.45158e-06
2.62865e-06
0.000198078
9.06177e-06
-3.1255e-06
0.00020853
2.63446e-05
-2.87741e-05
0.000259867
0.000117264
-0.000122737
0.000241315
0.000150653
-3.34584e-06
0.000225559
0.000154004
1.65059e-07
0.000203891
0.000160948
6.11908e-06
0.000182141
0.000172466
9.38667e-06
0.000166993
0.000193053
6.77781e-06
0.000103474
0.000243276
4.29826e-05
0.000286275
0.000161702
0.000230925
3.11919e-09
2.55991e-05
0.00022648
9.18529e-09
2.11637e-05
0.000216837
2.25993e-08
1.6682e-05
0.000212055
4.54137e-08
1.01783e-05
0.000209165
1.42285e-07
6.03892e-06
0.000204353
2.62578e-07
6.8296e-06
0.000200452
4.57723e-07
6.59734e-06
0.000197637
8.36748e-07
5.89074e-06
0.000195861
1.68781e-06
4.68087e-06
0.000195365
3.8412e-06
2.43817e-06
0.000198758
1.00492e-05
-3.62391e-06
0.000210292
2.89699e-05
-2.99364e-05
0.000264436
0.000125761
-0.000124777
0.000244586
0.000166609
-2.90679e-06
0.000227537
0.000169905
8.0495e-08
0.000204513
0.000177592
6.09933e-06
0.000183613
0.000190808
7.32564e-06
0.00016897
0.00021539
3.89423e-06
0.000104242
0.000270283
4.20787e-05
0.00033364
0.00015333
0.000230941
3.19018e-09
2.55972e-05
0.000226496
9.59897e-09
2.11532e-05
0.000216829
2.31425e-08
1.67121e-05
0.00021202
5.39137e-08
1.02057e-05
0.000209253
1.50603e-07
5.98649e-06
0.00020438
2.80933e-07
6.79674e-06
0.000200456
5.12976e-07
6.54439e-06
0.00019766
9.35963e-07
5.81708e-06
0.000195957
1.86277e-06
4.56989e-06
0.000195633
4.18741e-06
2.23192e-06
0.000199614
1.08547e-05
-4.13748e-06
0.00021253
3.09471e-05
-3.10563e-05
0.000270619
0.000130949
-0.000126239
0.00024878
0.00018381
-2.0283e-06
0.000230817
0.000187804
-1.09925e-06
0.000205884
0.000196304
6.02388e-06
0.000185544
0.000210259
5.3216e-06
0.000170479
0.000239188
1.28219e-06
0.000105549
0.000299518
4.01394e-05
0.000386552
0.000143612
0.000230958
3.12292e-09
2.55955e-05
0.000226509
9.34871e-09
2.11429e-05
0.000216819
2.12779e-08
1.67469e-05
0.000211986
6.53467e-08
1.02257e-05
0.000209358
1.14211e-07
5.94881e-06
0.000204398
3.39265e-07
6.74824e-06
0.000200441
5.95883e-07
6.48004e-06
0.00019767
1.04336e-06
5.73667e-06
0.000196061
2.01545e-06
4.45845e-06
0.000195946
4.44151e-06
2.03782e-06
0.000200609
1.13435e-05
-4.58137e-06
0.00021526
3.18522e-05
-3.18126e-05
0.00027886
0.00013083
-0.000125919
0.000253912
0.000202356
-2.6775e-06
0.000237221
0.000206885
-3.85337e-06
0.000211239
0.000217071
4.91912e-06
0.0001893
0.000232057
3.4694e-06
0.000172679
0.000265256
-1.38253e-06
0.00010745
0.000332207
3.71861e-05
0.00044703
0.00013186
0.000230974
3.43686e-09
2.55942e-05
0.000226521
9.17083e-09
2.1135e-05
0.000216799
1.91254e-08
1.67855e-05
0.00021197
7.1694e-08
1.02258e-05
0.00020928
1.07967e-07
6.01583e-06
0.000204531
3.52236e-07
6.55283e-06
0.000200654
6.45535e-07
6.3641e-06
0.00019789
1.12978e-06
5.66852e-06
0.000196293
2.14849e-06
4.39037e-06
0.000196284
4.64752e-06
1.91792e-06
0.000201413
1.16731e-05
-4.79657e-06
0.00021782
3.21516e-05
-3.15738e-05
0.000289236
0.000129119
-0.000121718
0.000261127
0.000220019
-7.02432e-06
0.000242102
0.000229314
-6.75048e-06
0.000217052
0.000238857
2.69063e-06
0.00019413
0.000255451
9.71146e-07
0.000174914
0.000294009
-4.41443e-06
0.000110208
0.000368375
3.2275e-05
0.000517086
0.00011692
0.000230982
3.2005e-09
2.55942e-05
0.000226529
8.85247e-09
2.11263e-05
0.000216772
1.7979e-08
1.68295e-05
0.000211951
7.52424e-08
1.02153e-05
0.000209197
1.09188e-07
6.11342e-06
0.000204663
3.61506e-07
6.32163e-06
0.000200872
6.72808e-07
6.23159e-06
0.000198118
1.18278e-06
5.60236e-06
0.000196524
2.24063e-06
4.34511e-06
0.000196563
4.80249e-06
1.86731e-06
0.000201374
1.19288e-05
-4.73548e-06
0.000221352
3.24736e-05
-2.9352e-05
0.000302637
0.000126533
-0.000114228
0.000265634
0.000236551
-1.55087e-05
0.000248682
0.000251394
-1.3424e-05
0.000223084
0.000260373
-1.05782e-06
0.000199274
0.000279707
-3.15222e-06
0.000177319
0.000324724
-7.73002e-06
0.000113606
0.000408466
2.47305e-05
0.000598156
9.70209e-05
0.00023099
2.55948e-05
2.86312e-09
0.000226535
2.11177e-05
8.27029e-09
0.000216745
1.68763e-05
1.71928e-08
0.000211931
1.02002e-05
7.68322e-08
0.000209113
6.22131e-06
1.0957e-07
0.000204801
6.07746e-06
3.70219e-07
0.000201091
6.09382e-06
6.85882e-07
0.000198344
5.53998e-06
1.20455e-06
0.000196755
4.31928e-06
2.27628e-06
0.000196892
1.87105e-06
4.84751e-06
0.000201445
-4.5038e-06
1.19097e-05
0.00022451
-2.65627e-05
3.32155e-05
0.000319268
-0.000104273
0.000114312
0.00026938
-3.04537e-05
0.000260269
0.000255521
-2.11184e-05
0.000271378
0.000230052
-7.68799e-06
0.000280353
0.000204767
-9.16621e-06
0.000302764
0.000179176
-1.17006e-05
0.000353951
0.000120119
1.17167e-05
0.000448145
6.85077e-05
0.000694069
0.000224137
1.32951e-10
1.12483e-05
0.000230694
3.46993e-10
1.46334e-05
0.000234597
7.62643e-10
1.27714e-05
0.000233146
1.19907e-09
1.15088e-05
0.000228885
3.86569e-09
1.04746e-05
0.000226833
6.96015e-09
8.99181e-06
0.000225906
1.23652e-08
7.77604e-06
0.000225392
2.43152e-08
6.78377e-06
0.000224865
5.28971e-08
5.78084e-06
0.000224134
1.26822e-07
4.20928e-06
0.000223303
3.38577e-07
-1.21731e-07
0.000222144
1.02943e-06
-2.25057e-05
0.000230969
5.57616e-06
-0.000117735
0.000219777
9.41349e-06
1.56629e-05
0.000199251
1.33358e-05
1.7014e-05
0.000165777
1.46389e-05
4.83122e-05
0.000133528
1.49913e-05
5.59253e-05
0.00010302
1.45945e-05
6.90867e-05
6.81206e-06
2.57304e-05
0.000132096
5.2049e-06
0.000193293
0.000224137
2.31823e-10
1.12483e-05
0.000230694
6.7604e-10
1.46333e-05
0.000234597
1.16658e-09
1.27715e-05
0.000233146
1.66191e-09
1.15087e-05
0.000228887
7.72246e-09
1.04726e-05
0.000226835
1.45428e-08
8.9905e-06
0.000225908
2.58801e-08
7.77475e-06
0.000225392
5.04392e-08
6.78144e-06