/*--------------------------------*- C++ -*----------------------------------*\
  =========                 |
  \\      /  F ield         | OpenFOAM: The Open Source CFD Toolbox
   \\    /   O peration     | Website:  https://openfoam.org
    \\  /    A nd           | Version:  6.0
     \\/     M anipulation  |
\*---------------------------------------------------------------------------*/
FoamFile
{
    version     2.0;
    format      ascii;
    class       volScalarField;
    location    "2.5";
    object      T;
}
// * * * * * * * * * * * * * * * * * * * * * * * * * * * * * * * * * * * * * //

dimensions      [0 0 0 1 0 0 0];

internalField   nonuniform List<scalar> 
24000
(
0.885551
0.839537
0.820087
0.801372
0.794845
0.791536
0.792954
0.799535
0.821247
0.883785
1.05854
1.62093
2.11248
2.20112
2.20441
2.21271
2.23014
2.25592
2.47694
2.27403
0.885553
0.839535
0.820087
0.801372
0.794838
0.791529
0.792945
0.79952
0.821211
0.883701
1.05836
1.62082
2.11377
2.20328
2.20712
2.21602
2.23484
2.26104
2.4866
2.28622
0.885558
0.839532
0.820085
0.801375
0.794822
0.791513
0.792925
0.799483
0.821126
0.883495
1.05785
1.61996
2.11445
2.20492
2.20928
2.21874
2.23879
2.266
2.49356
2.29608
0.885565
0.839529
0.82008
0.801382
0.794795
0.791486
0.792891
0.79942
0.820983
0.883143
1.05694
1.61814
2.11452
2.20634
2.2112
2.22111
2.24214
2.27042
2.49978
2.3042
0.885572
0.839531
0.820068
0.801392
0.794757
0.791445
0.792839
0.799327
0.820772
0.882618
1.05554
1.61512
2.11384
2.20739
2.21302
2.22324
2.24497
2.27457
2.5042
2.31131
0.885573
0.839545
0.820049
0.801404
0.794708
0.79139
0.792767
0.799197
0.820479
0.881889
1.05354
1.61075
2.11211
2.20787
2.21453
2.22503
2.24739
2.27845
2.50697
2.31625
0.885562
0.839575
0.820028
0.801416
0.794643
0.791319
0.792673
0.799026
0.820091
0.880919
1.05084
1.60473
2.10923
2.2078
2.21549
2.22635
2.2494
2.28207
2.50827
2.31998
0.885538
0.839608
0.820014
0.801437
0.794562
0.791229
0.792555
0.798809
0.819594
0.879673
1.04733
1.5968
2.10494
2.20725
2.2158
2.22703
2.25078
2.28522
2.50876
2.3215
0.885511
0.839637
0.81999
0.801468
0.794467
0.791122
0.792412
0.798541
0.818977
0.878115
1.0429
1.5865
2.09922
2.20607
2.21544
2.22713
2.2515
2.28757
2.50727
2.32441
0.88548
0.839676
0.819953
0.801494
0.794346
0.790995
0.792241
0.79822
0.818227
0.876207
1.03742
1.5735
2.09219
2.20439
2.21477
2.22668
2.25144
2.28917
2.50493
2.32372
0.885442
0.839723
0.819913
0.801527
0.794191
0.790834
0.79203
0.797831
0.817326
0.873917
1.03071
1.55903
2.08098
2.20244
2.21256
2.22558
2.2511
2.29009
2.50164
2.32342
0.885394
0.83978
0.81986
0.801562
0.794014
0.790647
0.79178
0.797367
0.816249
0.871179
1.02265
1.54139
2.06814
2.19874
2.2086
2.22353
2.24922
2.28944
2.49842
2.32368
0.885339
0.839841
0.819802
0.801598
0.793808
0.790436
0.791496
0.79683
0.814988
0.867946
1.01316
1.51858
2.05367
2.19384
2.20369
2.21878
2.24511
2.28674
2.49521
2.32466
0.885276
0.839909
0.819732
0.801635
0.793574
0.7902
0.791176
0.796216
0.813527
0.864184
1.00206
1.4915
2.03533
2.18742
2.19778
2.21227
2.23822
2.28085
2.48971
2.32669
0.885205
0.839989
0.819651
0.801675
0.793312
0.789937
0.790816
0.795521
0.811862
0.859891
0.989333
1.46009
2.01311
2.1779
2.18923
2.20429
2.22923
2.27205
2.48049
2.32548
0.885124
0.840079
0.819557
0.801719
0.793023
0.789647
0.790417
0.794745
0.810005
0.855113
0.975151
1.42396
1.98684
2.16527
2.17654
2.19195
2.21703
2.26024
2.46986
2.32333
0.885031
0.840184
0.819446
0.801777
0.792715
0.789316
0.78997
0.793896
0.808002
0.850001
0.960029
1.38446
1.95165
2.1449
2.16057
2.17904
2.20435
2.24555
2.44807
2.31429
0.88495
0.840244
0.819388
0.801779
0.792482
0.788858
0.78941
0.792968
0.805957
0.844851
0.945557
1.34018
1.92635
2.13035
2.14254
2.15633
2.18658
2.22927
2.4292
2.30073
0.884924
0.840277
0.819327
0.801769
0.792229
0.788331
0.788774
0.79196
0.803859
0.839348
0.933934
1.24514
1.89187
2.13499
2.14629
2.154
2.17616
2.20882
2.39418
2.27741
0.88489
0.840333
0.819259
0.801779
0.791978
0.78779
0.788117
0.790927
0.801748
0.833993
0.921861
1.1813
1.81981
2.12927
2.15628
2.16625
2.19065
2.20929
2.36412
2.21885
0.99802
0.990059
0.982753
0.973061
0.97015
0.970616
0.974793
0.98867
1.02631
1.12365
1.37678
2.13571
2.51713
2.5737
2.57613
2.58529
2.60755
2.68309
2.83487
2.65528
0.99802
0.99006
0.982752
0.973061
0.970143
0.970608
0.97478
0.988642
1.02625
1.12351
1.37642
2.13527
2.5173
2.57421
2.57699
2.58619
2.60842
2.68327
2.83262
2.66589
0.998019
0.990061
0.982749
0.973062
0.970128
0.970593
0.974752
0.988584
1.02611
1.12319
1.37562
2.1339
2.51685
2.57426
2.57746
2.58678
2.60906
2.68273
2.82916
2.67633
0.998019
0.990065
0.982745
0.973061
0.970104
0.970568
0.974708
0.98849
1.0259
1.12267
1.3743
2.1313
2.51561
2.57374
2.57728
2.58695
2.60963
2.68202
2.82516
2.6856
0.998019
0.990072
0.982739
0.973057
0.97007
0.970532
0.974646
0.988356
1.02559
1.12193
1.37236
2.12722
2.51342
2.57271
2.57648
2.58665
2.6099
2.68081
2.82061
2.69387
0.998019
0.990082
0.982735
0.973048
0.970021
0.970483
0.974562
0.988177
1.02517
1.12091
1.36968
2.12156
2.5099
2.57122
2.5752
2.58583
2.60959
2.6789
2.81628
2.70076
0.998017
0.990091
0.982733
0.973036
0.969955
0.970416
0.97445
0.987944
1.02463
1.11959
1.36616
2.11391
2.50512
2.56906
2.57345
2.58435
2.60855
2.67617
2.81157
2.70632
0.998007
0.990102
0.982732
0.973021
0.96987
0.97033
0.974306
0.987645
1.02395
1.11791
1.36168
2.10394
2.49898
2.5663
2.5711
2.58237
2.60711
2.67272
2.80597
2.71145
0.99799
0.990109
0.982729
0.973002
0.969765
0.970223
0.974127
0.987276
1.0231
1.11583
1.35611
2.09136
2.49135
2.56286
2.56804
2.57969
2.6049
2.66816
2.79909
2.71513
0.997973
0.990115
0.982719
0.972972
0.969631
0.97009
0.973907
0.986826
1.02207
1.1133
1.34931
2.07577
2.48216
2.55884
2.56435
2.57634
2.6022
2.6628
2.79165
2.71901
0.997952
0.990122
0.982709
0.97293
0.969466
0.969924
0.97364
0.986284
1.02084
1.11026
1.34114
2.05666
2.47173
2.5546
2.56036
2.57254
2.59865
2.65632
2.78216
2.72205
0.997927
0.990126
0.982692
0.972877
0.969275
0.969732
0.973326
0.985644
1.01938
1.10665
1.33146
2.03305
2.45992
2.55017
2.55585
2.56799
2.59417
2.64869
2.7725
2.72397
0.9979
0.990124
0.982666
0.972808
0.969063
0.96952
0.972971
0.984907
1.01767
1.10242
1.32015
2.00474
2.4458
2.5455
2.55095
2.56279
2.58845
2.64003
2.76146
2.72165
0.997868
0.99012
0.982617
0.972739
0.968836
0.96929
0.972572
0.984059
1.0157
1.09754
1.3071
1.97167
2.42898
2.54015
2.5454
2.55684
2.58217
2.62981
2.75123
2.71589
0.997824
0.990118
0.98256
0.972659
0.968586
0.969036
0.972129
0.983104
1.01346
1.09197
1.29221
1.93367
2.40884
2.53354
2.53875
2.54978
2.57458
2.61873
2.73666
2.70699
0.997776
0.990116
0.982491
0.972565
0.96831
0.968756
0.971636
0.982039
1.01096
1.08577
1.27562
1.89015
2.38564
2.5244
2.5299
2.541
2.56495
2.60447
2.72299
2.68975
0.997725
0.990114
0.982413
0.972463
0.96802
0.968436
0.971081
0.980867
1.00824
1.07906
1.25764
1.842
2.35785
2.51226
2.51926
2.53098
2.5566
2.59106
2.7005
2.67308
0.997693
0.990094
0.982328
0.972405
0.967671
0.968007
0.970435
0.979605
1.00536
1.07199
1.23892
1.78887
2.32725
2.49568
2.5034
2.51458
2.54067
2.57378
2.67842
2.63869
0.997618
0.990145
0.982199
0.972403
0.967292
0.967533
0.969718
0.978253
1.00236
1.06465
1.22017
1.73455
2.28554
2.47275
2.48842
2.50075
2.52504
2.55203
2.64413
2.60266
0.997519
0.990211
0.982046
0.972409
0.966897
0.96704
0.968974
0.976857
0.999272
1.05718
1.20055
1.68373
2.2277
2.44241
2.4645
2.48268
2.50838
2.52731
2.60185
2.52707
1.02496
1.03118
1.02859
1.02531
1.02535
1.02595
1.03198
1.05034
1.09745
1.21571
1.52289
2.41045
2.67208
2.68593
2.67454
2.67146
2.68068
2.72961
2.82239
2.67129
1.02496
1.03118
1.02859
1.02531
1.02534
1.02595
1.03197
1.05031
1.09739
1.21556
1.52248
2.4098
2.67221
2.68609
2.67548
2.67263
2.68255
2.73034
2.82023
2.68373
1.02496
1.03118
1.02859
1.02531
1.02534
1.02593
1.03194
1.05024
1.09724
1.21523
1.52162
2.40828
2.67176
2.68578
2.67592
2.67317
2.68377
2.72949
2.81637
2.69495
1.02496
1.03117
1.02859
1.0253
1.02532
1.02591
1.03189
1.05014
1.09701
1.21469
1.52024
2.40555
2.67061
2.68498
2.6758
2.67343
2.685
2.7281
2.81213
2.70677
1.02496
1.03117
1.0286
1.02528
1.0253
1.02588
1.03182
1.04999
1.09668
1.21392
1.51824
2.40134
2.66868
2.68375
2.67508
2.67328
2.68587
2.72625
2.80724
2.71843
1.02496
1.03117
1.02861
1.02526
1.02527
1.02583
1.03173
1.0498
1.09624
1.21287
1.5155
2.39545
2.66584
2.68228
2.67375
2.6726
2.68616
2.72398
2.80188
2.72881
1.02496
1.03117
1.02863
1.02523
1.02522
1.02576
1.03161
1.04955
1.09567
1.21152
1.51191
2.38763
2.66208
2.68035
2.67197
2.67178
2.68616
2.72144
2.79699
2.73803
1.02496
1.03117
1.02865
1.0252
1.02515
1.02567
1.03146
1.04923
1.09496
1.20981
1.50736
2.37758
2.65736
2.67806
2.67017
2.6702
2.6857
2.71804
2.79075
2.74513
1.02496
1.03117
1.02866
1.02517
1.02507
1.02555
1.03126
1.04884
1.09407
1.2077
1.50173
2.36519
2.65152
2.67542
2.66787
2.66849
2.68536
2.71452
2.78565
2.751
1.02496
1.03117
1.02866
1.02514
1.02497
1.02541
1.03102
1.04836
1.093
1.20514
1.49487
2.35018
2.64442
2.67239
2.66538
2.66617
2.68493
2.71088
2.77828
2.75357
1.02496
1.03117
1.02867
1.02509
1.02484
1.02524
1.03073
1.04778
1.09172
1.20208
1.48668
2.33182
2.63674
2.66895
2.66255
2.66332
2.68405
2.70668
2.77182
2.753
1.02496
1.03117
1.02867
1.02502
1.02469
1.02503
1.0304
1.04711
1.09022
1.19847
1.47702
2.30982
2.62785
2.66539
2.65944
2.65991
2.68259
2.70164
2.76402
2.75109
1.02495
1.03116
1.02865
1.02491
1.02454
1.02482
1.03003
1.04634
1.08847
1.19426
1.46575
2.28402
2.61723
2.6618
2.65602
2.65618
2.67954
2.69595
2.75474
2.74701
1.02495
1.03114
1.02862
1.02478
1.02439
1.0246
1.02961
1.04546
1.08647
1.18943
1.45282
2.25424
2.60472
2.65832
2.65247
2.65129
2.67602
2.68808
2.74415
2.73845
1.02493
1.03112
1.02856
1.02465
1.02422
1.02435
1.02915
1.04448
1.08419
1.18392
1.43806
2.22053
2.58957
2.65424
2.6487
2.64567
2.67041
2.68013
2.73137
2.72766
1.02492
1.0311
1.02849
1.0245
1.02404
1.02408
1.02864
1.04337
1.08164
1.17775
1.42149
2.18196
2.57197
2.64938
2.64395
2.63894
2.66401
2.66911
2.71733
2.70964
1.0249
1.03107
1.02841
1.02435
1.02382
1.02379
1.02807
1.04215
1.07883
1.17096
1.40332
2.13777
2.55199
2.64266
2.63858
2.63097
2.65455
2.65761
2.69881
2.68689
1.02488
1.03106
1.02826
1.02427
1.02351
1.02351
1.02749
1.04086
1.07583
1.16363
1.38367
2.08923
2.52773
2.63294
2.6307
2.62295
2.64459
2.64129
2.67746
2.65334
1.02484
1.03105
1.02809
1.02418
1.02317
1.02319
1.02687
1.03948
1.07263
1.15582
1.36299
2.03328
2.50107
2.61951
2.61985
2.6131
2.63077
2.62525
2.64933
2.60685
1.0248
1.03104
1.02792
1.02409
1.02282
1.02285
1.02621
1.03803
1.06925
1.14751
1.34118
1.96859
2.46942
2.60283
2.60755
2.60346
2.61566
2.60169
2.61876
2.54031
1.02128
1.0349
1.04135
1.04459
1.04723
1.05111
1.06109
1.08498
1.14154
1.27931
1.63924
2.64934
2.74642
2.7337
2.71981
2.71315
2.72054
2.74586
2.81429
2.69141
1.02128
1.0349
1.04135
1.04459
1.04722
1.0511
1.06108
1.08495
1.14147
1.27916
1.63885
2.64891
2.74627
2.73354
2.72029
2.71412
2.7225
2.74655
2.81295
2.70163
1.02128
1.0349
1.04135
1.04459
1.04722
1.05109
1.06105
1.08488
1.14134
1.27886
1.63803
2.64763
2.74564
2.7329
2.7201
2.71433
2.72395
2.74631
2.80936
2.71247
1.02128
1.0349
1.04134
1.04459
1.04721
1.05107
1.061
1.08479
1.14112
1.27836
1.63671
2.64516
2.74455
2.73168
2.71912
2.71425
2.72526
2.74627
2.80581
2.72169
1.02128
1.0349
1.04134
1.04459
1.04719
1.05104
1.06094
1.08465
1.14081
1.27765
1.63479
2.64127
2.74302
2.73014
2.71772
2.71354
2.72602
2.74566
2.80171
2.73079
1.02128
1.0349
1.04134
1.04458
1.04717
1.051
1.06086
1.08447
1.1404
1.27669
1.63216
2.63574
2.74103
2.72805
2.71551
2.71227
2.72746
2.74432
2.79694
2.73724
1.02127
1.03491
1.04134
1.04457
1.04714
1.05094
1.06075
1.08424
1.13986
1.27543
1.62872
2.62847
2.73853
2.72587
2.71301
2.71037
2.72775
2.74227
2.79122
2.7429
1.02127
1.03491
1.04135
1.04456
1.0471
1.05087
1.06061
1.08394
1.13919
1.27386
1.62438
2.61921
2.73551
2.7227
2.70987
2.70833
2.72754
2.7395
2.78466
2.7463
1.02127
1.03491
1.04135
1.04455
1.04705
1.05078
1.06044
1.08357
1.13836
1.27192
1.61901
2.60793
2.73183
2.72015
2.70576
2.70537
2.72685
2.7361
2.77567
2.74838
1.02127
1.03491
1.04136
1.04453
1.04698
1.05067
1.06022
1.08312
1.13736
1.26957
1.6125
2.59436
2.72771
2.71651
2.70238
2.70199
2.72494
2.73193
2.76842
2.74932
1.02127
1.03491
1.04136
1.0445
1.0469
1.05053
1.05997
1.08259
1.13617
1.26676
1.60474
2.57822
2.72275
2.71276
2.69752
2.69809
2.72266
2.7274
2.7578
2.74822
1.02127
1.0349
1.04136
1.04445
1.0468
1.05037
1.05967
1.08197
1.13477
1.26345
1.59569
2.5598
2.71645
2.70923
2.69282
2.6931
2.7182
2.72078
2.74725
2.74518
1.02127
1.03489
1.04135
1.04439
1.04669
1.0502
1.05933
1.08125
1.13314
1.25959
1.58519
2.53845
2.70924
2.70436
2.68828
2.6885
2.71314
2.71485
2.73398
2.73983
1.02128
1.03487
1.04132
1.04433
1.04659
1.05
1.05894
1.08042
1.13126
1.25513
1.57316
2.51372
2.70069
2.69922
2.68289
2.6818
2.70626
2.70512
2.72373
2.72883
1.02128
1.03486
1.04128
1.04426
1.04647
1.04979
1.05851
1.07948
1.12911
1.25004
1.5594
2.48582
2.69077
2.69365
2.67926
2.67581
2.69827
2.6959
2.70657
2.71562
1.02128
1.03484
1.04122
1.04417
1.04634
1.04955
1.05802
1.07843
1.12669
1.24427
1.54386
2.45318
2.67927
2.68868
2.67238
2.66812
2.68915
2.68344
2.69337
2.6952
1.02127
1.03482
1.04116
1.04408
1.04619
1.04929
1.05748
1.07725
1.12399
1.23783
1.52648
2.41643
2.665
2.68471
2.66814
2.66033
2.67822
2.67002
2.67134
2.6703
1.02127
1.0348
1.0411
1.04398
1.04603
1.04899
1.05688
1.07595
1.12102
1.23072
1.50731
2.37368
2.64978
2.67965
2.66166
2.65203
2.66598
2.65414
2.65344
2.63493
1.02126
1.03477
1.04104
1.04387
1.04585
1.04867
1.05623
1.07453
1.11778
1.22291
1.48638
2.32278
2.63215
2.67567
2.65777
2.64447
2.65371
2.63386
2.62358
2.58918
1.02126
1.03475
1.04097
1.04376
1.04567
1.04832
1.05553
1.073
1.11425
1.21436
1.46311
2.26687
2.60857
2.66973
2.65142
2.6373
2.64007
2.61372
2.59791
2.52283
1.01034
1.02137
1.03057
1.03769
1.04342
1.05015
1.06366
1.09241
1.15709
1.31144
1.71823
2.79982
2.76573
2.75908
2.73735
2.72323
2.74203
2.75139
2.80041
2.70812
1.01034
1.02137
1.03056
1.03769
1.04342
1.05014
1.06365
1.09238
1.15704
1.31132
1.71793
2.79939
2.76546
2.75889
2.73672
2.72291
2.74363
2.75128
2.79913
2.71393
1.01034
1.02137
1.03056
1.03769
1.04342
1.05013
1.06362
1.09233
1.15692
1.31107
1.71727
2.79832
2.76493
2.75826
2.73529
2.72195
2.74414
2.75089
2.7963
2.7208
1.01034
1.02137
1.03056
1.03769
1.04341
1.05012
1.06358
1.09225
1.15674
1.31065
1.71616
2.79644
2.76429
2.75713
2.73326
2.72045
2.74383
2.74981
2.79156
2.7262
1.01033
1.02137
1.03056
1.03769
1.0434
1.0501
1.06353
1.09213
1.15647
1.31004
1.71452
2.79364
2.76359
2.75553
2.73077
2.71867
2.74262
2.74813
2.78683
2.7298
1.01033
1.02137
1.03056
1.03769
1.04339
1.05006
1.06346
1.09197
1.15611
1.30922
1.71224
2.78984
2.76282
2.7534
2.7278
2.71653
2.74086
2.74612
2.78252
2.73243
1.01033
1.02137
1.03056
1.03769
1.04337
1.05002
1.06336
1.09176
1.15565
1.30815
1.70923
2.78495
2.762
2.75065
2.72451
2.71425
2.73906
2.74303
2.77442
2.73547
1.01033
1.02137
1.03056
1.03769
1.04335
1.04996
1.06324
1.0915
1.15506
1.30679
1.70541
2.7789
2.76099
2.74741
2.72079
2.71103
2.73508
2.73992
2.76958
2.73703
1.01033
1.02137
1.03056
1.03768
1.04332
1.04989
1.06309
1.09117
1.15434
1.30512
1.70068
2.77158
2.75988
2.74311
2.71696
2.70868
2.73271
2.73476
2.75927
2.73662
1.01032
1.02138
1.03056
1.03768
1.04328
1.04981
1.0629
1.09078
1.15346
1.30309
1.69494
2.76296
2.75778
2.73817
2.71294
2.70408
2.72766
2.72961
2.75297
2.73427
1.01032
1.02137
1.03056
1.03767
1.04323
1.0497
1.06268
1.09031
1.15242
1.30067
1.68807
2.75317
2.75347
2.73156
2.71002
2.70125
2.7233
2.72271
2.73962
2.73073
1.01032
1.02137
1.03056
1.03765
1.04317
1.04958
1.06242
1.08975
1.15119
1.29781
1.67989
2.74058
2.74834
2.72482
2.70554
2.69605
2.71751
2.7148
2.73118
2.72218
1.01032
1.02137
1.03055
1.03762
1.0431
1.04944
1.06212
1.08912
1.14976
1.29447
1.67046
2.72447
2.74279
2.71582
2.70335
2.69164
2.71105
2.70665
2.71564
2.71488
1.01032
1.02136
1.03053
1.03758
1.04303
1.04929
1.06179
1.08838
1.14811
1.2906
1.65969
2.7052
2.73691
2.705
2.69873
2.6859
2.70367
2.69615
2.70381
2.69963
1.01032
1.02136
1.0305
1.03755
1.04293
1.04914
1.06142
1.08755
1.14622
1.28616
1.64747
2.68179
2.73088
2.69438
2.6952
2.68077
2.69505
2.68544
2.68715
2.68531
1.0103
1.02138
1.03046
1.03751
1.04284
1.04896
1.06099
1.08661
1.14408
1.28109
1.63359
2.65439
2.72355
2.68342
2.68821
2.67521
2.68555
2.67185
2.67185
2.6619
1.0103
1.02137
1.03042
1.03746
1.04274
1.04874
1.06051
1.08555
1.14166
1.27535
1.61797
2.62366
2.71492
2.67669
2.68138
2.6694
2.67559
2.65755
2.65218
2.63711
1.0103
1.02136
1.03038
1.0374
1.04262
1.04851
1.05998
1.08436
1.13894
1.26888
1.60034
2.58879
2.70483
2.66925
2.67074
2.66348
2.66529
2.63968
2.63145
2.59948
1.01029
1.02135
1.03035
1.03733
1.0425
1.04826
1.05939
1.08304
1.13591
1.26161
1.58044
2.54862
2.69209
2.66843
2.66319
2.65465
2.65336
2.62137
2.60561
2.55469
1.01029
1.02134
1.03031
1.03727
1.04237
1.04798
1.05876
1.0816
1.13256
1.25349
1.55781
2.5025
2.67598
2.66636
2.65476
2.64798
2.64108
2.60027
2.57674
2.48858
1.00363
1.00933
1.01643
1.02325
1.02943
1.03706
1.05237
1.08446
1.15549
1.32236
1.77164
2.87337
2.74836
2.7703
2.74381
2.7241
2.74425
2.75031
2.79567
2.73407
1.00363
1.00933
1.01643
1.02325
1.02943
1.03706
1.05236
1.08444
1.15544
1.32227
1.77144
2.87287
2.74823
2.77026
2.74252
2.72303
2.74403
2.74994
2.79407
2.73558
1.00363
1.00933
1.01643
1.02324
1.02942
1.03705
1.05234
1.0844
1.15535
1.32207
1.77096
2.87184
2.74786
2.76999
2.74024
2.72151
2.74352
2.74893
2.79068
2.7373
1.00363
1.00933
1.01643
1.02324
1.02942
1.03704
1.05232
1.08434
1.1552
1.32174
1.7701
2.8702
2.74733
2.76946
2.73756
2.71914
2.74225
2.74729
2.78635
2.737
1.00363
1.00933
1.01643
1.02324
1.02942
1.03702
1.05227
1.08424
1.15499
1.32127
1.76877
2.86788
2.74675
2.76871
2.73444
2.71667
2.74052
2.74418
2.77843
2.73547
1.00363
1.00933
1.01643
1.02324
1.02941
1.037
1.05222
1.08412
1.1547
1.32061
1.76687
2.86482
2.74606
2.76768
2.7309
2.71386
2.73753
2.74053
2.77374
2.73324
1.00363
1.00933
1.01643
1.02324
1.0294
1.03697
1.05215
1.08395
1.15431
1.31975
1.76432
2.86098
2.74526
2.76625
2.72715
2.71062
2.73508
2.73559
2.76337
2.72985
1.00363
1.00933
1.01643
1.02324
1.02939
1.03694
1.05205
1.08373
1.15383
1.31865
1.76105
2.85629
2.74424
2.76449
2.72259
2.7073
2.73116
2.73028
2.75746
2.72565
1.00363
1.00933
1.01643
1.02324
1.02938
1.03689
1.05194
1.08347
1.15322
1.31728
1.75698
2.85066
2.74333
2.7613
2.7188
2.70295
2.7265
2.7231
2.74512
2.71716
1.00363
1.00933
1.01643
1.02324
1.02936
1.03683
1.05179
1.08315
1.15249
1.31562
1.75205
2.84387
2.74276
2.75662
2.71436
2.6996
2.72152
2.71616
2.73833
2.71071
1.00363
1.00932
1.01643
1.02324
1.02934
1.03676
1.05162
1.08276
1.15162
1.31363
1.74616
2.83581
2.74246
2.75081
2.71042
2.69396
2.7149
2.70812
2.7244
2.70022
1.00363
1.00932
1.01643
1.02323
1.02931
1.03667
1.05142
1.08231
1.15059
1.31127
1.73921
2.8264
2.74207
2.74433
2.70659
2.69042
2.70843
2.6983
2.71653
2.69018
1.00363
1.00932
1.01642
1.02322
1.02928
1.03657
1.05119
1.08179
1.14939
1.3085
1.7311
2.81564
2.74168
2.73671
2.70137
2.6838
2.70042
2.68899
2.70054
2.6757
1.00364
1.00931
1.01642
1.0232
1.02924
1.03646
1.05092
1.08118
1.148
1.30528
1.72177
2.80324
2.74147
2.72958
2.69687
2.68005
2.69199
2.6768
2.69094
2.66177
1.00364
1.00931
1.01641
1.02318
1.0292
1.03633
1.05062
1.08049
1.1464
1.30157
1.71108
2.78906
2.74078
2.7229
2.68781
2.67226
2.6831
2.66576
2.67216
2.6441
1.00365
1.00931
1.0164
1.02315
1.02916
1.03619
1.05027
1.07969
1.14458
1.29731
1.69883
2.773
2.73948
2.71445
2.6812
2.66737
2.67287
2.65057
2.65891
2.62305
1.00365
1.0093
1.01639
1.02312
1.0291
1.03604
1.04988
1.07879
1.14249
1.29245
1.68467
2.7548
2.73646
2.70748
2.67425
2.6596
2.66351
2.63623
2.63743
2.59798
1.00365
1.0093
1.01638
1.0231
1.02904
1.03586
1.04944
1.07777
1.14012
1.28689
1.66849
2.73428
2.72992
2.694
2.66771
2.65452
2.65241
2.61797
2.61751
2.56505
1.00365
1.0093
1.01636
1.02307
1.02896
1.03567
1.04894
1.07662
1.13744
1.28054
1.64997
2.70948
2.71912
2.68664
2.66516
2.64596
2.64162
2.60003
2.58786
2.52256
1.00365
1.0093
1.01634
1.02304
1.02888
1.03547
1.0484
1.07534
1.13442
1.27329
1.62903
2.67475
2.70721
2.66734
2.66443
2.64289
2.62866
2.58044
2.55796
2.46168
1.00078
1.00311
1.00641
1.0113
1.01665
1.02446
1.04029
1.07391
1.14896
1.32632
1.80994
2.91889
2.71434
2.75784
2.7463
2.72427
2.74217
2.73507
2.77734
2.73079
1.00078
1.00311
1.00641
1.0113
1.01665
1.02446
1.04028
1.07389
1.14893
1.32625
1.80984
2.91833
2.71449
2.75859
2.74462
2.72306
2.74157
2.73411
2.77518
2.73227
1.00078
1.00311
1.00641
1.0113
1.01665
1.02445
1.04027
1.07386
1.14887
1.32611
1.80953
2.91731
2.71479
2.75932
2.74197
2.72151
2.74086
2.73298
2.77205
2.73433
1.00078
1.0031
1.00641
1.0113
1.01665
1.02444
1.04025
1.07382
1.14876
1.32587
1.80893
2.91582
2.71531
2.76003
2.73898
2.7187
2.73884
2.73143
2.76826
2.73451
1.00078
1.0031
1.00641
1.0113
1.01665
1.02443
1.04022
1.07374
1.1486
1.32551
1.80797
2.91381
2.71614
2.76064
2.73562
2.71547
2.73612
2.7283
2.7614
2.73472
1.00078
1.0031
1.00641
1.0113
1.01664
1.02442
1.04018
1.07365
1.14837
1.325
1.8066
2.91128
2.71723
2.76116
2.73179
2.71193
2.7321
2.72507
2.75705
2.73407
1.00078
1.0031
1.00641
1.0113
1.01664
1.0244
1.04012
1.07352
1.14807
1.32431
1.80476
2.9082
2.71847
2.76147
2.728
2.70781
2.7274
2.72012
2.75081
2.73277
1.00078
1.0031
1.0064
1.0113
1.01663
1.02437
1.04005
1.07335
1.14769
1.32341
1.80239
2.90454
2.71976
2.76158
2.72287
2.70372
2.72197
2.71564
2.74589
2.7311
1.00078
1.0031
1.0064
1.0113
1.01662
1.02434
1.03996
1.07314
1.14721
1.32228
1.79944
2.90026
2.72103
2.76126
2.71889
2.69878
2.71642
2.70944
2.73822
2.72892
1.00078
1.0031
1.0064
1.0113
1.01662
1.0243
1.03986
1.07289
1.14663
1.3209
1.79588
2.89531
2.72214
2.76062
2.7127
2.69409
2.70897
2.70281
2.73315
2.72643
1.00078
1.0031
1.0064
1.0113
1.0166
1.02425
1.03973
1.07259
1.14593
1.31923
1.79164
2.88955
2.72305
2.75939
2.70817
2.68853
2.7033
2.69503
2.72372
2.72327
1.00078
1.0031
1.0064
1.0113
1.01659
1.02419
1.03957
1.07223
1.14509
1.31724
1.78633
2.88306
2.72367
2.75759
2.70174
2.68285
2.69442
2.6868
2.71774
2.72037
1.00078
1.0031
1.0064
1.01129
1.01656
1.02411
1.03939
1.07181
1.14411
1.31498
1.77914
2.87558
2.72399
2.75501
2.6967
2.67691
2.68729
2.67702
2.70561
2.71564
1.00078
1.0031
1.0064
1.01128
1.01654
1.02403
1.03918
1.07131
1.14296
1.31233
1.77084
2.86671
2.72405
2.75098
2.69039
2.671
2.67745
2.66719
2.69762
2.71122
1.00078
1.00309
1.0064
1.01128
1.01651
1.02394
1.03894
1.07074
1.14162
1.30923
1.76131
2.85625
2.72428
2.74412
2.68576
2.664
2.66945
2.654
2.68131
2.70193
1.00078
1.00309
1.00639
1.01126
1.01648
1.02383
1.03866
1.07008
1.14008
1.30565
1.7504
2.84403
2.72441
2.73527
2.68239
2.65875
2.65849
2.64144
2.67016
2.69274
1.00078
1.00309
1.00639
1.01125
1.01644
1.0237
1.03834
1.06933
1.13831
1.3015
1.73792
2.82983
2.72408
2.72409
2.67835
2.65268
2.65117
2.62489
2.64695
2.67282
1.00078
1.00309
1.00638
1.01124
1.01639
1.02355
1.03797
1.06846
1.13628
1.2967
1.72364
2.81341
2.72296
2.71391
2.67558
2.64731
2.63855
2.60939
2.6298
2.65221
1.00078
1.00309
1.00638
1.01122
1.01634
1.02339
1.03756
1.06748
1.13395
1.29115
1.70725
2.79372
2.72212
2.70093
2.6684
2.6436
2.6314
2.58808
2.59405
2.60624
1.00079
1.00307
1.00638
1.0112
1.01629
1.0232
1.03709
1.06636
1.1313
1.28477
1.68827
2.77011
2.71813
2.69521
2.66632
2.63681
2.6165
2.56993
2.5679
2.55806
1.00019
1.0007
1.00191
1.00443
1.00849
1.01591
1.0315
1.06548
1.14277
1.32852
1.83127
2.98364
2.63398
2.76317
2.76546
2.7342
2.74312
2.75234
2.84304
2.84729
1.00019
1.0007
1.00191
1.00443
1.00849
1.01591
1.0315
1.06547
1.14274
1.32847
1.83125
2.98255
2.63478
2.76472
2.76473
2.73244
2.74162
2.74974
2.84847
2.85207
1.00019
1.0007
1.00191
1.00443
1.00849
1.01591
1.03149
1.06545
1.1427
1.32837
1.83112
2.98042
2.63605
2.76558
2.76358
2.7303
2.74046
2.74775
2.85578
2.86356
1.00019
1.0007
1.00191
1.00443
1.00849
1.0159
1.03147
1.06542
1.14262
1.32818
1.83081
2.97722
2.63787
2.76578
2.76215
2.72683
2.73765
2.74486
2.86363
2.87591
1.00019
1.0007
1.00191
1.00443
1.00848
1.01589
1.03145
1.06537
1.1425
1.32789
1.83026
2.97285
2.6405
2.76606
2.75917
2.72372
2.73377
2.74132
2.87472
2.88706
1.00019
1.0007
1.0019
1.00442
1.00848
1.01588
1.03142
1.06529
1.14232
1.32747
1.8294
2.9673
2.64386
2.76644
2.75494
2.72039
2.72985
2.73551
2.87484
2.89718
1.00019
1.00069
1.0019
1.00442
1.00847
1.01586
1.03138
1.06519
1.14209
1.32689
1.82818
2.96055
2.64794
2.76671
2.75031
2.71656
2.72537
2.72808
2.87197
2.90606
1.00019
1.00069
1.0019
1.00442
1.00847
1.01584
1.03132
1.06506
1.14178
1.32613
1.82655
2.95258
2.65267
2.76676
2.74416
2.71233
2.72104
2.72034
2.86591
2.91459
1.00019
1.00069
1.0019
1.00442
1.00846
1.01581
1.03125
1.06489
1.1414
1.32516
1.82447
2.94337
2.65801
2.76636
2.73992
2.70686
2.71582
2.71125
2.85066
2.92192
1.00019
1.00069
1.0019
1.00442
1.00845
1.01578
1.03117
1.06469
1.14092
1.32397
1.82183
2.93422
2.66419
2.76489
2.73237
2.70236
2.71
2.70312
2.84018
2.92428
1.00019
1.00069
1.0019
1.00442
1.00844
1.01574
1.03106
1.06444
1.14035
1.32256
1.81841
2.92745
2.67283
2.76092
2.72611
2.69587
2.70349
2.69238
2.81752
2.92344
1.00019
1.00069
1.0019
1.00441
1.00842
1.01569
1.03094
1.06415
1.13966
1.32087
1.8143
2.92055
2.68316
2.75537
2.71789
2.69074
2.6969
2.68506
2.80458
2.92085
1.00019
1.00069
1.0019
1.00441
1.0084
1.01563
1.03079
1.06381
1.13885
1.31886
1.80939
2.91329
2.69095
2.75197
2.709
2.68324
2.68828
2.67215
2.77732
2.91291
1.00019
1.00069
1.00189
1.0044
1.00838
1.01556
1.03062
1.0634
1.1379
1.31651
1.80363
2.90572
2.69679
2.74954
2.70029
2.67788
2.68113
2.66443
2.762
2.9044
1.00019
1.00069
1.00189
1.0044
1.00836
1.01548
1.03042
1.06293
1.13679
1.31376
1.79696
2.89751
2.70119
2.747
2.69188
2.66942
2.67116
2.64989
2.7303
2.88451
1.00019
1.00069
1.00189
1.00439
1.00832
1.01539
1.03018
1.06238
1.1355
1.31058
1.78929
2.88839
2.70416
2.74369
2.68397
2.66355
2.66275
2.64003
2.712
2.86822
1.00019
1.00069
1.00188
1.00438
1.00829
1.01528
1.02991
1.06175
1.13402
1.30689
1.78049
2.87796
2.70566
2.74035
2.67634
2.65644
2.65311
2.6221
2.67475
2.83157
1.00018
1.00068
1.00188
1.00436
1.00824
1.01515
1.0296
1.06102
1.13229
1.30272
1.76838
2.86616
2.70718
2.7324
2.67066
2.65048
2.64382
2.60976
2.65195
2.80145
1.00018
1.00068
1.00187
1.00435
1.0082
1.015
1.02925
1.06018
1.1303
1.29798
1.75326
2.85127
2.70865
2.72498
2.66886
2.64361
2.6321
2.58856
2.60617
2.73277
1.00018
1.00068
1.00186
1.00433
1.00814
1.01484
1.02885
1.05923
1.12802
1.29247
1.73581
2.83278
2.70768
2.71001
2.66782
2.63886
2.62097
2.57119
2.57626
2.67763
1.00006
1.00023
1.00073
1.00205
1.00509
1.01187
1.02695
1.06088
1.13944
1.33123
1.84501
3.0474
2.57278
2.75865
2.77622
2.75188
2.74191
2.74792
2.89537
2.93623
1.00006
1.00023
1.00073
1.00205
1.00509
1.01187
1.02695
1.06087
1.13942
1.33119
1.84505
3.04612
2.57384
2.76079
2.7755
2.7494
2.74077
2.74316
2.87148
2.93052
1.00006
1.00023
1.00073
1.00205
1.00509
1.01186
1.02694
1.06086
1.13939
1.33111
1.84504
3.04376
2.57566
2.76222
2.77414
2.7461
2.7408
2.74002
2.85235
2.92621
1.00006
1.00023
1.00073
1.00205
1.00509
1.01186
1.02693
1.06083
1.13933
1.33097
1.8449
3.04035
2.57823
2.76333
2.77177
2.74103
2.73982
2.73681
2.83993
2.91629
1.00006
1.00023
1.00073
1.00205
1.00508
1.01185
1.02691
1.06079
1.13923
1.33073
1.84457
3.03582
2.58182
2.76418
2.76882
2.73566
2.73737
2.73349
2.82912
2.91051
1.00006
1.00023
1.00073
1.00205
1.00508
1.01184
1.02688
1.06073
1.13909
1.33039
1.84399
3.03018
2.5864
2.76485
2.76521
2.73036
2.73441
2.7284
2.8217
2.89879
1.00006
1.00023
1.00073
1.00204
1.00507
1.01182
1.02684
1.06064
1.13889
1.32989
1.8431
3.02344
2.59195
2.76488
2.76198
2.72415
2.7297
2.72382
2.80792
2.89043
1.00006
1.00023
1.00073
1.00204
1.00506
1.0118
1.02679
1.06053
1.13864
1.32924
1.84186
3.01557
2.59843
2.76488
2.75717
2.71904
2.72515
2.71647
2.80072
2.87733
1.00006
1.00023
1.00072
1.00204
1.00505
1.01178
1.02673
1.06039
1.13831
1.32839
1.84022
3.00658
2.60569
2.76484
2.75158
2.71364
2.71938
2.71092
2.7871
2.86613
1.00006
1.00023
1.00072
1.00203
1.00504
1.01174
1.02666
1.06021
1.1379
1.32734
1.83813
2.99644
2.61367
2.76476
2.74438
2.7082
2.71377
2.70304
2.77954
2.8541
1.00006
1.00023
1.00072
1.00203
1.00502
1.01171
1.02657
1.06
1.1374
1.32606
1.83552
2.98511
2.62219
2.76426
2.73833
2.70194
2.70682
2.69537
2.76398
2.83884
1.00006
1.00022
1.00072
1.00202
1.005
1.01166
1.02646
1.05974
1.13679
1.32452
1.83233
2.97251
2.63109
2.76341
2.73015
2.6961
2.70076
2.68771
2.75496
2.82844
1.00006
1.00022
1.00071
1.00201
1.00498
1.0116
1.02632
1.05943
1.13608
1.32268
1.8285
2.95858
2.64026
2.76194
2.72281
2.68877
2.69236
2.67802
2.73631
2.80921
1.00006
1.00022
1.00071
1.002
1.00495
1.01154
1.02617
1.05907
1.13523
1.32052
1.82394
2.94323
2.64967
2.75992
2.71442
2.68318
2.68553
2.66964
2.72537
2.79671
1.00006
1.00022
1.0007
1.00198
1.00492
1.01146
1.02599
1.05865
1.13425
1.31799
1.81857
2.92721
2.65868
2.75706
2.70656
2.67505
2.67585
2.65791
2.70282
2.77421
1.00006
1.00022
1.0007
1.00197
1.00488
1.01137
1.02577
1.05816
1.13311
1.31512
1.81193
2.91647
2.67117
2.74998
2.69823
2.6699
2.66796
2.64735
2.68877
2.75455
1.00006
1.00021
1.00069
1.00195
1.00484
1.01126
1.02553
1.05759
1.13178
1.31181
1.80411
2.9065
2.6804
2.74313
2.68878
2.66164
2.65767
2.63147
2.65947
2.72279
1.00006
1.00021
1.00068
1.00193
1.00479
1.01114
1.02525
1.05694
1.13026
1.30798
1.79502
2.89601
2.68667
2.73914
2.6811
2.65652
2.64857
2.61847
2.63994
2.68999
1.00006
1.00021
1.00067
1.00191
1.00473
1.011
1.02492
1.05619
1.12849
1.30353
1.78441
2.88396
2.691
2.73347
2.67289
2.64792
2.63647
2.59763
2.6008
2.63574
1.00005
1.0002
1.00066
1.00188
1.00467
1.01084
1.02455
1.05533
1.12646
1.29834
1.77188
2.86903
2.69363
2.72854
2.67077
2.64277
2.62569
2.57909
2.57242
2.57105
1.00006
1.00021
1.0006
1.00164
1.00426
1.01054
1.02517
1.05895
1.13822
1.33357
1.85233
3.08219
2.53158
2.75177
2.78201
2.75862
2.74601
2.74596
2.77666
2.84769
1.00006
1.00021
1.0006
1.00163
1.00426
1.01054
1.02517
1.05895
1.13821
1.33354
1.8524
3.0808
2.53277
2.75445
2.78144
2.75577
2.74403
2.74272
2.77309
2.84441
1.00006
1.00021
1.0006
1.00163
1.00425
1.01054
1.02516
1.05893
1.13818
1.33347
1.85245
3.0783
2.53486
2.75635
2.78023
2.75217
2.74318
2.7409
2.77192
2.84191
1.00006
1.00021
1.0006
1.00163
1.00425
1.01053
1.02515
1.05891
1.13813
1.33335
1.85241
3.07477
2.53784