/*--------------------------------*- C++ -*----------------------------------*\
  =========                 |
  \\      /  F ield         | OpenFOAM: The Open Source CFD Toolbox
   \\    /   O peration     | Website:  https://openfoam.org
    \\  /    A nd           | Version:  6.0
     \\/     M anipulation  |
\*---------------------------------------------------------------------------*/
FoamFile
{
    version     2.0;
    format      ascii;
    class       volVectorField;
    location    "2.5";
    object      U;
}
// * * * * * * * * * * * * * * * * * * * * * * * * * * * * * * * * * * * * * //

dimensions      [0 1 -1 0 0 0 0];

internalField   nonuniform List<vector> 
24000
(
(3.0843 3.5872e-07 -0.139708)
(3.10999 3.9595e-07 -0.149788)
(3.12375 9.6072e-07 -0.153198)
(3.13363 7.25886e-07 -0.152568)
(3.13827 3.95712e-06 -0.153783)
(3.13829 1.19336e-05 -0.154025)
(3.13629 2.13107e-05 -0.15505)
(3.1295 3.61834e-05 -0.157819)
(3.10995 6.60463e-05 -0.164814)
(3.05618 0.000132977 -0.182113)
(2.90208 0.000288614 -0.22615)
(2.42626 0.000709369 -0.355314)
(1.7592 0.00158618 -0.480403)
(1.63935 0.00122959 -0.476301)
(1.6238 0.00094831 -0.474465)
(1.60522 0.000656029 -0.474766)
(1.56529 0.000270832 -0.477642)
(1.46136 -0.00040642 -0.486082)
(1.15514 -0.00128034 -0.538972)
(0.990153 -0.00200488 -0.471239)
(3.0843 1.11009e-06 -0.139708)
(3.10999 1.11698e-06 -0.149787)
(3.12375 2.98798e-06 -0.153198)
(3.13363 1.75559e-06 -0.152568)
(3.13827 1.20773e-05 -0.153781)
(3.13829 3.78018e-05 -0.154024)
(3.1363 6.78647e-05 -0.155047)
(3.12951 0.000115581 -0.157813)
(3.10998 0.000212091 -0.1648)
(3.05625 0.000431698 -0.182083)
(2.90224 0.000959228 -0.226081)
(2.42635 0.00243976 -0.355179)
(1.75762 0.00587792 -0.480326)
(1.63585 0.00522158 -0.476378)
(1.62033 0.00450895 -0.474813)
(1.60175 0.0037586 -0.475283)
(1.56167 0.00275336 -0.478497)
(1.45724 0.00106429 -0.487032)
(1.14008 -0.000488598 -0.540521)
(0.974971 -0.00351993 -0.473791)
(3.0843 1.80273e-06 -0.139709)
(3.10999 1.58164e-06 -0.149786)
(3.12375 5.00209e-06 -0.153198)
(3.13363 1.46537e-06 -0.152568)
(3.13828 2.04886e-05 -0.153776)
(3.13831 6.81225e-05 -0.154022)
(3.13631 0.00012329 -0.155042)
(3.12954 0.000210454 -0.157801)
(3.11005 0.000387635 -0.164774)
(3.05642 0.000796645 -0.182023)
(2.90266 0.00180882 -0.225934)
(2.42725 0.00474063 -0.354857)
(1.75681 0.0121136 -0.479967)
(1.63314 0.0115746 -0.476108)
(1.61759 0.0105464 -0.474771)
(1.59895 0.00946269 -0.475416)
(1.55864 0.00801895 -0.478948)
(1.45364 0.00573611 -0.487639)
(1.13028 0.00444731 -0.54105)
(0.963761 -0.00202172 -0.4759)
(3.0843 2.08775e-06 -0.13971)
(3.10999 1.77929e-06 -0.149785)
(3.12375 6.51724e-06 -0.153198)
(3.13363 -7.70097e-08 -0.15257)
(3.13829 2.95049e-05 -0.153768)
(3.13833 0.000103807 -0.154019)
(3.13634 0.000189652 -0.155034)
(3.1296 0.000324193 -0.157783)
(3.11017 0.000597491 -0.164733)
(3.05672 0.00123363 -0.181926)
(2.90342 0.00283699 -0.225692)
(2.42912 0.00756687 -0.354305)
(1.7568 0.0199209 -0.479344)
(1.63088 0.0195483 -0.475584)
(1.61526 0.0182304 -0.474436)
(1.59658 0.0168769 -0.475252)
(1.556 0.0151105 -0.479052)
(1.45041 0.0124386 -0.48788)
(1.12241 0.0116872 -0.540953)
(0.953489 0.00171474 -0.477433)
(3.0843 1.52852e-06 -0.139711)
(3.10999 1.87956e-06 -0.149785)
(3.12375 7.73207e-06 -0.153197)
(3.13364 -2.0924e-06 -0.152572)
(3.13831 3.98252e-05 -0.153757)
(3.13836 0.000145713 -0.154015)
(3.13638 0.000268542 -0.155022)
(3.12968 0.000459944 -0.157757)
(3.11034 0.000847315 -0.164674)
(3.05716 0.0017525 -0.181789)
(2.9046 0.0040609 -0.225338)
(2.4322 0.0109493 -0.353474)
(1.75782 0.0293182 -0.478425)
(1.62914 0.0291273 -0.474791)
(1.61338 0.0275566 -0.473865)
(1.59465 0.0259845 -0.474839)
(1.55381 0.0239863 -0.478859)
(1.44771 0.0211389 -0.487842)
(1.11842 0.0212426 -0.540184)
(0.945883 0.00848767 -0.478394)
(3.0843 -1.75474e-07 -0.139711)
(3.10999 1.90836e-06 -0.149787)
(3.12374 9.32126e-06 -0.153194)
(3.13364 -4.20516e-06 -0.152574)
(3.13834 5.19218e-05 -0.153741)
(3.1384 0.000194619 -0.154009)
(3.13644 0.00036107 -0.155006)
(3.12978 0.000619896 -0.157721)
(3.11059 0.00114181 -0.164595)
(3.05777 0.00236282 -0.181604)
(2.90629 0.00549993 -0.224852)
(2.43674 0.0149322 -0.352328)
(1.76011 0.0403665 -0.477154)
(1.62805 0.0402725 -0.4737)
(1.61208 0.0384398 -0.473035)
(1.59326 0.0366429 -0.474176)
(1.55217 0.0344554 -0.478403)
(1.44573 0.0316041 -0.48754)
(1.11853 0.0326871 -0.538829)
(0.941513 0.0182303 -0.47864)
(3.0843 -2.55085e-06 -0.139709)
(3.10999 1.64972e-06 -0.149793)
(3.12374 1.1369e-05 -0.153191)
(3.13365 -6.38374e-06 -0.152577)
(3.13837 6.6286e-05 -0.153722)
(3.13846 0.000251507 -0.154001)
(3.13652 0.000468463 -0.154985)
(3.12992 0.000805828 -0.157676)
(3.11091 0.00148461 -0.164493)
(3.05859 0.0030729 -0.181362)
(2.90857 0.00717216 -0.22421)
(2.44299 0.019557 -0.350808)
(1.76389 0.0531115 -0.475515)
(1.62772 0.0529132 -0.472319)
(1.61147 0.0507567 -0.471914)
(1.59254 0.0487322 -0.473248)
(1.55122 0.0464532 -0.477689)
(1.44466 0.0438303 -0.486981)
(1.12223 0.0460056 -0.536936)
(0.939942 0.0308708 -0.478389)
(3.0843 -4.36697e-06 -0.139706)
(3.11 7.86104e-07 -0.149799)
(3.12374 1.34257e-05 -0.15319)
(3.13366 -8.55326e-06 -0.152581)
(3.13842 8.34624e-05 -0.153696)
(3.13853 0.000317547 -0.153992)
(3.13662 0.000592285 -0.15496)
(3.13011 0.00101958 -0.157618)
(3.11132 0.00187845 -0.164364)
(3.05964 0.00388874 -0.181057)
(2.91153 0.00909263 -0.223391)
(2.45124 0.0248661 -0.348861)
(1.7693 0.0676056 -0.473474)
(1.62818 0.067018 -0.470654)
(1.61162 0.0643985 -0.470494)
(1.59259 0.0621101 -0.47204)
(1.55109 0.0598706 -0.476695)
(1.44463 0.0578051 -0.486149)
(1.12912 0.0612209 -0.534606)
(0.941032 0.0461889 -0.477466)
(3.0843 -5.27555e-06 -0.139701)
(3.11 8.81824e-08 -0.149805)
(3.12374 1.55032e-05 -0.153187)
(3.13367 -1.00622e-05 -0.152587)
(3.13848 0.000104654 -0.153666)
(3.13862 0.000394043 -0.153982)
(3.13674 0.000734123 -0.154928)
(3.13034 0.00126297 -0.157548)
(3.11184 0.0023256 -0.164206)
(3.06096 0.00481461 -0.180681)
(2.91528 0.0112728 -0.222373)
(2.4618 0.0308851 -0.346401)
(1.7765 0.083936 -0.471036)
(1.62952 0.0825056 -0.468687)
(1.61251 0.0792694 -0.468783)
(1.59327 0.0767062 -0.470572)
(1.55158 0.07464 -0.475435)
(1.44538 0.073441 -0.485016)
(1.1391 0.0783281 -0.531614)
(0.94421 0.0648614 -0.47656)
(3.0843 -6.12181e-06 -0.139696)
(3.11 6.71586e-07 -0.149812)
(3.12374 1.86823e-05 -0.153182)
(3.13369 -8.97613e-06 -0.152592)
(3.13855 0.000131908 -0.153628)
(3.13873 0.000482556 -0.153969)
(3.1369 0.000895001 -0.154892)
(3.13062 0.00153653 -0.157464)
(3.11248 0.00282633 -0.164015)
(3.06259 0.00585179 -0.180225)
(2.91992 0.0137174 -0.221131)
(2.47494 0.037591 -0.343367)
(1.78551 0.10242 -0.468229)
(1.63178 0.0993639 -0.466436)
(1.61354 0.0955316 -0.466802)
(1.59436 0.0926782 -0.468856)
(1.55275 0.0908365 -0.47389)
(1.44719 0.0907467 -0.483589)
(1.15217 0.0973813 -0.528252)
(0.949871 0.0871691 -0.474653)
(3.0843 -7.09887e-06 -0.13969)
(3.11001 2.94279e-06 -0.149821)
(3.12374 2.32892e-05 -0.153177)
(3.13371 -2.2647e-06 -0.152598)
(3.13864 0.000166388 -0.153581)
(3.13887 0.000582312 -0.153953)
(3.13708 0.00107258 -0.154847)
(3.13096 0.00183677 -0.157364)
(3.11324 0.00337717 -0.163789)
(3.06456 0.00700019 -0.179683)
(2.92555 0.016439 -0.219627)
(2.49096 0.0450613 -0.339957)
(1.79668 0.122969 -0.464553)
(1.63477 0.117933 -0.463891)
(1.61595 0.113299 -0.464388)
(1.59668 0.110069 -0.466865)
(1.55508 0.108576 -0.472121)
(1.4504 0.1098 -0.481856)
(1.16766 0.117796 -0.524537)
(0.957196 0.112077 -0.472565)
(3.0843 -7.7575e-06 -0.139682)
(3.11002 7.58629e-06 -0.149831)
(3.12374 2.85889e-05 -0.153169)
(3.13374 1.24908e-05 -0.152603)
(3.13874 0.000208229 -0.153527)
(3.13903 0.000688919 -0.153935)
(3.1373 0.00125861 -0.154795)
(3.13136 0.00215319 -0.157246)
(3.11416 0.00396851 -0.163521)
(3.06691 0.00825653 -0.179041)
(2.93229 0.019451 -0.217839)
(2.51019 0.0534527 -0.335872)
(1.81024 0.145442 -0.460524)
(1.63907 0.138119 -0.460827)
(1.61989 0.132471 -0.461517)
(1.60005 0.128956 -0.464512)
(1.55868 0.128081 -0.469873)
(1.45513 0.130946 -0.479628)
(1.17552 0.141884 -0.520283)
(0.959476 0.142125 -0.470247)
(3.0843 -8.01177e-06 -0.139672)
(3.11002 1.45672e-05 -0.149843)
(3.12374 3.45621e-05 -0.153157)
(3.13377 3.37065e-05 -0.152604)
(3.13886 0.000255304 -0.15347)
(3.13921 0.000798787 -0.153918)
(3.13755 0.00144669 -0.154738)
(3.13183 0.00247654 -0.157112)
(3.11523 0.0045891 -0.16321)
(3.06968 0.00960747 -0.178291)
(2.9403 0.022727 -0.215755)
(2.53323 0.0626325 -0.330768)
(1.82641 0.170124 -0.456155)
(1.64466 0.159588 -0.457372)
(1.62556 0.152862 -0.458332)
(1.60564 0.149213 -0.461468)
(1.56456 0.149435 -0.467022)
(1.46217 0.154701 -0.476813)
(1.18394 0.169986 -0.51594)
(0.962485 0.178816 -0.467483)
(3.08431 -8.55166e-06 -0.139661)
(3.11003 2.15613e-05 -0.149856)
(3.12375 4.12358e-05 -0.153141)
(3.13381 5.64675e-05 -0.152601)
(3.13899 0.000304449 -0.153408)
(3.13942 0.0009133 -0.153902)
(3.13784 0.00164184 -0.154676)
(3.13237 0.00281188 -0.156959)
(3.11648 0.00523579 -0.162851)
(3.07292 0.0110234 -0.177424)
(2.94967 0.0261641 -0.213342)
(2.56049 0.0722 -0.324817)
(1.84582 0.196464 -0.451071)
(1.65221 0.182228 -0.453423)
(1.63338 0.174609 -0.454814)
(1.61374 0.170999 -0.457924)
(1.57316 0.172766 -0.463463)
(1.47206 0.181297 -0.473228)
(1.19537 0.202536 -0.511076)
(0.968727 0.221679 -0.464326)
(3.08431 -9.74766e-06 -0.139647)
(3.11004 2.69712e-05 -0.149871)
(3.12375 4.63792e-05 -0.153122)
(3.13385 7.78244e-05 -0.152598)
(3.13914 0.000351051 -0.15334)
(3.13965 0.00102979 -0.153886)
(3.13816 0.00184437 -0.154607)
(3.13299 0.00316021 -0.156787)
(3.11791 0.00589772 -0.162445)
(3.07663 0.0124429 -0.176441)
(2.96043 0.0295451 -0.210595)
(2.59211 0.0815101 -0.318016)
(1.86933 0.222684 -0.445359)
(1.66315 0.20589 -0.44873)
(1.64444 0.197953 -0.450643)
(1.62483 0.194867 -0.453897)
(1.5849 0.198533 -0.459309)
(1.48532 0.210882 -0.468898)
(1.21072 0.239595 -0.505282)
(0.978888 0.270851 -0.459995)
(3.08431 -1.12103e-05 -0.139632)
(3.11005 3.13319e-05 -0.149889)
(3.12376 4.56003e-05 -0.153099)
(3.13391 0.000104974 -0.152595)
(3.1393 0.0003745 -0.153264)
(3.1399 0.0011395 -0.153868)
(3.13852 0.00205148 -0.154529)
(3.13368 0.00351529 -0.156594)
(3.11951 0.00654037 -0.161993)
(3.08077 0.0137348 -0.175351)
(2.97243 0.0324425 -0.207547)
(2.62795 0.0892639 -0.310316)
(1.89843 0.245428 -0.4391)
(1.67901 0.231574 -0.443321)
(1.66013 0.223929 -0.445463)
(1.64015 0.221706 -0.448816)
(1.60047 0.227289 -0.454414)
(1.50259 0.243737 -0.463816)
(1.2312 0.281804 -0.498919)
(0.993669 0.328911 -0.454826)
(3.08432 -1.13032e-05 -0.139616)
(3.11006 3.36822e-05 -0.14991)
(3.12378 3.39369e-05 -0.153072)
(3.13396 0.00015179 -0.152595)
(3.13948 0.000308009 -0.153183)
(3.14019 0.00124841 -0.153843)
(3.13893 0.00232631 -0.154443)
(3.13444 0.00394914 -0.156386)
(3.12124 0.00716532 -0.161505)
(3.08521 0.0146927 -0.174178)
(2.98528 0.034079 -0.20428)
(2.66762 0.0924705 -0.301967)
(1.93739 0.251779 -0.431526)
(1.70017 0.256968 -0.436504)
(1.68006 0.253172 -0.439556)
(1.6595 0.253375 -0.443303)
(1.6202 0.260584 -0.44927)
(1.52492 0.280736 -0.457867)
(1.25956 0.329941 -0.49002)
(1.01518 0.399122 -0.44768)
(3.08432 -9.12571e-06 -0.139601)
(3.11007 3.45295e-05 -0.149923)
(3.1238 1.61532e-05 -0.153053)
(3.134 0.000198413 -0.15259)
(3.13966 0.000215012 -0.153116)
(3.14056 0.00133578 -0.153781)
(3.13939 0.00259157 -0.154342)
(3.13524 0.00437494 -0.15617)
(3.123 0.00773297 -0.160999)
(3.08967 0.0153937 -0.172954)
(2.99783 0.0348669 -0.201029)
(2.70575 0.0938891 -0.292738)
(1.99224 0.244276 -0.425683)
(1.71439 0.280524 -0.43341)
(1.69473 0.28431 -0.433462)
(1.67801 0.288849 -0.435855)
(1.64154 0.298718 -0.442858)
(1.55172 0.324085 -0.451118)
(1.29758 0.388313 -0.481039)
(1.04545 0.488419 -0.438617)
(3.08433 -9.17113e-06 -0.139594)
(3.11007 3.50188e-05 -0.149932)
(3.12383 1.69822e-06 -0.153031)
(3.13403 0.000221995 -0.152584)
(3.13984 0.000184102 -0.153039)
(3.14096 0.00138735 -0.153709)
(3.13991 0.00274293 -0.154233)
(3.13609 0.00464446 -0.155942)
(3.12481 0.00813022 -0.160478)
(3.09417 0.0158902 -0.171647)
(3.01072 0.0352603 -0.198318)
(2.75006 0.0937528 -0.274641)
(2.06655 0.239524 -0.418086)
(1.70768 0.311262 -0.43635)
(1.68643 0.321003 -0.431882)
(1.67517 0.329285 -0.432369)
(1.64772 0.342259 -0.437511)
(1.57475 0.374542 -0.443316)
(1.34334 0.460599 -0.468866)
(1.08504 0.608485 -0.426833)
(3.08433 -1.17978e-05 -0.139585)
(3.11007 3.49784e-05 -0.149945)
(3.12386 -5.97645e-06 -0.153006)
(3.13406 0.000233546 -0.152584)
(3.14003 0.000181502 -0.15296)
(3.14139 0.0014453 -0.153635)
(3.14044 0.00287793 -0.154121)
(3.13697 0.00488435 -0.155709)
(3.12664 0.00851308 -0.159943)
(3.09861 0.0164362 -0.17032)
(3.02284 0.0357821 -0.195347)
(2.79881 0.0902593 -0.26189)
(2.15512 0.237503 -0.402451)
(1.69978 0.360519 -0.436893)
(1.66587 0.378829 -0.431389)
(1.65204 0.392653 -0.431673)
(1.62767 0.411178 -0.436074)
(1.57089 0.453248 -0.438165)
(1.37354 0.564764 -0.456552)
(1.12892 0.780829 -0.408014)
(3.00688 4.65246e-07 -0.0225982)
(3.01713 9.24505e-07 -0.0335905)
(3.02662 1.68452e-06 -0.0382268)
(3.03567 1.6996e-06 -0.0412894)
(3.03941 7.95972e-06 -0.043671)
(3.03951 1.51448e-05 -0.0441389)
(3.03676 2.65918e-05 -0.0450011)
(3.02618 4.9011e-05 -0.0468609)
(2.9958 9.77241e-05 -0.0507697)
(2.91424 0.000210117 -0.0592896)
(2.68555 0.000484247 -0.0791521)
(2.01775 0.0012283 -0.13404)
(1.18989 0.00301509 -0.177682)
(1.06159 0.00385318 -0.158261)
(1.05904 0.00456729 -0.155445)
(1.04917 0.00511679 -0.152562)
(1.02173 0.00518199 -0.153323)
(0.887073 0.00500058 -0.157301)
(0.451646 0.0083603 -0.165615)
(0.700807 -0.000230624 -0.133606)
(3.00688 1.34738e-06 -0.0225983)
(3.01713 2.66473e-06 -0.0335905)
(3.02662 4.76678e-06 -0.0382268)
(3.03567 4.0459e-06 -0.0412893)
(3.03942 2.41434e-05 -0.0436705)
(3.03951 4.6925e-05 -0.0441388)
(3.03677 8.25377e-05 -0.0450004)
(3.0262 0.000151682 -0.0468587)
(2.99585 0.000301686 -0.0507643)
(2.91437 0.000649048 -0.0592768)
(2.68585 0.00150633 -0.0791192)
(2.01833 0.00386299 -0.13396)
(1.18933 0.00989933 -0.177528)
(1.06059 0.0124745 -0.158075)
(1.0563 0.0146288 -0.155247)
(1.04485 0.0161998 -0.152409)
(1.01558 0.0164149 -0.153184)
(0.880521 0.0159898 -0.157121)
(0.446986 0.0250142 -0.164949)
(0.681749 0.00119486 -0.134006)
(3.00688 1.98337e-06 -0.0225984)
(3.01713 3.94095e-06 -0.0335904)
(3.02662 6.91938e-06 -0.0382271)
(3.03568 3.86444e-06 -0.0412892)
(3.03943 4.09191e-05 -0.0436695)
(3.03952 8.29248e-05 -0.0441389)
(3.03679 0.00014675 -0.0449993)
(3.02625 0.000268572 -0.0468549)
(2.99596 0.000531962 -0.0507548)
(2.91463 0.00114454 -0.0592539)
(2.68654 0.00267537 -0.0790603)
(2.01999 0.00695693 -0.133823)
(1.18988 0.018639 -0.177289)
(1.0604 0.0230442 -0.157733)
(1.05437 0.0266775 -0.154864)
(1.04135 0.0292607 -0.152119)
(1.01012 0.0297493 -0.152915)
(0.875176 0.0292942 -0.156803)
(0.444636 0.0435003 -0.163919)
(0.663501 0.00590875 -0.134189)
(3.00688 2.11765e-06 -0.0225985)
(3.01713 4.37953e-06 -0.0335903)
(3.02662 7.78149e-06 -0.0382275)
(3.03568 1.31709e-06 -0.0412889)
(3.03944 5.86545e-05 -0.043668)
(3.03954 0.000124913 -0.0441393)
(3.03683 0.000223545 -0.044998)
(3.02632 0.000407679 -0.0468496)
(2.99613 0.000803007 -0.0507409)
(2.91506 0.0017249 -0.0592203)
(2.68769 0.00404855 -0.0789729)
(2.02299 0.0106327 -0.133612)
(1.19191 0.0291576 -0.176963)
(1.06118 0.0352275 -0.157234)
(1.05337 0.0401777 -0.154306)
(1.03877 0.0436886 -0.151695)
(1.0054 0.0445085 -0.152527)
(0.870938 0.0441256 -0.156372)
(0.443722 0.0628213 -0.162608)
(0.645213 0.0139825 -0.134082)
(3.00688 1.63055e-06 -0.0225986)
(3.01713 3.91117e-06 -0.0335904)
(3.02662 7.64961e-06 -0.0382281)
(3.03569 -2.75981e-06 -0.0412884)
(3.03947 7.81913e-05 -0.0436658)
(3.03957 0.000173741 -0.0441399)
(3.03687 0.000315099 -0.0449963)
(3.02642 0.000574029 -0.0468426)
(2.99638 0.0011243 -0.050722)
(2.91569 0.00240757 -0.0591746)
(2.68939 0.00566105 -0.0788531)
(2.0276 0.0149565 -0.133318)
(1.19566 0.0414507 -0.176548)
(1.06302 0.048962 -0.156594)
(1.05333 0.0550816 -0.153592)
(1.03704 0.0595005 -0.151145)
(1.00134 0.0607862 -0.152016)
(0.867525 0.0606585 -0.155809)
(0.444141 0.0832241 -0.161083)
(0.627595 0.0261328 -0.1337)
(3.00688 5.67152e-07 -0.0225985)
(3.01713 2.70962e-06 -0.0335908)
(3.02662 7.14823e-06 -0.038229)
(3.0357 -7.92629e-06 -0.0412875)
(3.03951 0.00010049 -0.0436628)
(3.03962 0.000230184 -0.0441409)
(3.03694 0.000422295 -0.0449943)
(3.02656 0.00077027 -0.0468335)
(2.99671 0.0015026 -0.0506976)
(2.91654 0.00320637 -0.059115)
(2.69173 0.00753989 -0.0786955)
(2.03413 0.0199832 -0.132939)
(1.20134 0.0555236 -0.176039)
(1.06596 0.0642078 -0.155819)
(1.0543 0.0713047 -0.152741)
(1.03619 0.0765828 -0.150476)
(0.997999 0.0784654 -0.151373)
(0.86498 0.0788508 -0.155097)
(0.445703 0.105074 -0.159418)
(0.612283 0.0422161 -0.133041)
(3.00688 -5.52403e-07 -0.0225982)
(3.01713 1.31804e-06 -0.0335914)
(3.02662 6.63514e-06 -0.0382302)
(3.03572 -1.38787e-05 -0.0412864)
(3.03956 0.000126614 -0.0436587)
(3.03967 0.000295683 -0.044142)
(3.03703 0.000546402 -0.0449918)
(3.02675 0.000997919 -0.0468221)
(2.99714 0.00194176 -0.050667)
(2.91765 0.00413103 -0.05904)
(2.69481 0.0097056 -0.0784958)
(2.04286 0.0257545 -0.132458)
(1.20912 0.0713634 -0.17546)
(1.06998 0.0808765 -0.154898)
(1.05629 0.0887191 -0.151767)
(1.03629 0.0947819 -0.149687)
(0.995476 0.0973932 -0.150598)
(0.863349 0.098632 -0.154236)
(0.448485 0.128885 -0.157593)
(0.598967 0.0620798 -0.13212)
(3.00688 -1.24498e-06 -0.0225975)
(3.01713 3.62794e-07 -0.0335922)
(3.02661 6.45356e-06 -0.038232)
(3.03574 -1.96151e-05 -0.0412851)
(3.03963 0.000157995 -0.0436533)
(3.03974 0.000372143 -0.0441434)
(3.03715 0.000689564 -0.0449886)
(3.02699 0.0012591 -0.046808)
(2.9977 0.00244463 -0.0506293)
(2.91906 0.00518797 -0.058948)
(2.69873 0.0121737 -0.0782499)
(2.05409 0.0322948 -0.131862)
(1.21913 0.0889888 -0.174828)
(1.07501 0.0988726 -0.153833)
(1.05932 0.107205 -0.150672)
(1.0374 0.113977 -0.148791)
(0.993928 0.117457 -0.149718)
(0.862843 0.11983 -0.153243)
(0.452824 0.154977 -0.155569)
(0.587725 0.0857444 -0.130981)
(3.00688 -1.38263e-06 -0.0225966)
(3.01713 3.68085e-07 -0.0335927)
(3.02661 7.42397e-06 -0.0382341)
(3.03577 -2.3676e-05 -0.0412836)
(3.03971 0.000196588 -0.0436465)
(3.03983 0.000462102 -0.0441451)
(3.03729 0.0008547 -0.0449847)
(3.02728 0.00155666 -0.0467909)
(2.99838 0.00301384 -0.0505838)
(2.92081 0.0063815 -0.058837)
(2.70359 0.0149564 -0.0779532)
(2.0681 0.039636 -0.131146)
(1.23146 0.108448 -0.174163)
(1.08098 0.118093 -0.152618)
(1.06338 0.126662 -0.149456)
(1.03964 0.134079 -0.147784)
(0.993588 0.138625 -0.148729)
(0.864084 0.142551 -0.152171)
(0.459977 0.18308 -0.153289)
(0.577508 0.113921 -0.129571)
(3.00688 -1.02723e-06 -0.0225956)
(3.01713 1.649e-06 -0.0335933)
(3.02661 1.09857e-05 -0.0382362)
(3.0358 -2.25456e-05 -0.0412814)
(3.03981 0.000245337 -0.043638)
(3.03994 0.000567921 -0.044147)
(3.03746 0.00104331 -0.0449801)
(3.02764 0.00189091 -0.0467707)
(2.99921 0.00364872 -0.0505299)
(2.92293 0.0077122 -0.0587055)
(2.70952 0.0180637 -0.077601)
(2.08521 0.0478239 -0.130298)
(1.24621 0.129798 -0.173495)
(1.08751 0.138449 -0.151229)
(1.06876 0.146905 -0.148127)
(1.04334 0.154981 -0.146665)
(0.994832 0.160946 -0.147639)
(0.867274 0.167151 -0.150972)
(0.469953 0.212884 -0.150887)
(0.569777 0.146491 -0.127998)
(3.00688 5.24172e-08 -0.0225944)
(3.01713 4.83027e-06 -0.0335941)
(3.0266 1.89585e-05 -0.0382381)
(3.03584 -8.86654e-06 -0.0412785)
(3.03993 0.000307177 -0.0436274)
(3.04007 0.000688864 -0.0441488)
(3.03767 0.00125132 -0.0449745)
(3.02807 0.00225483 -0.046747)
(3.00021 0.00434049 -0.050467)
(2.92548 0.00917268 -0.0585518)
(2.71665 0.0214947 -0.0771874)
(2.10577 0.056877 -0.129293)
(1.26345 0.153118 -0.172914)
(1.09369 0.160032 -0.14967)
(1.07446 0.16791 -0.146733)
(1.048 0.176636 -0.145453)
(0.99765 0.184407 -0.146434)
(0.872492 0.193665 -0.149608)
(0.482686 0.244384 -0.148349)
(0.563402 0.183318 -0.126219)
(3.00689 2.62312e-06 -0.0225927)
(3.01714 1.14425e-05 -0.0335953)
(3.0266 3.48466e-05 -0.0382385)
(3.03589 3.09795e-05 -0.0412742)
(3.04007 0.000380855 -0.0436156)
(3.04023 0.000812071 -0.0441515)
(3.03792 0.00145933 -0.0449686)
(3.02857 0.00262833 -0.0467201)
(3.00139 0.00507366 -0.0503945)
(2.9285 0.0107547 -0.0583739)
(2.7251 0.0252444 -0.0767105)
(2.13014 0.0667519 -0.128098)
(1.28334 0.178472 -0.172442)
(1.10063 0.182757 -0.147978)
(1.08102 0.189639 -0.145261)
(1.05416 0.198941 -0.144118)
(1.0025 0.208924 -0.145111)
(0.880222 0.221946 -0.148063)
(0.502585 0.275925 -0.145725)
(0.557983 0.226587 -0.124206)
(3.00689 6.784e-06 -0.0225906)
(3.01714 2.19592e-05 -0.0335973)
(3.02661 5.9748e-05 -0.0382342)
(3.03594 9.7432e-05 -0.0412642)
(3.04022 0.000467516 -0.0436076)
(3.0404 0.000931676 -0.0441585)
(3.0382 0.00165215 -0.0449639)
(3.02915 0.00299047 -0.04669)
(3.00277 0.00582788 -0.0503115)
(2.93203 0.0124425 -0.0581703)
(2.73496 0.0292939 -0.0761688)
(2.15865 0.077369 -0.12673)
(1.30612 0.205816 -0.172076)
(1.10871 0.206421 -0.146139)
(1.08898 0.212102 -0.143726)
(1.06202 0.222061 -0.142657)
(1.00958 0.234701 -0.143663)
(0.890166 0.252197 -0.14636)
(0.525365 0.308922 -0.143066)
(0.557024 0.276131 -0.121988)
(3.0069 1.08274e-05 -0.022588)
(3.01715 3.24272e-05 -0.0336001)
(3.02662 8.35589e-05 -0.0382252)
(3.03601 0.000157906 -0.0412511)
(3.04038 0.000560367 -0.0436028)
(3.04058 0.00106424 -0.0441693)
(3.03851 0.00185975 -0.0449602)
(3.02982 0.00336906 -0.0466562)
(3.00435 0.00661166 -0.0502169)
(2.9361 0.014207 -0.0579397)
(2.74634 0.0335463 -0.0755581)
(2.19165 0.0884676 -0.125192)
(1.33212 0.234734 -0.171869)
(1.11838 0.230884 -0.144117)
(1.09878 0.235488 -0.142117)
(1.07188 0.24641 -0.141061)
(1.01931 0.262147 -0.142137)
(0.902389 0.284995 -0.144493)
(0.549532 0.346118 -0.140503)
(0.560456 0.331143 -0.119555)
(3.00691 1.33096e-05 -0.0225848)
(3.01717 3.9415e-05 -0.0336036)
(3.02665 9.90656e-05 -0.0382143)
(3.0361 0.000198702 -0.0412371)
(3.04056 0.000646622 -0.0435974)
(3.04078 0.00120685 -0.0441817)
(3.03885 0.00209327 -0.0449564)
(3.03057 0.00378413 -0.0466187)
(3.00616 0.00743391 -0.0501106)
(2.94074 0.0160007 -0.0576799)
(2.75927 0.0377973 -0.0748709)
(2.22942 0.0994448 -0.123473)
(1.362 0.26405 -0.171828)
(1.1305 0.256307 -0.141928)
(1.11107 0.260316 -0.140422)
(1.0842 0.272643 -0.139325)
(1.032 0.291641 -0.140512)
(0.91755 0.320606 -0.142507)
(0.576084 0.388662 -0.137723)
(0.567961 0.39268 -0.116866)
(3.00692 1.42693e-05 -0.0225811)
(3.01718 4.29634e-05 -0.0336077)
(3.02668 0.000106432 -0.0382014)
(3.03619 0.000237286 -0.0412227)
(3.04076 0.000706675 -0.0435903)
(3.04101 0.0013436 -0.0441949)
(3.03923 0.0023327 -0.0449521)
(3.03141 0.00421173 -0.046577)
(3.00817 0.00825254 -0.0499922)
(2.94591 0.0177044 -0.0573894)
(2.77371 0.0416811 -0.0741025)
(2.27205 0.109205 -0.121514)
(1.39699 0.291434 -0.171961)
(1.14656 0.28334 -0.139589)
(1.12603 0.287723 -0.138571)
(1.09928 0.301992 -0.137427)
(1.0475 0.323561 -0.138751)
(0.935865 0.359093 -0.140295)
(0.606084 0.436799 -0.134994)
(0.579279 0.463252 -0.113679)
(3.00694 1.41845e-05 -0.022577)
(3.01719 4.28398e-05 -0.0336123)
(3.02671 0.000102675 -0.0381861)
(3.03629 0.000283557 -0.0412111)
(3.04098 0.000641843 -0.0435753)
(3.04126 0.00151423 -0.0442136)
(3.03966 0.00268316 -0.0449493)
(3.03232 0.00473628 -0.0465314)
(3.01036 0.00906004 -0.0498593)
(2.95152 0.0191371 -0.0570613)
(2.7894 0.0446281 -0.0732347)
(2.31909 0.116021 -0.119265)
(1.43953 0.31204 -0.171987)
(1.16812 0.311922 -0.137422)
(1.14358 0.318213 -0.136668)
(1.11693 0.335039 -0.135419)
(1.06517 0.35905 -0.136952)
(0.955952 0.401848 -0.137966)
(0.641035 0.491579 -0.131872)
(0.595209 0.546878 -0.110394)
(3.00695 1.49485e-05 -0.0225735)
(3.01721 4.21269e-05 -0.033616)
(3.02675 9.31497e-05 -0.0381688)
(3.03636 0.000323823 -0.041208)
(3.04121 0.000541394 -0.0435342)
(3.04165 0.0016571 -0.0442572)
(3.04017 0.00302184 -0.0449534)
(3.03331 0.00524848 -0.0464768)
(3.01267 0.00979851 -0.0496986)
(2.95742 0.02029 -0.0566696)
(2.80596 0.0466394 -0.072217)
(2.36864 0.119587 -0.116374)
(1.49206 0.325399 -0.170302)
(1.19641 0.340728 -0.135925)
(1.16532 0.352386 -0.134718)
(1.13784 0.371414 -0.133356)
(1.08487 0.398602 -0.134859)
(0.97681 0.450515 -0.135335)
(0.680956 0.555417 -0.12884)
(0.616112 0.649137 -0.106365)
(3.00696 1.52005e-05 -0.0225693)
(3.01722 4.13578e-05 -0.0336218)
(3.02681 8.57959e-05 -0.0381478)
(3.03643 0.000346789 -0.0412115)
(3.04145 0.000527507 -0.0434816)
(3.04208 0.00172406 -0.0443085)
(3.04075 0.00319543 -0.0449605)
(3.03437 0.00557166 -0.0464183)
(3.01508 0.0103451 -0.0495226)
(2.9635 0.0212007 -0.0562372)
(2.82254 0.0482113 -0.0711586)
(2.41999 0.122131 -0.113454)
(1.55721 0.334941 -0.167159)
(1.23434 0.369455 -0.13521)
(1.18927 0.388922 -0.1332)
(1.15993 0.409278 -0.131641)
(1.10435 0.441519 -0.132862)
(0.998526 0.505725 -0.132588)
(0.726632 0.631261 -0.125716)
(0.641558 0.778942 -0.102525)
(3.00697 1.37343e-05 -0.0225642)
(3.01723 3.9236e-05 -0.0336284)
(3.02686 8.15912e-05 -0.0381246)
(3.0365 0.000360223 -0.041217)
(3.04169 0.000535186 -0.0434248)
(3.04253 0.00178347 -0.0443624)
(3.04136 0.00332256 -0.0449676)
(3.03549 0.00580454 -0.0463548)
(3.01758 0.0107628 -0.0493276)
(2.96974 0.0219554 -0.0557504)
(2.83957 0.0495722 -0.069917)
(2.47309 0.124973 -0.110314)
(1.63438 0.336675 -0.16276)
(1.28108 0.404585 -0.134945)
(1.21527 0.429114 -0.131567)
(1.17952 0.449315 -0.130079)
(1.12413 0.486747 -0.13085)
(1.02647 0.564835 -0.129753)
(0.785619 0.71622 -0.123028)
(0.671575 0.948301 -0.0982449)
(2.97867 3.01948e-07 0.000334455)
(2.97459 7.62481e-07 -0.00396175)
(2.97676 1.62764e-06 -0.00724661)
(2.97934 2.68766e-06 -0.0103648)
(2.98044 8.50855e-06 -0.0126032)
(2.97997 1.47185e-05 -0.0132621)
(2.97514 2.57993e-05 -0.0142823)
(2.96003 4.98489e-05 -0.015938)
(2.92032 0.000104139 -0.0188944)
(2.81752 0.000230554 -0.0247576)
(2.52945 0.000541466 -0.0379547)
(1.6683 0.00140988 -0.0743646)
(0.742946 0.00357476 -0.104525)
(0.66899 0.0055393 -0.0817668)
(0.695984 0.00795445 -0.0756553)
(0.736272 0.00905437 -0.0707771)
(0.712354 0.00933689 -0.070584)
(0.528782 0.00892563 -0.0706518)
(0.18946 0.0146526 -0.0652317)
(0.565277 0.00194399 -0.0467587)
(2.97868 8.31476e-07 0.000334397)
(2.97459 2.25818e-06 -0.00396177)
(2.97676 4.1482e-06 -0.00724662)
(2.97934 6.50476e-06 -0.0103647)
(2.98044 2.55233e-05 -0.0126038)
(2.97997 4.54572e-05 -0.0132625)
(2.97515 7.9595e-05 -0.0142824)
(2.96005 0.000152841 -0.0159378)
(2.92038 0.000318118 -0.0188935)
(2.81766 0.000704181 -0.0247554)
(2.52982 0.0016631 -0.0379467)
(1.66906 0.00436752 -0.0743381)
(0.74262 0.0116499 -0.104459)
(0.666231 0.0176065 -0.0816321)
(0.691335 0.0242987 -0.0754501)
(0.729333 0.0271019 -0.0706578)
(0.702338 0.0277268 -0.0705204)
(0.516276 0.0264102 -0.0706334)
(0.174021 0.0417689 -0.0648716)
(0.545829 0.00787839 -0.0467928)
(2.97868 1.14687e-06 0.000334292)
(2.97459 3.4695e-06 -0.00396179)
(2.97676 4.87787e-06 -0.00724666)
(2.97935 6.52404e-06 -0.0103645)
(2.98045 4.24295e-05 -0.0126053)
(2.97998 8.02369e-05 -0.0132635)
(2.97518 0.000141062 -0.0142829)
(2.9601 0.000268164 -0.0159377)
(2.9205 0.000554399 -0.0188924)
(2.81795 0.00122599 -0.0247521)
(2.53061 0.00291195 -0.0379351)
(1.67098 0.00773604 -0.0743037)
(0.74366 0.0217619 -0.104363)
(0.664649 0.031883 -0.0813786)
(0.687633 0.0425452 -0.0750846)
(0.722672 0.0471615 -0.0704306)
(0.692148 0.0486545 -0.0703671)
(0.504828 0.046927 -0.0705706)
(0.16196 0.0714412 -0.0642153)
(0.524124 0.017872 -0.0465682)
(2.97868 1.20447e-06 0.000334189)
(2.97459 3.87443e-06 -0.00396179)
(2.97676 3.85104e-06 -0.00724675)
(2.97936 2.82283e-06 -0.0103641)
(2.98046 5.90824e-05 -0.0126077)
(2.98 0.000120657 -0.0132651)
(2.97521 0.000215184 -0.0142839)
(2.96018 0.000405228 -0.0159377)
(2.92069 0.000829834 -0.0188909)
(2.81842 0.00182961 -0.0247481)
(2.53188 0.00435871 -0.0379201)
(1.67441 0.0116776 -0.0742572)
(0.746547 0.0337223 -0.10424)
(0.664353 0.0476762 -0.0810147)
(0.684985 0.0617367 -0.0746005)
(0.716495 0.0681054 -0.0701154)
(0.682074 0.0707241 -0.0701315)
(0.494341 0.0691893 -0.0704568)
(0.152536 0.101174 -0.063369)
(0.500608 0.031771 -0.0461002)
(2.97868 1.08606e-06 0.000334153)
(2.97459 3.22292e-06 -0.00396184)
(2.97676 1.63032e-06 -0.00724692)
(2.97937 -3.16988e-06 -0.0103637)
(2.98049 7.61539e-05 -0.0126111)
(2.98003 0.0001668 -0.0132676)
(2.97526 0.0003039 -0.0142853)
(2.96029 0.000570047 -0.0159379)
(2.92095 0.00115585 -0.0188893)
(2.81909 0.00253517 -0.0247431)
(2.53373 0.00604427 -0.0379011)
(1.67963 0.016277 -0.0741964)
(0.751505 0.0474327 -0.104105)
(0.66528 0.0648749 -0.0805464)
(0.683376 0.0819288 -0.0740178)
(0.710892 0.0900185 -0.069722)
(0.672353 0.0939495 -0.0698117)
(0.484608 0.0932984 -0.0702476)
(0.145307 0.131144 -0.0623921)
(0.476222 0.0501628 -0.0454083)
(2.97868 8.68872e-07 0.000334229)
(2.97459 1.82344e-06 -0.00396198)
(2.97675 -1.35895e-06 -0.0072472)
(2.97938 -1.03994e-05 -0.0103631)
(2.98052 9.5257e-05 -0.0126157)
(2.98007 0.000219139 -0.0132708)
(2.97534 0.000407097 -0.0142874)
(2.96045 0.000764849 -0.0159384)
(2.92132 0.0015402 -0.0188875)
(2.82 0.00335844 -0.0247373)
(2.53626 0.00799744 -0.0378776)
(1.68694 0.0215831 -0.0741222)
(0.758704 0.0628433 -0.103973)
(0.667351 0.0834193 -0.0799776)
(0.682778 0.103075 -0.0733472)
(0.705947 0.112848 -0.0692542)
(0.663218 0.11827 -0.0694034)
(0.475827 0.119128 -0.0699254)
(0.139897 0.16192 -0.0613094)
(0.453393 0.0727828 -0.0444974)
(2.97868 6.54626e-07 0.000334399)
(2.97459 5.72489e-07 -0.00396217)
(2.97675 -4.71255e-06 -0.00724767)
(2.9794 -1.85287e-05 -0.0103623)
(2.98056 0.000118371 -0.0126216)
(2.98013 0.000280033 -0.013275)
(2.97544 0.000525806 -0.0142901)
(2.96065 0.000989761 -0.0159393)
(2.92179 0.00198547 -0.0188858)
(2.82118 0.00430896 -0.0247311)
(2.53958 0.0102385 -0.03785)
(1.69663 0.0276261 -0.074037)
(0.76824 0.0798966 -0.103868)
(0.670446 0.103192 -0.0793011)
(0.683145 0.125043 -0.0726041)
(0.701742 0.136485 -0.0687252)
(0.654849 0.143553 -0.0689165)
(0.468191 0.146415 -0.0694982)
(0.136077 0.194203 -0.0601509)
(0.432448 0.0995208 -0.043407)
(2.97868 5.18763e-07 0.000334565)
(2.97459 4.62273e-07 -0.00396238)
(2.97675 -7.4558e-06 -0.00724826)
(2.97942 -2.64559e-05 -0.0103616)
(2.98062 0.00014691 -0.0126289)