/*--------------------------------*- C++ -*----------------------------------*\
  =========                 |
  \\      /  F ield         | OpenFOAM: The Open Source CFD Toolbox
   \\    /   O peration     | Website:  https://openfoam.org
    \\  /    A nd           | Version:  6.0
     \\/     M anipulation  |
\*---------------------------------------------------------------------------*/
FoamFile
{
    version     2.0;
    format      ascii;
    class       volScalarField;
    location    "4";
    object      p;
}
// * * * * * * * * * * * * * * * * * * * * * * * * * * * * * * * * * * * * * //

dimensions      [1 -1 -2 0 0 0 0];

internalField   nonuniform List<scalar> 
4800
(
1
1
1
1
1
1
1
1
1
1
1.00001
1.00001
1.00002
1.00005
1.0001
1.00021
1.00043
1.00088
1.0018
1.00369
1.00759
1.01559
1.03209
1.06624
1.13759
1.2895
1.62652
2.44172
4.86392
19.7258
18.858
17.2067
15.8757
14.9215
14.2866
13.9188
13.8636
13.7901
13.9165
14.051
1
1
1
1
1
1
1
1
1
1
1.00001
1.00001
1.00002
1.00005
1.0001
1.00021
1.00043
1.00088
1.0018
1.00369
1.00759
1.01559
1.03209
1.06625
1.1376
1.28951
1.62655
2.44183
4.86463
19.7225
18.8536
17.2026
15.8708
14.9163
14.2795
13.9101
13.832
13.7836
13.9191
14.0345
1
1
1
1
1
1
1
1
1
1
1.00001
1.00001
1.00002
1.00005
1.0001
1.00021
1.00043
1.00088
1.0018
1.00369
1.00759
1.01559
1.03209
1.06625
1.13761
1.28954
1.62661
2.44203
4.86604
19.715
18.8441
17.1933
15.8594
14.9037
14.2619
13.8897
13.7925
13.7964
13.9159
14.0787
1
1
1
1
1
1
1
1
1
1
1.00001
1.00001
1.00002
1.00005
1.0001
1.00021
1.00043
1.00088
1.0018
1.00369
1.00759
1.0156
1.0321
1.06626
1.13763
1.28958
1.6267
2.44231
4.86814
19.703
18.8299
17.1787
15.8415
14.8834
14.2352
13.8608
13.7729
13.794
13.9169
14.1067
1
1
1
1
1
1
1
1
1
1
1.00001
1.00001
1.00002
1.00005
1.0001
1.00021
1.00043
1.00088
1.0018
1.0037
1.00759
1.0156
1.0321
1.06627
1.13765
1.28963
1.62681
2.44267
4.8709
19.6863
18.8112
17.1587
15.8176
14.8566
14.2027
13.8265
13.753
13.7826
13.9246
14.1107
1
1
1
1
1
1
1
1
1
1
1.00001
1.00001
1.00002
1.00005
1.0001
1.00021
1.00043
1.00088
1.0018
1.0037
1.00759
1.0156
1.03211
1.06628
1.13767
1.28968
1.62694
2.4431
4.8743
19.6644
18.7877
17.1333
15.7876
14.8232
14.1645
13.7865
13.7258
13.754
13.9157
14.1077
1
1
1
1
1
1
1
1
1
1
1.00001
1.00001
1.00002
1.00005
1.0001
1.00021
1.00043
1.00088
1.0018
1.0037
1.00759
1.0156
1.03212
1.0663
1.1377
1.28975
1.62708
2.4436
4.87831
19.6372
18.7594
17.1023
15.7514
14.7835
14.1206
13.7415
13.6938
13.7168
13.8578
14.053
1
1
1
1
1
1
1
1
1
1
1.00001
1.00001
1.00002
1.00005
1.0001
1.00021
1.00043
1.00088
1.0018
1.0037
1.00759
1.01561
1.03212
1.06631
1.13774
1.28982
1.62725
2.44417
4.88293
19.6044
18.7259
17.0659
15.7092
14.7378
14.0713
13.6928
13.6602
13.6817
13.7902
14.0802
1
1
1
1
1
1
1
1
1
1
1.00001
1.00001
1.00002
1.00005
1.0001
1.00021
1.00043
1.00088
1.0018
1.0037
1.0076
1.01561
1.03213
1.06633
1.13778
1.2899
1.62743
2.44479
4.88812
19.5659
18.6874
17.0236
15.661
14.6864
14.0167
13.6416
13.6259
13.6512
13.7565
14.0998
1
1
1
1
1
1
1
1
1
1
1.00001
1.00001
1.00002
1.00005
1.0001
1.00021
1.00043
1.00088
1.0018
1.0037
1.0076
1.01562
1.03214
1.06635
1.13782
1.28999
1.62762
2.44548
4.89386
19.5213
18.6433
16.9755
15.6069
14.6293
13.9576
13.589
13.5888
13.6216
13.7343
14.0952
1
1
1
1
1
1
1
1
1
1
1.00001
1.00001
1.00002
1.00005
1.0001
1.00021
1.00043
1.00088
1.0018
1.0037
1.0076
1.01562
1.03215
1.06637
1.13786
1.29008
1.62783
2.44622
4.90012
19.4705
18.5936
16.9211
15.547
14.5667
13.8942
13.5373
13.5435
13.592
13.7117
14.0766
1
1
1
1
1
1
1
1
1
1
1.00001
1.00001
1.00002
1.00005
1.0001
1.00021
1.00043
1.00088
1.0018
1.0037
1.0076
1.01563
1.03216
1.06639
1.13791
1.29018
1.62806
2.44701
4.90688
19.4133
18.5383
16.8604
15.4816
14.4983
13.8257
13.4837
13.4954
13.5616
13.6829
14.0318
1
1
1
1
1
1
1
1
1
1
1.00001
1.00001
1.00002
1.00005
1.0001
1.00021
1.00043
1.00088
1.0018
1.0037
1.00761
1.01563
1.03217
1.06642
1.13796
1.29029
1.6283
2.44785
4.91407
19.3494
18.4769
16.7932
15.4106
14.4249
13.7523
13.427
13.4444
13.5295
13.6472
13.9562
1
1
1
1
1
1
1
1
1
1
1.00001
1.00001
1.00002
1.00005
1.0001
1.00021
1.00043
1.00088
1.0018
1.00371
1.00761
1.01564
1.03219
1.06644
1.13801
1.2904
1.62854
2.44873
4.92164
19.2785
18.4092
16.7189
15.3358
14.3437
13.6757
13.3671
13.3897
13.489
13.6104
13.8772
1
1
1
1
1
1
1
1
1
1
1.00001
1.00001
1.00002
1.00005
1.0001
1.00021
1.00043
1.00088
1.00181
1.00371
1.00761
1.01564
1.0322
1.06647
1.13806
1.29051
1.6288
2.44965
4.92952
19.2001
18.3359
16.636
15.2577
14.2552
13.5949
13.3035
13.33
13.4368
13.5871
13.7854
1
1
1
1
1
1
1
1
1
1
1.00001
1.00001
1.00002
1.00005
1.0001
1.00021
1.00043
1.00088
1.00181
1.00371
1.00762
1.01565
1.03221
1.06649
1.13811
1.29063
1.62906
2.45059
4.93767
19.114
18.2558
16.5469
15.1723
14.1645
13.5077
13.2373
13.2676
13.3786
13.5632
13.6888
1
1
1
1
1
1
1
1
1
1
1.00001
1.00001
1.00002
1.00005
1.0001
1.00021
1.00043
1.00088
1.00181
1.00371
1.00762
1.01566
1.03222
1.06652
1.13817
1.29075
1.62932
2.45156
4.94606
19.0203
18.1673
16.4529
15.0795
14.07
13.4162
13.1677
13.2016
13.3169
13.5314
13.5975
1
1
1
1
1
1
1
1
1
1
1.00001
1.00001
1.00002
1.00005
1.0001
1.00021
1.00043
1.00088
1.00181
1.00371
1.00762
1.01566
1.03224
1.06654
1.13822
1.29086
1.62958
2.45254
4.95458
18.9185
18.0699
16.3542
14.98
13.9694
13.3207
13.097
13.1345
13.2537
13.4895
13.5095
1
1
1
1
1
1
1
1
1
1
1.00001
1.00001
1.00002
1.00005
1.0001
1.00021
1.00043
1.00088
1.00181
1.00371
1.00762
1.01567
1.03225
1.06657
1.13827
1.29098
1.62984
2.4535
4.96311
18.8079
17.9645
16.2493
14.8734
13.8644
13.2203
13.023
13.0642
13.1867
13.436
13.421
1
1
1
1
1
1
1
1
1
1
1.00001
1.00001
1.00002
1.00005
1.0001
1.00021
1.00043
1.00088
1.00181
1.00371
1.00763
1.01567
1.03226
1.06659
1.13832
1.29109
1.63008
2.45444
4.97148
18.6885
17.8505
16.1378
14.7607
13.7535
13.1166
12.9479
12.9922
13.1157
13.3738
13.3296
1
1
1
1
1
1
1
1
1
1
1.00001
1.00001
1.00002
1.00005
1.0001
1.00021
1.00043
1.00088
1.00181
1.00371
1.00763
1.01568
1.03227
1.06661
1.13837
1.29118
1.63029
2.45531
4.97954
18.5599
17.7281
16.0193
14.6415
13.6377
13.0078
12.869
12.9163
13.0397
13.3034
13.2331
1
1
1
1
1
1
1
1
1
1
1.00001
1.00001
1.00002
1.00005
1.0001
1.00021
1.00043
1.00088
1.00181
1.00372
1.00763
1.01568
1.03228
1.06663
1.1384
1.29126
1.63047
2.45609
4.98711
18.4218
17.5971
15.8935
14.5162
13.5168
12.8969
12.789
12.8384
12.9603
13.225
13.1312
1
1
1
1
1
1
1
1
1
1
1.00001
1.00001
1.00002
1.00005
1.0001
1.00021
1.00043
1.00088
1.00181
1.00372
1.00763
1.01568
1.03228
1.06664
1.13843
1.29132
1.6306
2.45673
4.99396
18.2739
17.4569
15.7608
14.3841
13.3912
12.7818
12.7052
12.756
12.8753
13.1358
13.0229
1
1
1
1
1
1
1
1
1
1
1.00001
1.00001
1.00002
1.00005
1.0001
1.00021
1.00043
1.00088
1.00181
1.00372
1.00763
1.01569
1.03228
1.06665
1.13844
1.29134
1.63065
2.45718
4.99985
18.1157
17.3076
15.6204
14.2461
13.2613
12.6665
12.6204
12.6717
12.7857
13.0349
12.9075
1
1
1
1
1
1
1
1
1
1
1.00001
1.00001
1.00002
1.00005
1.0001
1.00021
1.00043
1.00088
1.00181
1.00372
1.00763
1.01568
1.03228
1.06664
1.13843
1.29132
1.63061
2.45738
5.0045
17.9471
17.1488
15.4731
14.1008
13.1273
12.5499
12.5312
12.5837
12.6903
12.9212
12.7845
1
1
1
1
1
1
1
1
1
1
1.00001
1.00001
1.00002
1.00005
1.0001
1.00021
1.00043
1.00088
1.00181
1.00371
1.00763
1.01568
1.03227
1.06663
1.1384
1.29125
1.63044
2.45725
5.00755
17.7676
16.9805
15.3183
13.9499
12.9898
12.437
12.4382
12.4961
12.5884
12.7919
12.6524
1
1
1
1
1
1
1
1
1
1
1.00001
1.00001
1.00002
1.00005
1.0001
1.00021
1.00043
1.00088
1.00181
1.00371
1.00763
1.01567
1.03226
1.06659
1.13833
1.29111
1.63012
2.45672
5.00864
17.577
16.8015
15.1577
13.7893
12.8502
12.3257
12.3343
12.4065
12.479
12.6476
12.512
1
1
1
1
1
1
1
1
1
1
1.00001
1.00001
1.00002
1.00005
1.0001
1.00021
1.00043
1.00088
1.00181
1.00371
1.00762
1.01566
1.03223
1.06654
1.13822
1.29088
1.6296
2.45566
5.0073
17.3749
16.613
14.9909
13.6216
12.708
12.2139
12.2276
12.3117
12.3625
12.4914
12.3646
1
1
1
1
1
1
1
1
1
1
1.00001
1.00001
1.00002
1.00005
1.0001
1.00021
1.00043
1.00088
1.0018
1.00371
1.00761
1.01564
1.03219
1.06646
1.13805
1.29053
1.62882
2.45392
5.00299
17.1607
16.4124
14.8151
13.452
12.5592
12.0973
12.1156
12.2083
12.2374
12.3246
12.2112
1
1
1
1
1
1
1
1
1
1
1.00001
1.00001
1.00002
1.00005
1.0001
1.00021
1.00043
1.00088
1.0018
1.0037
1.0076
1.01561
1.03214
1.06635
1.13782
1.29002
1.62768
2.45125
4.99485
16.935
16.2026
14.6308
13.2791
12.4089
11.9777
11.9986
12.0937
12.104
12.1541
12.0495
1
1
1
1
1
1
1
1
1
1
1.00001
1.00001
1.00002
1.00005
1.0001
1.00021
1.00043
1.00088
1.0018
1.00369
1.00758
1.01558
1.03206
1.06619
1.13749
1.28932
1.62612
2.44744
4.98203
16.6967
15.9815
14.4388
13.102
12.2555
11.853
11.8748
11.9651
11.9611
11.9761
11.8749
1
1
1
1
1
1
1
1
1
1
1.00001
1.00001
1.00002
1.00005
1.0001
1.00021
1.00043
1.00087
1.00179
1.00368
1.00755
1.01553
1.03196
1.06597
1.13704
1.28837
1.62398
2.44213
4.96316
16.4435
15.7485
14.2381
12.9241
12.1039
11.7265
11.7465
11.8232
11.8126
11.7965
11.6754
1
1
1
1
1
1
1
1
1
1
1.00001
1.00001
1.00002
1.00005
1.0001
1.00021
1.00042
1.00087
1.00178
1.00366
1.00752
1.01546
1.03182
1.06569
1.13645
1.28712
1.6212
2.43519
4.93777
16.1859
15.5031
14.0277
12.7444
11.954
11.5979
11.6146
11.6721
11.6525
11.6045
11.4429
1
1
1
1
1
1
1
1
1
1
1.00001
1.00001
1.00002
1.00005
1.0001
1.0002
1.00042
1.00086
1.00177
1.00364
1.00747
1.01536
1.03163
1.0653
1.13565
1.28541
1.6174
2.42562
4.90243
15.9141
15.2515
13.8157
12.5697
11.8107
11.4718
11.4827
11.5128
11.4786
11.3918
11.1719
1
1
1
1
1
1
1
1
1
1
1.00001
1.00001
1.00002
1.00005
1.0001
1.0002
1.00042
1.00086
1.00176
1.00361
1.00741
1.01524
1.03137
1.06476
1.13453
1.28304
1.61211
2.41229
4.8544
15.6319
14.9936
13.6041
12.3981
11.6747
11.3499
11.3524
11.3463
11.2814
11.1436
10.8555
1
1
1
1
1
1
1
1
1
1
1.00001
1.00001
1.00002
1.00005
1.0001
1.0002
1.00041
1.00085
1.00174
1.00356
1.00732
1.01506
1.031
1.06402
1.13298
1.27976
1.60482
2.39391
4.79027
15.3435
14.7322
13.3927
12.238
11.5495
11.2401
11.2233
11.1777
11.0378
10.8571
10.4934
1
1
1
1
1
1
1
1
1
1
1.00001
1.00001
1.00002
1.00005
1.0001
1.0002
1.0004
1.00083
1.00171
1.00351
1.00721
1.01482
1.03051
1.063
1.13086
1.27526
1.59481
2.36879
4.70491
15.0533
14.4708
13.1824
12.0888
11.4357
11.1404
11.0936
10.9932
10.7499
10.5258
10.0667
1
1
1
1
1
1
1
1
1
1
1.00001
1.00001
1.00002
1.00005
1.00009
1.00019
1.0004
1.00081
1.00167
1.00343
1.00704
1.01448
1.02983
1.06161
1.12798
1.26912
1.58119
2.33483
4.59246
14.7725
14.217
12.9823
11.9544
11.3356
11.0453
10.9536
10.7911
10.4339
10.1458
9.54812
1
1
1
1
1
1
1
1
1
1
1.00001
1.00001
1.00002
1.00004
1.00009
1.00019
1.00038
1.00079
1.00161
1.00332
1.00682
1.01403
1.0289
1.05969
1.12399
1.26064
1.56232
2.28761
4.43496
14.503
13.9734
12.7915
11.8381
11.2504
10.9517
10.7949
10.5717
10.0975
9.70909
8.90261
1
1
1
1
1
1
1
1
1
1
1
1.00001
1.00002
1.00004
1.00009
1.00018
1.00037
1.00075
1.00155
1.00318
1.00653
1.01344
1.02769
1.05719
1.1188
1.24965
1.53805
2.22823
4.24662
14.2945
13.7625
12.616
11.7432
11.1777
10.8549
10.6193
10.3251
9.72126
9.15843
8.02823
1
1
1
1
1
1
1
1
1
1
1
1.00001
1.00002
1.00004
1.00007
1.00015
1.00031
1.00063
1.0013
1.00267
1.00548
1.01126
1.02316
1.04773
1.09878
1.20634
1.43968
1.97442
3.42189
13.4355
13.0796
12.3764
11.7028
11.0894
10.6406
10.2288
9.79663
8.98755
7.95824
5.76858
1
1
1
1
1
1
1
1
1
1
1
1.00001
1.00001
1.00003
1.00006
1.00011
1.00023
1.00048
1.00098
1.00201
1.00413
1.00849
1.01745
1.03593
1.07422
1.15439
1.32586
1.70944
2.69377
5.3095
12.8426
12.5065
11.7283
10.9925
10.3522
9.75768
9.14532
8.23148
7.26584
5.32215
1
1
1
1
1
1
1
1
1
1
1
1
1.00001
1.00002
1.00003
1.00007
1.00015
1.0003
1.00061
1.00126
1.00257
1.00528
1.01082
1.02221
1.04569
1.09439
1.19668
1.41713
1.93742
3.29423
12.6946
12.4454
11.7854
11.0075
10.1811
9.40282
8.6551
7.71995
6.72851
5.37996
1
1
1
1
1
1
1
1
1
1
1
1
1.00001
1.00001
1.00003
1.00005
1.00011
1.00023
1.00047
1.00097
1.00198
1.00407
1.00836
1.01719
1.03538
1.07308
1.15197
1.32059
1.69977
2.65312
5.14729
12.2154
11.9019
11.1182
10.1866
9.28141
8.41873
7.55694
6.73437
5.55044
1
1
1
1
1
1
1
1
1
1
1
1
1
1.00001
1.00002
1.00003
1.00007
1.00014
1.00029
1.0006
1.00123
1.00251
1.00515
1.01056
1.02168
1.0446
1.0921
1.19182
1.40664
1.90641
3.22622
12.0088
11.7937
11.1836
10.2309
9.28939
8.41903
7.5592
6.75747
5.83781
1
1
1
1
1
1
1
1
1
1
1
1
1
1.00001
1.00001
1.00003
1.00005
1.00011
1.00022
1.00046
1.00094
1.00192
1.00395
1.00811
1.01667
1.03431
1.07085
1.14727
1.3104
1.67542
2.59099
4.96017
11.4192
11.142
10.4156
9.32665
8.42955
7.56564
6.77337
5.83792
1
1
1
1
1
1
1
1
1
1
1
1
1
1
1.00001
1.00002
1.00003
1.00007
1.00014
1.00028
1.00058
1.00119
1.00244
1.005
1.01026
1.02107
1.04333
1.08947
1.18628
1.39454
1.8769
3.14678
11.1058
10.9429
10.4019
9.42377
8.47444
7.58479
6.78089
5.84111
1
1
1
1
1
1
1
1
1
1
1
1
1
1
1.00001
1.00001
1.00002
1.00005
1.0001
1.00021
1.00043
1.00089
1.00182
1.00374
1.00769
1.01579
1.0325
1.06709
1.13937
1.29334
1.63611
2.48893
4.66517
10.4221
10.2514
9.69392
8.59962
7.63491
6.79873
5.85108
1
1
1
1
1
1
1
1
1
1
1
1
1
1
1
1.00001
1.00001
1.00003
1.00006
1.00012
1.00025
1.00052
1.00107
1.00219
1.00449
1.00921
1.01891
1.03887
1.08018
1.16663
1.35152
1.77551
2.86304
9.97881
9.90348
9.60325
8.89109
7.74939
6.8399
5.87405
1
1
1
1
1
1
1
1
1
1
1
1
1
1
1
1
1.00001
1.00002
1.00004
1.00008
1.00017
1.00035
1.00071
1.00147
1.00301
1.00617
1.01266
1.02602
1.05361
1.11102
1.2323
1.49747
2.13864
3.67906
9.52033
9.37367
8.88382
7.88785
6.92688
5.9251
1
1
1
1
1
1
1
1
1
1
1
1
1
1
1
1
1.00001
1.00001
1.00002
1.00005
1.0001
1.00021
1.00042
1.00087
1.00177
1.00364
1.00747
1.01533
1.03152
1.06499
1.1348
1.28298
1.61628
2.41491
4.29325
8.93781
8.7472
8.18911
7.09984
6.03461
1
1
1
1
1
1
1
1
1
1
1
1
1
1
1
1
1
1.00001
1.00001
1.00002
1.00005
1.0001
1.0002
1.0004
1.00083
1.0017
1.00347
1.00711
1.01456
1.02986
1.06141
1.12701
1.26583
1.57787
2.23912
3.86718
8.32415
8.07659
7.44607
6.26003
1
1
1
1
1
1
1
1
1
1
1
1
1
1
1
1
1
1
1
1.00001
1.00002
1.00004
1.00008
1.00017
1.00035
1.0007
1.00144
1.00294
1.00601
1.01228
1.02514
1.05157
1.1063
1.22223
1.46652
2.01902
3.47515
7.6091
7.32919
6.63253
1
1
1
1
1
1
1
1
1
1
1
1
1
1
1
1
1
1
1
1
1.00001
1.00002
1.00003
1.00007
1.00014
1.00029
1.0006
1.00123
1.00251
1.00512
1.01047
1.02142
1.04391
1.09043
1.18777
1.39784
1.87996
3.15056
6.80238
6.51651
1
1
1
1
1
1
1
1
1
1
1
1
1
1
1
1
1
1
1
1
1
1.00001
1.00001
1.00003
1.00006
1.00012
1.00024
1.00049
1.00101
1.00206
1.0042
1.00859
1.01757
1.03598
1.07397
1.15323
1.32278
1.71019
2.77063
5.89752
1
1
1
1
1
1
1
1
1
1
1
1
1
1
1
1
1
1
1
1
1
1
1
1.00001
1.00001
1.00003
1.00006
1.00012
1.00025
1.0005
1.00101
1.00204
1.00411
1.00832
1.01684
1.03418
1.06979
1.14421
1.30291
1.66939
1
1
1
1
1
1
1
1
1
1
1
1
1
1
1
1
1
1
1
1
1
1
1
1
1.00001
1.00002
1.00004
1.00009
1.00018
1.00037
1.00075
1.00154
1.00315
1.00646
1.01324
1.02719
1.05598
1.11592
1.24221
1.53209
1
1
1
1
1
1
1
1
1
1
1
1
1
1
1
1
1
1
1
1
1
1
1
1
1
1.00001
1.00002
1.00004
1.00008
1.00017
1.00035
1.00071
1.00146
1.00299
1.00611
1.01251
1.02564
1.05267
1.10854
1.22673
1
1
1
1
1
1
1
1
1
1
1
1
1
1
1
1
1
1
1
1
1
1
1
1
1
1.00001
1.00001
1.00003
1.00005
1.00011
1.00022
1.00045
1.00092
1.00189
1.00386
1.00792
1.01623
1.03331
1.0686
1.14225
1
1
1
1
1
1
1
1
1
1
1
1
1
1
1
1
1
1
1
1
1
1
1
1
1
1.00001
1.00001
1.00002
1.00004
1.00009
1.00019
1.00038
1.00078
1.0016
1.00329
1.00676
1.01389
1.0286
1.05902
1.12244
1
1
1
1
1
1
1
1
1
1
1
1
1
1
1
1
1
1
1
1
1
1
1
1
1
1
1.00001
1.00002
1.00003
1.00006
1.00013
1.00027
1.00055
1.00113
1.00231
1.00474
1.00973
1.01999
1.04115
1.08498
1
1
1
1
1
1
1
1
1
1
1
1
1
1
1
1
1
1
1
1
1
1
1
1
1
1
1.00001
1.00001
1.00002
1.00005
1.0001
1.0002
1.00041
1.00085
1.00174
1.00357
1.00734
1.01507
1.03099
1.06391
1
1
1
1
1
1
1
1
1
1
1
1
1
1
1
1
1
1
1
1
1
1
1
1
1
1
1
1.00001
1.00002
1.00004
1.00008
1.00017
1.00035
1.00071
1.00147
1.00301
1.00618
1.01272
1.02617
1.05399
1
1
1
1
1
1
1
1
1
1
1
1
1
1
1
1
1
1
1
1
1
1
1
1
1
1
1
1.00001
1.00001
1.00003
1.00006
1.00012
1.00024
1.0005
1.00102
1.00209
1.00428
1.00878
1.01804
1.03711
1
1
1
1
1
1
1
1
1
1
1
1
1
1
1
1
1
1
1
1
1
1
1
1
1
1
1
1.00001
1.00001
1.00002
1.00004
1.00009
1.00018
1.00038
1.00077
1.00159
1.00326
1.00668
1.01373
1.02822
1
1
1
1
1
1
1
1
1
1
1
1
1
1
1
1
1
1
1
1
1
1
1
1
1
1
1
1
1.00001
1.00002
1.00004
1.00008
1.00016
1.00032
1.00066
1.00136
1.00279
1.00573
1.01178
1.02425
1
1
1
1
1
1
1
1
1
1
1
1
1
1
1
1
1
1
1
1
1
1
1
1
1
1
1
1
1.00001
1.00001
1.00003
1.00005
1.00011
1.00023
1.00047
1.00096
1.00198
1.00406
1.00833
1.01712
1
1
1
1
1
1
1
1
1
1
1
1
1
1
1
1
1
1
1
1
1
1
1
1
1
1
1
1
1
1.00001
1.00002
1.00004
1.00009
1.00018
1.00036
1.00075
1.00153
1.00314
1.00645
1.01326
1
1
1
1
1
1
1
1
1
1
1
1
1
1
1
1
1
1
1
1
1
1
1
1
1
1
1
1
1
1.00001
1.00002
1.00004
1.00007
1.00015
1.00031
1.00064
1.00132
1.00272
1.00558
1.01147
1
1
1
1
1
1
1
1
1
1
1
1
1
1
1
1
1
1
1
1
1
1
1
1
1
1
1
1
1
1.00001
1.00001
1.00003
1.00005
1.00011
1.00023
1.00047
1.00097
1.00199
1.00408
1.00837
1
1
1
1
1
1
1
1
1
1
1
1
1
1
1
1
1
1
1
1
1
1
1
1
1
1
1
1
1
1
1.00001
1.00002
1.00004
1.00007
1.00015
1.00031
1.00063
1.00129
1.00264
1.00541
1
1
1
1
1
1
1
1
1
1
1
1
1
1
1
1
1
1
1
1
1
1
1
1
1
1
1
1
1
1
1.00001
1.00001
1.00003
1.00005
1.00011
1.00022
1.00046
1.00094
1.00193
1.00396
1
1
1
1
1
1
1
1
1
1
1
1
1
1
1
1
1
1
1
1
1
1
1
1
1
1
1
1
1
1
1
1.00001
1.00002
1.00004
1.00008
1.00017
1.00035
1.00071
1.00146
1.003
1
1
1
1
1
1
1
1
1
1
1
1
1
1
1
1
1
1
1
1
1
1
1
1
1
1
1
1
1
1
1
1.00001
1.00002
1.00003
1.00007
1.00014
1.00029
1.0006
1.00124
1.00255
1
1
1
1
1
1
1
1
1
1
1
1
1
1
1
1
1
1
1
1
1
1
1
1
1
1
1
1
1
1
1
1.00001
1.00001
1.00002
1.00005
1.0001
1.00021
1.00043
1.00088
1.0018
1
1
1
1
1
1
1
1
1
1
1
1
1
1
1
1
1
1
1
1
1
1
1
1
1
1
1
1
1
1
1
1
1.00001
1.00002
1.00004
1.00009
1.00018
1.00036
1.00074
1.00151
1
1
1
1
1
1
1
1
1
1
1
1
1
1
1
1
1
1
1
1
1
1
1
1
1
1
1
1
1
1
1
1
1.00001
1.00002
1.00004
1.00007
1.00015
1.00031
1.00064
1.00131
1
1
1
1
1
1
1
1
1
1
1
1
1
1
1
1
1
1
1
1
1
1
1
1
1
1
1
1
1
1
1
1
1.00001
1.00001
1.00003
1.00005
1.00011
1.00022
1.00046
1.00095
1
1
1
1
1
1
1
1
1
1
1
1
1
1
1
1
1
1
1
1
1
1
1
1
1
1
1
1
1
1
1
1
1
1.00001
1.00002
1.00004
1.00008
1.00016
1.00034
1.00069
1
1
1
1
1
1
1
1
1
1
1
1
1
1
1
1
1
1
1
1
1
1
1
1
1
1
1
1
1
1
1
1
1.00001
1.00001
1.00002
1.00004
1.00009
1.00018
1.00037
1.00075
3.09538
2.23615
2.00738
1.8145
1.82449
1.81964
1.79103
1.69781
1.46213
1.68214
2.14527
2.25409
2.53717
2.39063
2.33736
2.32226
2.45408
2.51545
2.36794
2.43162
2.69175
2.61738
2.67904
2.62455
2.66726
2.78526
2.71749
2.78041
2.90442
2.95538
2.85027
2.89944
3.14811
3.12932
3.07468
3.93424
5.84111
5.49294
6.18078
6.18056
3.24817
2.35501
2.05018
1.4358
1.22179
1.30858
1.27978
1.2014
1.41451
1.36537
1.23259
0.957242
0.250263
0.979063
1.67087
2.26933
2.59489
2.57899
2.55125
2.67515
2.57349
2.58068
2.66489
2.61068
2.6161
2.63793
2.75271
2.90594
2.8663
2.93586
2.97881
3.07474
2.9409
3.0685
3.0226
3.94076
5.22202
5.85471
5.7573
6.99162
3.62182
2.70382
2.27628
2.20193
2.04343
1.70776
1.81965
2.0463
2.38773
2.38567
2.37837
2.37727
2.41283
2.4397
2.54236
2.73376
2.80392
2.63049
2.53587
2.44795
2.47843
2.63321
2.71577
2.75823
2.6477
2.57784
2.84647
2.9002
2.62571
2.67262
2.97973
2.99859
2.719
2.82349
3.03544
2.89302
2.78734
1.93932
2.73737
2.76052
4.41465
3.45807
2.81276
2.33303
2.03423
1.8703
1.88646
2.04739
2.36967
2.36969
2.37152
2.37146
2.3768
2.38993
2.42063
2.56694
2.56409
2.49219
2.51369
2.50032
2.58652
2.67585
2.66441
2.7422
2.57449
2.52574
2.74225
2.88258
2.63259
2.78076
2.99843
2.8993
2.73935
2.79754
2.68849
2.76117
2.84192
2.94675
3.03778
2.94564
4.6602
3.56974
2.8794
2.40805
2.098
1.98083
2.00235
2.05592
2.32593
2.33144
2.35781
2.40183
2.40523
2.40292
2.40651
2.44464
2.43435
2.42647
2.46483
2.51203
2.67593
2.69822
2.70698
2.71335
2.59158
2.63044
2.78283
2.8595
2.72727
2.72763
2.83535
2.84619
2.77143
2.99276
2.73472
2.77688
2.88543
3.437
3.4242
2.83725
4.73354
3.78586
3.04535
2.59121
2.27673
2.2254
2.12101
2.13071
2.15852
2.23416
2.31083
2.4029
2.42866
2.42628
2.42387
2.4209
2.41507
2.43284
2.47237
2.57328
2.68718
2.70152
2.76805
2.69158
2.6884
2.87691
2.81841
2.78435
2.80643
2.76658
2.90169
2.89944
2.8287
2.99544
3.18631
3.12531
2.9761
3.01414
3.57101
3.32914
4.80977
4.03754
3.38513
2.96325
2.63636
2.32434
2.17347
2.17616
2.19454
2.23601
2.31447
2.38645
2.40801
2.42902
2.43187
2.43144
2.43793
2.48198
2.49678
2.62547
2.6707
2.69447
2.71569
2.70306
2.72627
2.79209
2.72972
2.79774
2.83729
2.81338
2.82587
3.00407
2.92606
2.88596
2.81934
2.7665
2.75001
3.00645
3.46899
4.10939
4.84212
4.16411
3.57334
3.08194
2.70146
2.41662
2.26121
2.26085
2.26766
2.29046
2.33901
2.38609
2.40758
2.44631
2.45577
2.47719
2.49534
2.5207
2.5872
2.64539
2.68107
2.68895
2.70879
2.74744
2.70383
2.77194
2.72112
2.7542
2.74803
2.65316
2.75036
2.88902
2.88676
2.84562
2.98087
3.3809
3.42535
3.26537
3.19198
3.51424
4.86801
4.25648
3.69784
3.21068
2.82013
2.59626
2.43963
2.34243
2.33711
2.34139
2.3538
2.37942
2.43429
2.47808
2.48997
2.48592
2.54863
2.58094
2.62305
2.6439
2.65111
2.60904
2.67538
2.79457
2.73201
2.71462
2.58331
2.66745
2.68364
2.54698
2.60791
2.88716
2.90525
2.80097
2.73267
2.50771
2.63187
3.60409
3.25571
3.44546
4.91943
4.34494
3.81384
3.3355
2.95813
2.7106
2.56448
2.46962
2.38388
2.38429
2.38771
2.39903
2.4312
2.473
2.48555
2.53425
2.56772
2.58442
2.61146
2.63409
2.65289
2.62561
2.62859
2.68995
2.72083
2.78053
2.6533
2.66712
2.75051
2.65836
2.69404
3.19617
3.1298
3.24007
3.37069
2.67799
2.94345
3.33562
3.47441
3.2087
5.00312
4.4151
3.89935
3.42936
3.04976
2.78293
2.61166
2.48655
2.39836
2.39851
2.39979
2.40707
2.42415
2.47398
2.50297
2.55616
2.59062
2.59598
2.5912
2.59583
2.66705
2.69238
2.62958
2.57301
2.70013
2.63627
2.67744
2.73869
2.69498
2.79214
3.08595
3.30362
2.86956
2.74244
3.01086
3.19726
3.21934
4.15734
4.43179
4.25159
5.10667
4.47352
3.96947
3.51814
3.13858
2.86063
2.66546
2.51281
2.4101
2.40814
2.4094
2.41323
2.42555
2.46052
2.51447
2.57279
2.58665
2.60591
2.61741
2.5917
2.57364
2.68104
2.63077
2.65955
2.69698
2.61626
2.78978
2.8883
2.70758
2.85692
2.91613
2.91991
3.0512
2.78844
2.84293
2.92804
2.88898
3.65686
3.78962
4.15108
5.22611
4.53836
4.05518
3.63286
3.28113
2.99916
2.76299
2.56717
2.43333
2.42174
2.42312
2.42815
2.44323
2.4757
2.52293
2.56595
2.59414
2.6029
2.59757
2.6057
2.62629
2.61504
2.66784
2.73806
2.71836
2.71944
2.9837
2.92381
2.71282
2.75878
2.83301
2.84584
2.89299
3.03106
2.93785
2.78067
2.77477
3.09679
3.74908
3.7448
5.2654
4.62568
4.2285
3.86424
3.51502
3.16803
2.88249
2.6594
2.47611
2.44567
2.44706
2.4511
2.4606
2.48337
2.51055
2.55977
2.58923
2.59794
2.60791
2.62261
2.55883
2.63375
2.69617
2.76992
2.84345
2.72434
2.72099
2.81289
2.76687
2.80293
3.07936
3.44366
3.4409
3.45995
3.57586
3.44198
3.10962
3.36672
3.83427
4.15481
5.34382
4.80077
4.57929
4.15765
3.67034
3.27438
2.97376
2.72973
2.53653
2.48743
2.48717
2.48763
2.49026
2.49563
2.51007
2.56588
2.58457
2.60923
2.642
2.5591
2.55573
2.70413
2.72406
2.72683
2.72829
2.70778
2.6946
2.69984
3.0172
3.11257
2.96285
2.91753
2.94538
3.07207
3.06778
3.32359
3.70335
3.91332
3.84137
3.183
5.26295
5.15062
4.87216
4.30473
3.76456
3.35279
3.05039
2.78307
2.57372
2.5229
2.5231
2.52433
2.52848
2.53662
2.5524
2.59579
2.62776
2.64745
2.57847
2.57583
2.7191
2.80094
2.73473
2.75389
2.6971
2.51014
2.62365
2.83693
3.18134
3.21774
2.6628
2.7687
2.78707
2.77669
2.90067
3.21444
3.48044
3.31531
4.2322
4.02204
5.19011
5.11052
4.88765
4.43379
3.90738
3.47662
3.14612
2.84642
2.62106
2.56924
2.56809
2.56864
2.57302
2.57911
2.58885
2.62241
2.64729
2.60639
2.62668
2.72774
2.74024
2.74598
2.67021
2.78298
2.56454
2.65128
2.94075
3.06173
3.07263
2.96703
2.81343
2.97615
2.99083
2.79373
2.86223
3.0924
3.85965
3.39007
3.19556
3.95844
1.97959
4.97306
4.8633
4.60968
4.10449
3.63824
3.25893
2.92657
2.67072
2.6315
2.62566
2.62179
2.61999
2.62393
2.62574
2.64255
2.62818
2.62475
2.70574
2.73082
2.78074
2.71596
2.74905
2.7741
2.73839
2.93732
3.20314
2.97849
2.84828
2.7727
2.69057
2.77772
3.20453
2.93399
3.20134
3.21272
3.46909
3.39696
3.14997
3.15839
1.65254
4.68465
4.72494
4.61371
4.34875
3.81444
3.369
3.01712
2.74556
2.70519
2.6773
2.65943
2.65824
2.66076
2.67218
2.66726
2.65408
2.73483
2.7347
2.75847
2.77369
2.69584
2.8823
2.95721
2.81183
2.85018
2.97042
2.86415
2.72173
2.74505
2.89483
3.00481
3.0731
3.008
3.07826
3.23281
3.37792
3.91351
3.72304
3.86055
1.55391
4.62206
4.61005
4.55995
4.3817
4.00489
3.51869
3.16065
2.86046
2.78119
2.72494
2.67969
2.68183
2.68232
2.69115
2.68115
2.74008
2.74436
2.74686
2.67873
2.6664
2.84651
2.89613
2.80398
2.83006
2.88893
2.73575
2.96767
2.7319
2.71622
3.21491
3.07734
2.85568
2.9848
3.14477
3.02748
3.0186
3.17396
3.66745
3.13022
1.35218
2.29252
4.47406
4.44739
4.34393
4.11686
3.71414
3.35735
3.03772
2.83722
2.74669
2.67309
2.66426
2.66079
2.66189
2.69899
2.73564
2.71944
2.73365
2.67966
2.81336
2.87404
2.87905
2.83042
2.84089
2.93616
2.90359
2.90794
2.92947
3.21925
3.17998
3.3093
3.42191
3.16299
3.31907
3.47422
3.03468
3.12384
3.47796
3.35766
1.25187
1.95236
4.1818
4.22032
4.21299
4.12155
3.90782
3.47791
3.16197
2.86137
2.76035
2.69204
2.69099
2.70051
2.72799
2.75667
2.74941
2.76235
2.78279
2.77672
2.95931
2.88388
2.79752
2.98638
2.99899
2.89916
3.13849
2.87322
2.95724
3.49281
3.24452
3.10215
3.11471
3.84379
3.61895
3.73355
3.96582
3.65963
3.44884
3.14817
1.2089
1.80554
4.15736
4.15181
4.13366
4.08843
3.95161
3.6574
3.25686
3.10627
3.03418
2.91091
2.84663
2.83108
2.83368
2.83412
2.8323
2.84194
2.8286
2.9204
2.85752
2.75256
2.94058
3.19913
3.01231
3.00728
3.21528
3.00433
3.20084
3.27328
2.86516
2.98221
3.15656
3.48945
3.43982
3.30971
3.50758
3.87509
3.74459
2.73083
1.14006
1.51145
2.29808
4.0746
4.06722
4.03248
3.9388
3.74954
3.36297
3.23133
3.10512
3.0291
3.08683
2.89721
2.84061
2.84064
2.84207
2.87564
2.89857
2.79422
2.78483
3.08739
3.17148
3.02353
2.98407
3.27158
2.97444
2.93724
3.27482
3.37501
3.37243
3.29495
3.24235
3.04014
3.01407
3.10948
3.23592
3.25023
3.63527
3.39196
1.10551
1.37243
1.97877
3.89107
3.92787
3.91921
3.88885
3.79068
3.5816
3.31901
3.20494
3.14223
3.17832
2.90406
2.87204
2.90054
2.91785
2.86722
2.78308
2.93388
3.11994
3.15428
3.05755
3.08499
2.99041
3.13686
3.13689
2.98959
3.31989
3.23198
3.29852
3.69919
4.09764
3.29055
3.07015
3.03049
3.27322
3.56364
3.81705
4.27119
1.09028
1.31404
1.83908
3.85681
3.8495
3.84214
3.82095
3.77832
3.68114
3.49702
3.32803
3.27444
3.16823
2.92382
2.8884
2.89067
2.86939
2.86518
3.06741
3.15311
3.18148
3.08814
3.26422
3.20411
3.10792
3.2245
3.18915
2.79211
2.80953
3.01681
2.80416
2.83624
3.66439
3.81777
3.38173
3.22132
3.61008
4.12825
4.43643
4.79716
1.06308
1.21596
1.55571
2.27113
3.83771
3.8365
3.82058
3.77973
3.69459
3.55252
3.37425
3.30059
3.15574
2.92456
2.86657
2.84259
3.08141
3.24525
3.22461
3.18349
3.11291
3.10005
3.21607
3.1962
3.08157
3.00432
3.18959
3.15573
2.86009
2.86056
2.73629
2.68769
3.13471
3.04732
3.39496
3.47776
3.27061
3.37165
4.11098
4.32993
1.04858
1.16511
1.41662
1.98583
3.78064
3.81756
3.81066
3.78065
3.70804
3.6437
3.50648
3.35209
3.07094
2.94376
3.02096
3.34225
3.40525
3.24917
3.18396
3.16206
3.15915
3.11953
3.08349
3.28498
3.16459
3.24513
3.36499
2.93783
2.79813
2.92121
3.47901
3.15285
2.90323
2.80928
2.8757
3.67046
3.69882
3.15736
3.48859
4.65147
1.04196
1.14235
1.35554
1.85463
3.68245
3.77588
3.78567
3.77023
3.74026
3.68579
3.56119
3.24954
3.13995
3.34055
3.43515
3.50201
3.50698
3.24596
3.16053
3.16906
3.2268
3.19388
3.30277
3.14868
3.2705
3.35021
3.18134
3.33502
3.45622
3.43427
3.63445
3.94245
3.3142
3.17526
3.13949
3.05
3.68187
3.56766
3.61443
4.1625
1.03043
1.10246
1.25233
1.58497
2.27261
3.77426
3.76994
3.76168
3.73815
3.66894
3.49775
3.34584
3.50827
3.60978
3.52187
3.56258
3.53916
3.29749
3.25413
3.33851
3.19278
3.21154
3.54291
3.23571
3.31323
3.46334
3.43388
3.48959
3.27892
3.40787
3.65908
3.60013
3.73535
3.87047
3.72731
3.51687
3.88335
3.88122
3.95455
3.90079
1.0196
1.06567
1.16015
1.36163
1.8034
3.75088
3.73881
3.72059
3.68466
3.64127
3.5831
3.71771
3.72365
3.67989
3.58431
3.63086
3.56205
3.51027
3.5221
3.50933
3.22565
3.37223
3.76099
3.34236
3.48499
3.60357
3.44235
3.38175
3.29729
3.45115
3.07093
2.92609
3.14188
4.04004
4.22493
3.44677
4.1824
4.43253
3.98136
3.83893
1.01435
1.048
1.11672
1.26033
1.57197
2.23715
3.66744
3.71705
3.74246
3.807
3.88195
3.90164
3.89832
3.88173
3.82841
3.92425
3.55724
3.47698
3.49738
3.65598
3.94837
3.95023
3.44928
3.64485
3.89433
3.5591
3.72001
3.73906
3.48325
3.94945
3.20413
3.04523
3.15829
3.43038
4.55258
3.72983
3.39161
4.10277
4.02626
3.6939
1.01084
1.03617
1.08771
1.19409
1.42142
1.93609
3.49497
3.70003
3.75048
3.88942
4.02371
4.01662
4.03061
4.00277
4.02058
3.88352
3.59545
3.69765
4.08154
4.04124
3.79153
3.7519
3.8033
3.80277
3.67335
3.86949
3.82558
3.6141
3.47499
3.64849
3.55832
3.36712
3.50052
3.62243
3.66563
4.07169
3.27879
3.709
4.54165
3.91908
1.00921
1.03076
1.07469
1.16558
1.35854
1.80504
3.43394
3.64896
3.74815
3.89557
4.10726
4.10867
4.0887
4.06307
4.0003
3.90376
4.09957
4.28403
4.31175
4.09864
3.86688
3.85615
3.75849
3.78827
3.79571
3.85801
3.89093
3.88162
3.65844
3.48049
3.52249
3.70537
3.50668
3.67432
3.31841
3.34117
3.89499
3.8214
3.90942
4.92607
1.00649
1.02166
1.0526
1.11622
1.24877
1.53962
2.15045
3.48074
3.65337
3.95126
4.27296
4.29234
4.30837
4.36111
4.39697
4.56253
4.64083
4.55824
4.27308
4.02863
3.88865
3.84918
4.2835
4.3853
4.29107
4.4264
3.89454
3.578
3.49645
3.80205
3.8966
3.77216
4.15943
3.81532
3.17914
3.18265
3.49613
4.29948
4.21725
4.04383
1.0054
1.01786
1.04286
1.09329
1.19602
1.41293
1.88683
3.00987
3.50207
4.37775
4.74309
4.83419
4.85074
4.83698
4.82559
4.74372
4.64641
4.39956
4.20204
4.16101
4.43646
4.53159
4.5278
4.36176
4.15524
4.221
3.91998
3.68869
3.59293
3.52681
3.98948
4.4559
3.64272
3.23525
3.50838
3.84981
3.60446
3.88682
3.74855
3.62225
1.00471
1.01558
1.0373
1.08092
1.16971
1.3552
1.76953
3.00169
3.4398
4.58092
4.79604
4.87585
4.85751
4.80015
4.66658
4.65707
4.62073
4.60583
4.3884
4.49035
4.61923
4.57517
4.50178
4.48467
4.13403
4.22841
4.39132
3.91548
3.72047
3.72981
3.72284
3.79255
3.72354
3.45597
3.32968
3.52418
4.26779
3.79128
3.36049
3.85899
1.00344
1.01142
1.02717
1.05821
1.12048
1.24663
1.51896
2.0817
3.31883
4.85399
4.95067
4.93155
4.87502
4.89834
4.76714
4.77581
4.96727
4.96404
4.89824
4.89934
4.75623
4.88185
4.85543
4.33485
4.20541
4.03678
3.90296
3.8096
4.11154
4.23396
3.51726