/*--------------------------------*- C++ -*----------------------------------*\
  =========                 |
  \\      /  F ield         | OpenFOAM: The Open Source CFD Toolbox
   \\    /   O peration     | Website:  https://openfoam.org
    \\  /    A nd           | Version:  6.0
     \\/     M anipulation  |
\*---------------------------------------------------------------------------*/
FoamFile
{
    version     2.0;
    format      ascii;
    class       volScalarField;
    location    "4";
    object      p;
}
// * * * * * * * * * * * * * * * * * * * * * * * * * * * * * * * * * * * * * //

dimensions      [1 -1 -2 0 0 0 0];

internalField   nonuniform List<scalar> 
192000
(
0.758338
0.653488
0.611402
0.584044
0.56645
0.55351
0.543644
0.535795
0.529478
0.524005
0.519614
0.515442
0.512407
0.508957
0.507615
0.507857
0.509646
0.512829
0.531284
0.55663
0.678611
0.881165
1.6921
3.54769
4.77852
4.80169
4.76755
4.68441
4.66762
4.67999
4.72308
4.81384
4.9007
4.98925
5.10654
5.27161
5.51046
5.89114
6.508
7.7668
0.758337
0.653489
0.611403
0.584045
0.566449
0.55351
0.543643
0.535795
0.529478
0.524006
0.519614
0.515442
0.512406
0.50896
0.5076
0.507843
0.509736
0.512725
0.53172
0.555552
0.680587
0.876446
1.69604
3.54362
4.77996
4.80301
4.76849
4.68481
4.66819
4.68055
4.72357
4.81406
4.90073
4.98926
5.10654
5.27159
5.51035
5.89086
6.50696
7.76678
0.758337
0.653489
0.611403
0.584045
0.566449
0.55351
0.543643
0.535795
0.529478
0.524006
0.519614
0.515442
0.512406
0.50896
0.507599
0.507842
0.509732
0.512719
0.531694
0.555503
0.680405
0.875905
1.69504
3.54072
4.78146
4.80415
4.76927
4.68527
4.66928
4.68174
4.72485
4.81501
4.90084
4.98917
5.1065
5.27156
5.51015
5.89016
6.50437
7.7625
0.758338
0.653488
0.611402
0.584044
0.56645
0.55351
0.543644
0.535795
0.529478
0.524005
0.519615
0.515441
0.512408
0.508956
0.507612
0.507854
0.509638
0.512811
0.531209
0.556487
0.678064
0.879781
1.68878
3.53947
4.78312
4.80523
4.77008
4.68619
4.67124
4.68387
4.72722
4.81698
4.90123
4.98906
5.1065
5.27158
5.50999
5.8892
6.50039
7.75263
0.758338
0.653489
0.611402
0.584043
0.56645
0.55351
0.543644
0.535794
0.529479
0.524005
0.519616
0.515441
0.512409
0.508954
0.507611
0.507848
0.509645
0.512807
0.531217
0.556625
0.677405
0.880475
1.68382
3.5335
4.78481
4.80684
4.77149
4.68788
4.67401
4.68679
4.73031
4.81946
4.90171
4.98891
5.10638
5.27142
5.50946
5.88757
6.49496
7.74078
0.758338
0.653488
0.611402
0.584043
0.56645
0.55351
0.543644
0.535795
0.529479
0.524006
0.519615
0.515441
0.512408
0.508955
0.507607
0.507848
0.50963
0.512793
0.531108
0.556285
0.677113
0.877618
1.6812
3.52388
4.78688
4.80934
4.77387
4.6906
4.67769
4.69061
4.73424
4.82252
4.90257
4.98909
5.1064
5.27126
5.5087
5.88528
6.4885
7.72836
0.758337
0.653489
0.611403
0.584045
0.566449
0.55351
0.543643
0.535795
0.529479
0.524006
0.519615
0.515442
0.512407
0.508957
0.507593
0.507831
0.509733
0.512719
0.531512
0.555275
0.678251
0.872388
1.67934
3.50811
4.78834
4.81225
4.77692
4.69438
4.68231
4.69536
4.73899
4.82587
4.90354
4.98935
5.10634
5.2708
5.50731
5.88191
6.4808
7.71647
0.758336
0.653489
0.611403
0.584046
0.566449
0.553511
0.543643
0.535795
0.529478
0.524006
0.519614
0.515443
0.512405
0.508957
0.507592
0.507833
0.509717
0.512701
0.531387
0.555006
0.677237
0.868614
1.67458
3.49186
4.78897
4.81486
4.78006
4.69897
4.68788
4.70116
4.74512
4.82956
4.90513
4.99007
5.10645
5.27026
5.50556
5.87775
6.47216
7.70314
0.758336
0.653489
0.611403
0.584046
0.566449
0.553511
0.543642
0.535795
0.529478
0.524007
0.519613
0.515444
0.512403
0.508959
0.507582
0.507818
0.509715
0.512673
0.531267
0.554746
0.676129
0.865859
1.6664
3.47143
4.78967
4.81785
4.78369
4.70435
4.6943
4.70783
4.75218
4.83372
4.90712
4.99105
5.10659
5.26943
5.50321
5.87261
6.46248
7.68928
0.758336
0.653488
0.611403
0.584047
0.566449
0.553511
0.543642
0.535796
0.529477
0.524008
0.519612
0.515446
0.512399
0.508963
0.507566
0.507799
0.509678
0.512613
0.531068
0.554375
0.674767
0.862463
1.65665
3.44648
4.791
4.82156
4.78803
4.71044
4.70155
4.71537
4.76021
4.8387
4.90971
4.99242
5.10692
5.2684
5.50035
5.86668
6.45196
7.67488
0.758336
0.653488
0.611403
0.584047
0.566449
0.553512
0.543642
0.535797
0.529476
0.524009
0.51961
0.515449
0.512394
0.50897
0.507545
0.507776
0.50961
0.512523
0.53079
0.553895
0.673084
0.858391
1.64515
3.41674
4.7932
4.82611
4.79309
4.71707
4.70947
4.72365
4.76906
4.84452
4.91299
4.99419
5.10738
5.26715
5.497
5.86006
6.44072
7.65969
0.758336
0.653488
0.611403
0.584047
0.566449
0.553512
0.543641
0.535797
0.529475
0.524011
0.519608
0.515453
0.512387
0.508978
0.507514
0.507737
0.509562
0.512428
0.530504
0.55334
0.67116
0.853808
1.63107
3.38022
4.79669
4.83205
4.79936
4.72444
4.71798
4.73252
4.7784
4.85101
4.9169
4.99621
5.10786
5.2657
5.49318
5.85281
6.42892
7.64481
0.758336
0.653488
0.611403
0.584047
0.566448
0.553512
0.543641
0.535798
0.529474
0.524012
0.519605
0.515457
0.512378
0.508989
0.507477
0.507693
0.509482
0.5123
0.53013
0.552664
0.668863
0.848237
1.61497
3.3369
4.80131
4.83937
4.8069
4.73264
4.72698
4.74183
4.78811
4.85814
4.92145
4.99855
5.1084
5.2641
5.48884
5.84494
6.41672
7.63074
0.758337
0.653488
0.611404
0.584047
0.566448
0.553512
0.54364
0.535799
0.529472
0.524015
0.519601
0.515462
0.512368
0.509001
0.507432
0.50764
0.509382
0.512142
0.529688
0.551866
0.666236
0.842151
1.59611
3.28633
4.80714
4.84814
4.81574
4.74168
4.73643
4.75152
4.79808
4.86583
4.9266
5.00123
5.109
5.26238
5.48397
5.83648
6.40421
7.61769
0.758337
0.653489
0.611403
0.584047
0.566447
0.553513
0.543639
0.5358
0.529471
0.524017
0.519597
0.515468
0.512357
0.509015
0.507378
0.507576
0.509251
0.511945
0.529168
0.550994
0.663239
0.836286
1.57331
3.22816
4.81442
4.85849
4.82589
4.75139
4.74629
4.76153
4.80822
4.87396
4.93227
5.0042
5.10948
5.26034
5.47855
5.82743
6.39143
7.60579
0.758339
0.653488
0.611402
0.584045
0.566448
0.553512
0.543639
0.535801
0.52947
0.524019
0.519594
0.515474
0.512346
0.509027
0.507333
0.507522
0.50906
0.511841
0.528269
0.550881
0.658296
0.835043
1.54134
3.165
4.82333
4.87062
4.83731
4.76156
4.75655
4.7719
4.81857
4.88252
4.9385
5.00758
5.10988
5.25792
5.4725
5.8178
6.37836
7.59442
0.758339
0.653488
0.611402
0.584044
0.566448
0.553513
0.543639
0.535802
0.529468
0.524022
0.519589
0.515481
0.512333
0.509042
0.507278
0.507454
0.50893
0.511627
0.52768
0.549852
0.654521
0.826511
1.51324
3.09019
4.83405
4.88465
4.85025
4.77233
4.76721
4.78258
4.82908
4.89143
4.94522
5.01135
5.11029
5.25516
5.46579
5.80762
6.365
7.58327
0.758339
0.653488
0.611403
0.584045
0.566447
0.553513
0.543637
0.535803
0.529465
0.524025
0.519583
0.515489
0.512317
0.509062
0.507215
0.507381
0.508806
0.511423
0.527052
0.548592
0.650398
0.81726
1.48154
3.0049
4.84779
4.90097
4.86493
4.78356
4.77789
4.79322
4.83949
4.90043
4.95224
5.01539
5.11076
5.25215
5.4586
5.79712
6.35162
7.57272
0.758338
0.653489
0.611404
0.584047
0.566445
0.553514
0.543635
0.535805
0.529462
0.524029
0.519577
0.515499
0.512299
0.509085
0.507143
0.507295
0.508739
0.51112
0.526715
0.546507
0.647326
0.800774
1.45373
2.90442
4.8651
4.91972
4.8815
4.79531
4.78841
4.80362
4.84954
4.90921
4.95916
5.01933
5.11091
5.24859
5.45085
5.78608
6.33819
7.56398
0.758338
0.653489
0.611404
0.584047
0.566445
0.553515
0.543633
0.535807
0.529459
0.524033
0.519571
0.515508
0.512283
0.509104
0.507077
0.507217
0.508581
0.510863
0.525954
0.545091
0.642447
0.789571
1.41619
2.79662
4.88496
4.93964
4.89899
4.80719
4.79856
4.81364
4.85917
4.91765
4.96589
5.02313
5.11076
5.24434
5.44233
5.77437
6.32473
7.55801
0.75834
0.653488
0.611403
0.584045
0.566446
0.553514
0.543633
0.535807
0.529457
0.524036
0.519566
0.515515
0.51227
0.50912
0.50702
0.507148
0.50835
0.510672
0.524825
0.544411
0.635566
0.784903
1.36719
2.68672
4.90732
4.96003
4.91671
4.819
4.80869
4.82354
4.86841
4.92567
4.97225
5.02664
5.11013
5.23922
5.43275
5.7618
6.3112
7.55497
0.758341
0.653488
0.611402
0.584044
0.566446
0.553515
0.543633
0.535809
0.529455
0.524039
0.519561
0.515523
0.512255
0.509139
0.506955
0.507067
0.508199
0.510415
0.524046
0.543009
0.630278
0.772315
1.32695
2.56776
4.93008
4.98067
4.93444
4.83068
4.8186
4.8331
4.87703
4.933
4.97792
5.02946
5.10861
5.23285
5.42161
5.74791
6.29711
7.5545
0.758341
0.653488
0.611402
0.584044
0.566445
0.553515
0.543631
0.53581
0.529453
0.524043
0.519555
0.515533
0.512239
0.50916
0.506886
0.506987
0.508018
0.51016
0.523162
0.541366
0.624942
0.759363
1.28713
2.45196
4.9385
4.9999
4.95158
4.84327
4.82883
4.84282
4.88549
4.94008
4.98321
5.03189
5.10647
5.22552
5.40904
5.73243
6.28182
7.55494
0.758341
0.653489
0.611402
0.584044
0.566444
0.553515
0.54363
0.535812
0.52945
0.524047
0.519549
0.515542
0.512222
0.509181
0.506814
0.506897
0.5079
0.509969
0.522265
0.540334
0.619214
0.747904
1.25506
2.36401
4.9139
5.01444
4.96585
4.85589
4.83882
4.85215
4.89334
4.94656
4.98787
5.0337
5.10359
5.21714
5.39502
5.71524
6.26497
7.55473
0.758341
0.653488
0.611402
0.584044
0.566443
0.553516
0.543628
0.535815
0.529447
0.524053
0.519542
0.515554
0.512203
0.509204
0.506746
0.506819
0.507719
0.509717
0.521478
0.538599
0.614525
0.735006
1.22814
2.28412
4.86515
5.02451
4.97749
4.86886
4.84891
4.86129
4.9005
4.95215
4.99164
5.03464
5.09978
5.20756
5.37947
5.69623
6.24592
7.55197
0.758341
0.653488
0.611402
0.584044
0.566442
0.553518
0.543626
0.535818
0.529443
0.52406
0.519533
0.515567
0.512182
0.509229
0.506673
0.506737
0.507551
0.509518
0.520584
0.537298
0.609456
0.72462
1.19965
2.21508
4.80049
5.02923
4.98571
4.88144
4.85869
4.87001
4.907
4.95714
4.99458
5.03459
5.09489
5.19664
5.36227
5.67518
6.22401
7.5444
0.758341
0.653487
0.611401
0.584045
0.566441
0.553519
0.543625
0.535822
0.529439
0.524067
0.519524
0.515581
0.512158
0.509255
0.506594
0.506645
0.507354
0.509214
0.519897
0.535293
0.605563
0.713251
1.17501
2.15138
4.72404
5.0289
4.99022
4.89283
4.86758
4.87784
4.91235
4.9609
4.99632
5.03357
5.08906
5.18446
5.34334
5.65162
6.19846
7.53021
0.758339
0.653488
0.611401
0.584045
0.566441
0.55352
0.543624
0.535824
0.529436
0.524073
0.519515
0.515595
0.512134
0.509282
0.506518
0.506553
0.507187
0.508952
0.519127
0.533758
0.601461
0.702784
1.15183
2.09078
4.64074
5.02515
4.99146
4.902
4.87518
4.88451
4.91667
4.96336
4.99662
5.03097
5.08172
5.1708
5.32296
5.6251
6.16886
7.50922
0.758336
0.65349
0.611401
0.584046
0.566442
0.553521
0.543624
0.535826
0.529433
0.524077
0.519506
0.515607
0.51211
0.509308
0.50644
0.506457
0.507014
0.508666
0.518402
0.532119
0.597487
0.693189
1.12802
2.03303
4.54959
5.01782
4.98987
4.90934
4.88141
4.88988
4.91978
4.96425
4.99545
5.02654
5.07266
5.15525
5.30101
5.59441
6.13451
7.48083
0.758333
0.653492
0.611401
0.584048
0.566443
0.553521
0.543623
0.535827
0.529431
0.524082
0.519497
0.515619
0.512089
0.509331
0.506368
0.506354
0.506854
0.508433
0.517638
0.53073
0.593219
0.684466
1.10344
1.97673
4.44766
5.00776
4.98568
4.91512
4.8863
4.89399
4.92169
4.96368
4.9924
5.02024
5.06171
5.13758
5.27686
5.55936
6.09434
7.44342
0.758327
0.653496
0.611403
0.584049
0.566444
0.55352
0.543624
0.535826
0.52943
0.524083
0.519491
0.515626
0.512073
0.509344
0.506331
0.506237
0.506706
0.508075
0.517182
0.52877
0.590655
0.672742
1.08705
1.9128
4.34019
4.99441
4.97864
4.91949
4.88969
4.89663
4.92208
4.96144
4.98732
5.01192
5.04873
5.11766
5.24985
5.51997
6.04735
7.39521
0.758323
0.653499
0.611403
0.58405
0.566445
0.55352
0.543624
0.535826
0.529428
0.524085
0.519486
0.515633
0.51206
0.509352
0.506302
0.506105
0.506548
0.507869
0.516443
0.527505
0.586817
0.66401
1.06586
1.85474
4.22331
4.97815
4.96938
4.92263
4.8916
4.89774
4.92093
4.95682
4.97994
5.00118
5.03333
5.09525
5.21934
5.47591
5.99166
7.33381
0.758319
0.653501
0.611403
0.58405
0.566446
0.553518
0.543625
0.535825
0.529427
0.524087
0.519482
0.515639
0.512049
0.509359
0.50627
0.505955
0.506366
0.507619
0.515738
0.52622
0.583132
0.656553
1.04181
1.79907
4.0957
4.96041
4.95923
4.92499
4.8923
4.89751
4.91795
4.95008
4.97011
4.98778
5.0152
5.07016
5.18387
5.42624
5.92479
7.25658
0.758321
0.6535
0.611403
0.584049
0.566446
0.553519
0.543625
0.535827
0.529425
0.524091
0.519477
0.515647
0.512037
0.509366
0.506237
0.505786
0.506166
0.507452
0.51486
0.525636
0.577893
0.654369
1.00589
1.75212
3.94994
4.93933
4.95285
4.92465
4.89179
4.89596
4.913
4.94117
4.95775
4.97161
4.99432
5.04126
5.14287
5.36891
5.8463
7.16121
0.758323
0.653499
0.611402
0.584048
0.566445
0.553519
0.543623
0.535829
0.529423
0.524094
0.519473
0.515652
0.512029
0.509366
0.506225
0.505634
0.505982
0.507192
0.51422
0.524469
0.574168
0.648365
0.978015
1.69441
3.79353
4.91629
4.94775
4.92399
4.88973
4.89245
4.90567
4.92954
4.94258
4.95244
4.96998
5.00781
5.09538
5.30234
5.75381
7.04296
0.758324
0.6535
0.611403
0.584047
0.566444
0.553519
0.543622
0.535831
0.529422
0.524097
0.519471
0.515656
0.512025
0.509363
0.506221
0.505516
0.505822
0.50686
0.513763
0.522689
0.572099
0.635918
0.965366
1.61733
3.63684
4.88964
4.94295
4.9221
4.88522
4.88641
4.89558
4.91437
4.92399
4.92988
4.94148
4.96907
5.04083
5.2253
5.64412
6.8944
0.758328
0.653498
0.611402
0.584046
0.566442
0.55352
0.54362
0.535833
0.52942
0.5241
0.519468
0.515659
0.512024
0.509353
0.506229
0.505368
0.505649
0.506676
0.512847
0.52141
0.56757
0.628712
0.936457
1.55465
3.46287
4.86419
4.9385
4.91853
4.87803
4.87643
4.88195
4.89475
4.90105
4.90303
4.90727
4.92371
4.97799
5.13567
5.51253
6.70428
0.758338
0.653489
0.611399
0.584045
0.566439
0.553526
0.543616
0.535841
0.529414
0.524108
0.519463
0.515664
0.512022
0.509341
0.506246
0.505168
0.5054
0.507062
0.509897
0.526545
0.548367
0.658523
0.835773
1.56063
3.23283
4.84205
4.93492
4.91377
4.86814
4.86034
4.86308
4.87007
4.8725
4.87065
4.86522
4.87032
4.90582
5.03134
5.35224
6.4528
0.75834
0.653488
0.611398
0.584044
0.566439
0.553526
0.543615
0.535841
0.529414
0.524108
0.519464
0.515661
0.51203
0.509318
0.50627
0.505011
0.505213
0.506848
0.509405
0.525477
0.545766
0.649634
0.811597
1.48425
3.01365
4.81858
4.92791
4.90473
4.85255
4.83628
4.83601
4.83723
4.83599
4.82922
4.81262
4.80382
4.82052
4.90801
5.15109
6.10462
0.75834
0.653489
0.611398
0.584044
0.566439
0.553526
0.543616
0.53584
0.529416
0.524105
0.519469
0.515652
0.512045
0.509288
0.506307
0.504852
0.505026
0.506512
0.508871
0.523861
0.54283
0.638892
0.78671
1.40448
2.78881
4.78208
4.91617
4.88992
4.82966
4.80218
4.79704
4.79448
4.78865
4.77506
4.74768
4.72202
4.7167
4.75817
4.88844
5.59227
1.05253
1.04336
1.01973
0.992483
0.973643
0.957343
0.944609
0.933949
0.925082
0.917227
0.910859
0.904662
0.900156
0.894931
0.893996
0.894734
0.897398
0.909529
0.931671
1.01442
1.17822
1.68589
3.05711
6.67499
8.36365
8.34318
8.23181
8.09534
8.09898
8.13959
8.24709
8.39632
8.53146
8.68046
8.87591
9.15223
9.5346
10.1304
10.9903
12.2595
1.05252
1.04336
1.01973
0.992484
0.973641
0.957343
0.944608
0.933949
0.925081
0.917228
0.910859
0.904663
0.900154
0.894935
0.893946
0.894635
0.898602
0.906997
0.939049
0.999507
1.20501
1.64794
3.08204
6.66289
8.36465
8.34433
8.23218
8.09614
8.09985
8.14057
8.24809
8.39655
8.53132
8.68024
8.87569
9.15196
9.53414
10.1293
10.9842
12.2625
1.05252
1.04336
1.01973
0.992484
0.973641
0.957343
0.944608
0.933949
0.925081
0.917228
0.910859
0.904663
0.900155
0.894935
0.893945
0.894633
0.898597
0.906988
0.938994
0.999434
1.20454
1.64713
3.0795
6.65675
8.36492
8.34427
8.23145
8.09728
8.10134
8.14246
8.24995
8.39712
8.53106
8.67982
8.87526
9.15144
9.53316
10.1267
10.9745
12.255
1.05253
1.04336
1.01973
0.992483
0.973642
0.957342
0.944608
0.933949
0.925082
0.917228
0.910861
0.904661
0.900158
0.894929
0.893993
0.89473
0.897398
0.909464
0.931536
1.014
1.17719
1.68318
3.04981
6.65675
8.36445
8.34316
8.23021
8.0992
8.10378
8.14551
8.25278
8.39819
8.53083
8.67929
8.87466
9.15067
9.53159
10.1227
10.9628
12.2346
1.05253
1.04336
1.01973
0.992482
0.973642
0.957342
0.944608
0.933949
0.925083
0.917228
0.910862
0.90466
0.90016
0.894925
0.893998
0.894741
0.897473
0.909418
0.931667
1.01371
1.1764
1.68286
3.04053
6.64391
8.36328
8.3421
8.22958
8.10207
8.10725
8.14971
8.25674
8.39985
8.53067
8.67866
8.87382
9.14944
9.5291
10.117
10.9474
12.2124
1.05253
1.04336
1.01973
0.992482
0.973642
0.957342
0.944608
0.933949
0.925083
0.917228
0.910862
0.90466
0.900159
0.894923
0.893979
0.894713
0.897376
0.909387
0.931368
1.0135
1.17557
1.67864
3.03601
6.62428
8.36173
8.34116
8.22959
8.10569
8.11153
8.1549
8.26171
8.40196
8.53052
8.67783
8.87262
9.14756
9.52541
10.109
10.9288
12.1902
1.05252
1.04336
1.01973
0.992483
0.97364
0.957343
0.944607
0.933951
0.925082
0.917229
0.91086
0.904661
0.900155
0.894925
0.893927
0.894629
0.898502
0.906933
0.938542
0.99931
1.19929
1.64068
3.04946
6.58981
8.35931
8.34046
8.23084
8.11061
8.11712
8.16154
8.26812
8.40476
8.5307
8.67704
8.87111
9.14493
9.52029
10.0987
10.9063
12.171
1.05252
1.04336
1.01973
0.992484
0.97364
0.957344
0.944606
0.933952
0.925082
0.91723
0.910859
0.904663
0.900152
0.894923
0.893937
0.894654
0.898536
0.907133
0.938343
0.999749
1.19634
1.63699
3.03871
6.55903
8.35454
8.3378
8.23156
8.11591
8.1233
8.16904
8.27552
8.40786
8.53105
8.67619
8.86919
9.1414
9.51359
10.0858
10.8811
12.1495
1.05252
1.04336
1.01973
0.992485
0.97364
0.957345
0.944606
0.933952
0.925081
0.917231
0.910857
0.904665
0.900148
0.894926
0.893916
0.894616
0.898572
0.906798
0.938407
0.99825
1.19623
1.62908
3.02557
6.52054
8.3502
8.3357
8.23319
8.12218
8.13041
8.17749
8.28391
8.41152
8.53175
8.67537
8.86691
9.13704
9.50542
10.0709
10.8538
12.1265
1.05252
1.04336
1.01973
0.992485
0.97364
0.957345
0.944605
0.933953
0.92508
0.917233
0.910855
0.904668
0.900143
0.89493
0.893888
0.894582
0.898506
0.906676
0.938062
0.997462
1.19396
1.623
3.00765
6.47401
8.34618
8.33406
8.23543
8.12894
8.13806
8.18652
8.29301
8.41581
8.53272
8.67446
8.86411
9.13171
9.49573
10.054
10.8245
12.1027
1.05252
1.04336
1.01973
0.992485
0.97364
0.957345
0.944605
0.933953
0.925078
0.917234
0.910852
0.904672
0.900136
0.894935
0.893852
0.894548
0.898356
0.906759
0.937336
0.997406
1.18943
1.61873
2.9847
6.41898
8.34294
8.33318
8.2383
8.13595
8.14599
8.19583
8.3025
8.42066
8.53401
8.67337
8.86072
9.12533
9.48451
10.0353
10.7935
12.0776
1.05252
1.04336
1.01973
0.992485
0.973639
0.957345
0.944604
0.933954
0.925077
0.917237
0.910849
0.904677
0.900126
0.894943
0.893792
0.894466
0.898294
0.906293
0.937068
0.995267
1.18792
1.60726
2.9613
6.35179
8.34165
8.33421
8.24279
8.14358
8.15439
8.2054
8.31218
8.42607
8.53574
8.67215
8.85672
9.11787
9.47184
10.015
10.761
12.0525
1.05252
1.04336
1.01973
0.992484
0.973639
0.957346
0.944604
0.933956
0.925075
0.917239
0.910844
0.904683
0.900115
0.894953
0.893724
0.894382
0.898153
0.90602
0.936411
0.9938
1.18431
1.59689
2.93275
6.27328
8.3415
8.33668
8.24872
8.15166
8.16304
8.21497
8.32178
8.43183
8.53776
8.67073
8.85201
9.10924
9.4576
9.99308
10.7271
12.0281
1.05252
1.04336
1.01973
0.992484
0.973638
0.957346
0.944603
0.933957
0.925073
0.917242
0.91084
0.904689
0.900101
0.894965
0.893641
0.894282
0.89797
0.9057
0.935607
0.992117
1.17982
1.58578
2.89913
6.18278
8.34278
8.3408
8.25612
8.16014
8.1719
8.22445
8.33113
8.43782
8.53997
8.66906
8.84649
9.09933
9.4417
9.96941
10.6917
12.0047
1.05252
1.04336
1.01973
0.992484
0.973638
0.957346
0.944602
0.933958
0.925071
0.917245
0.910835
0.904696
0.900087
0.894976
0.893541
0.894157
0.897675
0.905367
0.934394
0.990692
1.1734
1.57681
2.85743
6.08003
8.34628
8.34728
8.26497
8.16894
8.18088
8.2338
8.34015
8.4439
8.54241
8.66712
8.84009
9.08804
9.42407
9.94402
10.655
11.9824
1.05253
1.04336
1.01973
0.992483
0.973639
0.957345
0.944602
0.933959
0.925069
0.917248
0.91083
0.904703
0.900074
0.894981
0.893484
0.894106
0.896503
0.907137
0.92707
1.00077
1.14662
1.5945
2.79115
5.96981
8.35134
8.35632
8.27455
8.17768
8.18972
8.24283
8.34861
8.44981
8.54489
8.66492
8.8327
9.0753
9.40462
9.91692
10.6171
11.9606
1.05253
1.04336
1.01973
0.992481
0.973639
0.957345
0.944601
0.933961
0.925066
0.917253
0.910823
0.904711
0.900057
0.894996
0.893394
0.893992
0.896328
0.906728
0.926204
0.998413
1.14037
1.57975
2.7407
5.83972
8.3587
8.36778
8.28549
8.18627
8.19828
8.25147
8.35639
8.45532
8.54711
8.66228
8.82434
9.06107
9.38336
9.88823
10.578
11.9389
1.05253
1.04336
1.01973
0.992483
0.973638
0.957346
0.944599
0.933963
0.925062
0.917257
0.910814
0.904723
0.900034
0.895018
0.893269
0.893842
0.896099
0.90622
0.925192
0.995682
1.13421
1.561
2.68906
5.69093
8.37091
8.38253
8.29818
8.19469
8.20648
8.25956
8.36346
8.46032
8.54893
8.6591
8.81499
9.04539
9.36031
9.85814
10.5381
11.9167
1.05253
1.04336
1.01973
0.992483
0.973636
0.957348
0.944596
0.933966
0.925057
0.917263
0.910805
0.904736
0.900008
0.895048
0.893113
0.893637
0.896784
0.903681
0.930199
0.981331
1.14764
1.5101
2.65348
5.51643
8.38885
8.40096
8.31257
8.20294
8.21429
8.26701
8.36977
8.46466
8.5502
8.6553
8.8046
9.02811
9.33534
9.82665
10.4976
11.895
1.05253
1.04336
1.01973
0.992483
0.973636
0.957348
0.944595
0.933967
0.925053
0.917267
0.910796
0.904748
0.899987
0.895068
0.893002
0.893493
0.896562
0.903197
0.928944
0.978517
1.13997
1.48945
2.59012
5.33279
8.4116
8.42138
8.32756
8.21096
8.22176
8.27398
8.37537
8.46826
8.55078
8.65088
8.79311
9.009
9.30809
9.79314
10.4555
11.8748
1.05253
1.04336
1.01973
0.992483
0.973636
0.957347
0.944594
0.933968
0.92505
0.917272
0.910789
0.904758
0.89997
0.895082
0.892931
0.893415
0.895381
0.904701
0.921771
0.986929
1.11134
1.4999
2.49772
5.14732
8.43741
8.44201
8.34149
8.21809
8.22842
8.28015
8.3799
8.47073
8.55035
8.64544
8.78029
8.98791
9.27835
9.75721
10.4113
11.8558
1.05253
1.04336
1.01973
0.992481
0.973636
0.957347
0.944593
0.93397
0.925047
0.917277
0.910781
0.904769
0.899951
0.895099
0.892824
0.893285
0.895201
0.904133
0.920752
0.983386
1.10329
1.47702
2.42683
4.94449
8.46479
8.46333
8.35464
8.22476
8.23453
8.2855
8.38329
8.47191
8.54867
8.63869
8.7659
8.96477
9.24598
9.71863
10.3646
11.8377
1.05253
1.04336
1.01973
0.992481
0.973636
0.957347
0.944591
0.933972
0.925043
0.917283
0.910773
0.904781
0.899929
0.895121
0.892691
0.893113
0.894821
0.903677
0.91911
0.9806
1.09372
1.45528
2.35568
4.73845
8.48364
8.4822
8.36742
8.2312
8.24009
8.28978
8.38526
8.47156
8.54526
8.63022
8.74955
8.93916
9.21058
9.67687
10.3145
11.8193
1.05253
1.04336
1.01973
0.99248
0.973634
0.957349
0.944589
0.933976
0.925038
0.91729
0.910763
0.904795
0.899904
0.895145
0.892564
0.892962
0.894718
0.902938
0.91835
0.976253
1.08676
1.42907
2.29198
4.54347
8.48116
8.49686
8.37885
8.23745
8.24509
8.29287
8.38564
8.46962
8.54002
8.61983
8.73104
8.9109
9.17203
9.63186
10.2603
11.7979
1.05253
1.04336
1.01972
0.992479
0.973633
0.95735
0.944587
0.93398
0.925034
0.917298
0.910753
0.904811
0.899878
0.89517
0.89243
0.892799
0.894451
0.902341
0.917074
0.972639
1.07865
1.40491
2.22984
4.35824
8.45531
8.50529
8.38872
8.24345
8.24945
8.29462
8.38441
8.46565
8.53278
8.60734
8.71026
8.87982
9.13022
9.58337
10.2016
11.7714
1.05253
1.04336
1.01972
0.992479
0.973632
0.95735
0.944585
0.933984
0.925029
0.917307
0.91074
0.904829
0.899846
0.8952
0.892283
0.892619
0.894174
0.901736
0.915877
0.969099
1.07089
1.38237
2.16964
4.20325
8.389
8.50518
8.39624
8.24889
8.253
8.2952
8.38111
8.45965
8.52327
8.5925
8.68711
8.8458
9.0851
9.53105
10.1382
11.7374
1.05253
1.04336
1.01972
0.99248
0.973632
0.957352
0.944583
0.933989
0.925023
0.917318
0.910726
0.90485
0.899809
0.895238
0.892118
0.892411
0.893806
0.901196
0.914203
0.966261
1.06195
1.36251
2.1104
4.0691
8.28956
8.49847
8.40066
8.25286
8.25518
8.29444
8.37584
8.45161
8.51141
8.57517
8.66137
8.80877
9.03643
9.47395
10.0695
11.6936
1.05253
1.04336
1.01972
0.992481
0.97363
0.957356
0.94458
0.933996
0.925016
0.91733
0.910708
0.904875
0.899768
0.895282
0.891964
0.892232
0.893623
0.900443
0.913341
0.961982
1.0553
1.33898
2.05512
3.93774
8.17811
8.48863
8.39985
8.25496
8.25563
8.29198
8.36875
8.44129
8.49697
8.55505
8.63285
8.76868
8.98445
9.41114
9.99429
11.6386
1.05253
1.04336
1.01972
0.992485
0.973628
0.957361
0.944577
0.934004
0.925008
0.917343
0.910688
0.904901
0.899723
0.895331
0.891798
0.89203
0.893353
0.899768
0.912151
0.958389
1.04699
1.32043
1.99485
3.81609
8.04973
8.47489
8.39517
8.25545
8.25433
8.28768
8.35963
8.4284
8.4797
8.53177
8.60113
8.72506
8.92918
9.34129
9.91128
11.5705
1.05252
1.04336
1.01972
0.992489
0.973626
0.957365
0.944573
0.934011
0.924999
0.917356
0.910669
0.904926
0.89968
0.895377
0.891631
0.891823
0.893025
0.899156
0.910642
0.9555
1.03798
1.30494
1.93426
3.70867
7.89396
8.45514
8.3858
8.25461
8.25101
8.2817
8.3486
8.41292
8.45934
8.50515
8.56594
8.67755
8.86963
9.26395
9.81922
11.4872
1.05252
1.04336
1.01973
0.992495
0.973623
0.957372
0.944567
0.93402
0.924989
0.917368
0.910651
0.904949
0.899642
0.895416
0.89149
0.891657
0.893201
0.897357
0.913466
0.944703
1.04669
1.26035
1.91777
3.56691
7.72655
8.42999
8.37156
8.25234
8.24558
8.27369
8.33544
8.39473
8.43571
8.47503
8.52702
8.6257
8.80449
9.17831
9.71594
11.3859
1.05251
1.04335
1.01973
0.992499
0.973621
0.957377
0.944564
0.934025
0.924981
0.917378
0.910636
0.904969
0.899611
0.895446
0.891361
0.891491
0.892904
0.896926
0.912186
0.9422
1.0395
1.24113
1.87636
3.44776
7.53985
8.40109
8.35323
8.24871
8.23828
8.26358
8.31984
8.3735
8.40877
8.44133
8.48434
8.56944
8.73303
9.08374
9.59968
11.2629
1.05251
1.04335
1.01972
0.992502
0.973619
0.95738
0.94456
0.93403
0.924975
0.917387
0.910624
0.904985
0.899583
0.895471
0.891219
0.891299
0.892546
0.896297
0.910784
0.938868
1.03299
1.22363
1.83104
3.33922
7.33192
8.36856
8.33235
8.24386
8.229
8.25106
8.30119
8.34885
8.37811
8.40359
8.43777
8.50841
8.65365
8.97841
9.4677
11.1146
1.05252
1.04335
1.01972
0.992501
0.97362
0.95738
0.94456
0.934031
0.924972
0.917392
0.910616
0.904997
0.899561
0.89549
0.891071
0.891034
0.891885
0.896703
0.905873
0.943151
1.00937
1.23768
1.74132
3.27167
7.09116
8.33187
8.31083
8.23857
8.21779
8.23601
8.27912
8.32043
8.34337
8.36153
8.38671
8.44195
8.56518
8.86041
9.31784
10.9357
1.05252
1.04335
1.01972
0.992499
0.97362
0.957379
0.94456
0.934033
0.92497
0.917397
0.91061
0.905006
0.899544
0.8955
0.890987
0.890795
0.891585
0.896101
0.904722
0.940326
1.00241
1.22304
1.69396
3.16321
6.83387
8.29179
8.28847
8.2326
8.2043
8.21814
8.25333
8.28772
8.30411
8.31475
8.32989
8.36829
8.46657
8.72789
9.14635
10.7188
1.05252
1.04336
1.01972
0.992497
0.973618
0.957378
0.944559
0.934034
0.924969
0.917399
0.910607
0.905012
0.899533
0.895506
0.890916
0.890672
0.891575
0.894636
0.907002
0.930872
1.01248
1.17562
1.70123
3.00076
6.5693
8.24632
8.26952
8.22262
8.18721
8.19678
8.2235
8.25013
8.2599
8.2633
8.26654
8.28644
8.35729
8.57978
8.94907
10.4523
1.05252
1.04336
1.01972
0.992492
0.973619
0.957375
0.94456
0.934033
0.92497
0.9174
0.910607
0.905013
0.899529
0.895498
0.89087
0.890436
0.891266
0.894131
0.905799
0.928238
1.0058
1.15932
1.65808
2.88282
6.27603
8.20237
8.25274
8.21113
8.16612
8.17083
8.18848
8.20686
8.20994
8.2063
8.19429
8.19604
8.23583
8.41385
8.71981
10.1206
1.05253
1.04336
1.01972
0.992483
0.973625
0.957366
0.944567
0.934026
0.924977
0.917394
0.910613
0.905005
0.899534
0.895476
0.890843
0.890119
0.890777
0.894459
0.902176
0.931408
0.985838
1.17101
1.56304
2.81435
5.93256
8.16357
8.23898
8.19843
8.14083
8.13831
8.14714
8.15692
8.15467
8.14295
8.11382
8.09198
8.10233
8.22889
8.44935
9.69563
1.05253
1.04336
1.01972
0.992481
0.973627
0.957364
0.944569
0.934023
0.92498
0.91739
0.910619
0.904998
0.899543
0.89545
0.890825
0.889869
0.890477
0.893935
0.901098
0.928738
0.980302
1.15293
1.5173
2.68502
5.57226
8.12753
8.2261
8.18298
8.11051
8.09645
8.09847
8.09943
8.09253
8.07109
8.02408
7.97815
7.94966
8.02258
8.12653
9.13417
1.05253
1.04336
1.01972
0.992482
0.973628
0.957363
0.94457
0.93402
0.924982
0.917385
0.910625
0.904987
0.899557
0.895413
0.890845
0.889582
0.890131
0.893295
0.900001
0.925735
0.974018
1.13455
1.47212
2.54707
5.19607
8.09168
8.21624
8.16627
8.07488
8.04508
8.03994
8.03491
8.02123
7.98943
7.9257
7.8566
7.78214
7.78855
7.73498
8.35673
1.06613
1.10994
1.11434
1.11126
1.10353
1.09289
1.08436
1.07614
1.0689
1.06231
1.05678
1.05125
1.04707
1.04257
1.04261
1.04386
1.04741
1.06476
1.0923
1.20453
1.40802
2.08848
3.84771
8.70027
10.2156
10.1373
9.91497
9.78769
9.81098
9.89494
10.0624
10.2273
10.3755
10.5462
10.7675
11.0728
11.4792
12.0628
12.7901
13.6544
1.06612
1.10995
1.11434
1.11126
1.10353
1.09289
1.08436
1.07614
1.0689
1.06231
1.05678
1.05126
1.04706
1.04257
1.04257
1.04372
1.04882
1.06073
1.10232
1.1834
1.44212
2.04209
3.8803
8.68754
10.2146
10.1366
9.91431
9.78882
9.81224
9.89631
10.0632
10.2274
10.3754
10.5459
10.7671
11.0722
11.478
12.0601
12.7815
13.6498
1.06612
1.10995
1.11434
1.11126
1.10353
1.09289
1.08436
1.07614
1.0689
1.06231
1.05678
1.05126
1.04706
1.04256
1.04257
1.04371
1.04881
1.06072
1.10224
1.18331
1.44155
2.04111
3.87707
8.6797
10.212
10.1337
9.91174
9.79037
9.81425
9.89897
10.0647
10.2277
10.375
10.5454
10.7664
11.0711
11.4759
12.0546
12.7665
13.6386
1.06613
1.10995
1.11434
1.11126
1.10353
1.09289
1.08436
1.07614
1.0689
1.06231
1.05678
1.05125
1.04707
1.04257
1.0426
1.04386
1.04744
1.06463
1.0923
1.20367
1.40732
2.08426
3.83915
8.67633
10.208
10.1292
9.90817
9.79267
9.81727
9.90312
10.0671
10.2283
10.3748
10.5448
10.7654
11.0696
11.4727
12.0463
12.7468
13.6214
1.06613
1.10995
1.11434
1.11126
1.10353
1.09289
1.08436
1.07614
1.0689
1.06231
1.05678
1.05125
1.04707
1.04256
1.04259
1.04389
1.0479
1.06388
1.09506
1.1981
1.41501
2.07307
3.83435
8.65845
10.202
10.1235
9.90454
9.7955
9.82099
9.90839
10.0703
10.2291
10.3743
10.5438
10.7639
11.0669
11.4675
12.0342
12.7216
13.6015
1.06612
1.10995
1.11434
1.11126
1.10353
1.09289
1.08436
1.07614
1.0689
1.06231
1.05678
1.05125
1.04707
1.04255
1.04258
1.0438
1.04743
1.06442
1.09217
1.20278
1.40602
2.07788
3.82401
8.63423
10.1945
10.117
9.90103
9.7986
9.82514
9.91447
10.074
10.23
10.3737
10.5424
10.7615
11.0629
11.4599
12.0184
12.6917
13.5783
1.06612
1.10995
1.11433
1.11126
1.10353
1.09289
1.08436
1.07614
1.0689
1.06231
1.05678
1.05125
1.04707
1.04255
1.04249
1.0435
1.04922
1.0594
1.10399
1.17899
1.44437
2.02028
3.84978
8.59174
10.1851
10.1099
9.89817
9.80227
9.82988
9.92132
10.0784
10.2311
10.3731
10.5405
10.7582
11.0573
11.4495
11.9989
12.6572
13.5527
1.06612
1.10995
1.11433
1.11126
1.10353
1.09289
1.08436
1.07615
1.0689
1.06232
1.05678
1.05125
1.04706
1.04254
1.04252
1.04359
1.04916
1.06073
1.1018
1.18382
1.43364
2.02528
3.83124
8.55399
10.173
10.1003
9.89437
9.80576
9.83466
9.92853
10.0834
10.2322
10.3721
10.5381
10.7539
11.05