/*--------------------------------*- C++ -*----------------------------------*\
  =========                 |
  \\      /  F ield         | OpenFOAM: The Open Source CFD Toolbox
   \\    /   O peration     | Website:  https://openfoam.org
    \\  /    A nd           | Version:  6.0
     \\/     M anipulation  |
\*---------------------------------------------------------------------------*/
FoamFile
{
    version     2.0;
    format      ascii;
    class       surfaceScalarField;
    location    "4";
    object      phi;
}
// * * * * * * * * * * * * * * * * * * * * * * * * * * * * * * * * * * * * * //

dimensions      [1 0 -1 0 0 0 0];

internalField   nonuniform List<scalar> 
9440
(
0.00209995
-8.16708e-17
0.00209995
-4.91958e-16
0.00209995
-1.57446e-15
0.00209995
-4.03301e-15
0.00209995
-9.31415e-15
0.00209995
-2.03799e-14
0.00209995
-4.3308e-14
0.00209995
-9.05875e-14
0.00209995
-1.87897e-13
0.00209995
-3.88022e-13
0.00209995
-7.99467e-13
0.00209995
-1.64519e-12
0.00209995
-3.38324e-12
0.00209995
-6.95501e-12
0.00209995
-1.42954e-11
0.00209995
-2.93819e-11
0.00209995
-6.03949e-11
0.00209995
-1.24172e-10
0.00209995
-2.5542e-10
0.00209995
-5.25873e-10
0.00209996
-1.08461e-09
0.00209996
-2.24486e-09
0.00209996
-4.67895e-09
0.00209997
-9.88866e-09
0.00209999
-2.14688e-08
0.00210003
-4.90284e-08
0.00210017
-1.21431e-07
0.00210016
-3.94602e-07
0.0021038
-1.99365e-06
0.00204935
3.08858e-05
0.00195113
8.3057e-05
0.00182606
0.000114011
0.00166616
0.000150935
0.00146873
0.000189339
0.00120409
0.000257023
0.000849091
0.000347811
-0.000111415
0.000954293
-7.23192e-05
-4.58015e-05
-0.000504192
0.00041767
-0.000510275
0.00209995
-1.59582e-16
0.00209995
-9.65713e-16
0.00209995
-3.09312e-15
0.00209995
-7.91949e-15
0.00209995
-1.82589e-14
0.00209995
-3.98886e-14
0.00209995
-8.46884e-14
0.00209995
-1.77074e-13
0.00209995
-3.67131e-13
0.00209995
-7.5764e-13
0.00209995
-1.5597e-12
0.00209995
-3.20681e-12
0.00209995
-6.58881e-12
0.00209995
-1.3532e-11
0.00209995
-2.77847e-11
0.00209995
-5.70433e-11
0.00209995
-1.17114e-10
0.00209995
-2.40477e-10
0.00209995
-4.93954e-10
0.00209995
-1.01538e-09
0.00209996
-2.09059e-09
0.00209996
-4.31864e-09
0.00209996
-8.98157e-09
0.00209997
-1.89322e-08
0.00209999
-4.0964e-08
0.00210003
-9.30953e-08
0.00210015
-2.2842e-07
0.00210009
-7.3939e-07
0.00210371
-3.95395e-06
0.0020414
6.96733e-05
0.0019415
0.000167844
0.00181196
0.000232574
0.00164815
0.000305813
0.00144605
0.000383397
0.00118945
0.000506067
0.000888298
0.000641868
0.000907082
0.000929229
0.000371509
0.000483632
1.13853e-05
0.000771592
-0.000492384
0.00209995
-2.34661e-16
0.00209995
-1.41332e-15
0.00209995
-4.51389e-15
0.00209995
-1.15338e-14
0.00209995
-2.65777e-14
0.00209995
-5.80576e-14
0.00209995
-1.23209e-13
0.00209995
-2.57411e-13
0.00209995
-5.33309e-13
0.00209995
-1.09989e-12
0.00209995
-2.26269e-12
0.00209995
-4.64851e-12
0.00209995
-9.54321e-12
0.00209995
-1.95838e-11
0.00209995
-4.01778e-11
0.00209995
-8.24172e-11
0.00209995
-1.69057e-10
0.00209995
-3.46807e-10
0.00209995
-7.11659e-10
0.00209995
-1.4614e-09
0.00209996
-3.00567e-09
0.00209996
-6.20188e-09
0.00209996
-1.28821e-08
0.00209997
-2.71159e-08
0.00209998
-5.85734e-08
0.00210002
-1.32825e-07
0.00210013
-3.246e-07
0.00210005
-1.05366e-06
0.0021036
-5.83584e-06
0.00203542
0.000114469
0.00193263
0.000255636
0.00179939
0.000354844
0.00163213
0.00046424
0.00142892
0.000578746
0.00118939
0.000738308
0.00092445
0.000899874
0.000831664
0.00101589
0.000421901
0.000886607
0.000450701
0.000736733
-4.71104e-05
0.00209995
-2.99933e-16
0.00209995
-1.81628e-15
0.00209995
-5.81055e-15
0.00209995
-1.48576e-14
0.00209995
-3.42235e-14
0.00209995
-7.47082e-14
0.00209995
-1.58462e-13
0.00209995
-3.3089e-13
0.00209995
-6.85109e-13
0.00209995
-1.41208e-12
0.00209995
-2.90333e-12
0.00209995
-5.96137e-12
0.00209995
-1.2231e-11
0.00209995
-2.50834e-11
0.00209995
-5.14284e-11
0.00209995
-1.05429e-10
0.00209995
-2.16122e-10
0.00209995
-4.43068e-10
0.00209995
-9.08587e-10
0.00209995
-1.86451e-09
0.00209996
-3.83201e-09
0.00209996
-7.90099e-09
0.00209996
-1.63981e-08
0.00209997
-3.44863e-08
0.00209998
-7.44166e-08
0.00210002
-1.68528e-07
0.00210012
-4.1082e-07
0.00210002
-1.33905e-06
0.00210351
-7.63626e-06
0.00203079
0.000163995
0.00192488
0.000346689
0.00178786
0.000480972
0.00161867
0.000624771
0.00141539
0.000774431
0.00118519
0.000961556
0.000930148
0.00114826
0.000720591
0.00121946
0.000450274
0.00115067
0.000462234
0.00071627
0.000406408
0.00209995
-3.62347e-16
0.00209995
-2.18517e-15
0.00209995
-6.98628e-15
0.00209995
-1.786e-14
0.00209995
-4.11353e-14
0.00209995
-8.97833e-14
0.00209995
-1.90407e-13
0.00209995
-3.97538e-13
0.00209995
-8.22929e-13
0.00209995
-1.69565e-12
0.00209995
-3.48515e-12
0.00209995
-7.15332e-12
0.00209995
-1.4671e-11
0.00209995
-3.00762e-11
0.00209995
-6.16424e-11
0.00209995
-1.2632e-10
0.00209995
-2.58844e-10
0.00209995
-5.30431e-10
0.00209995
-1.08727e-09
0.00209995
-2.23021e-09
0.00209996
-4.5815e-09
0.00209996
-9.44171e-09
0.00209996
-1.95855e-08
0.00209997
-4.11662e-08
0.00209998
-8.87727e-08
0.00210002
-2.00878e-07
0.00210012
-4.88891e-07
0.0021
-1.6009e-06
0.00210345
-9.35857e-06
0.00202714
0.000217351
0.00191772
0.000441434
0.00177748
0.000610474
0.00160627
0.000787572
0.00140402
0.000969455
0.00117843
0.00118057
0.000932409
0.00138799
0.000698455
0.00144786
0.000312265
0.0015306
0.000221097
0.0008011
0.000625479
0.00209995
-4.16222e-16
0.00209995
-2.5176e-15
0.00209995
-8.05019e-15
0.00209995
-2.05742e-14
0.00209995
-4.7384e-14
0.00209995
-1.03423e-13
0.00209995
-2.19325e-13
0.00209995
-4.57894e-13
0.00209995
-9.47847e-13
0.00209995
-1.95292e-12
0.00209995
-4.01352e-12
0.00209995
-8.23684e-12
0.00209995
-1.68908e-11
0.00209995
-3.46207e-11
0.00209995
-7.09413e-11
0.00209995
-1.45342e-10
0.00209995
-2.9775e-10
0.00209995
-6.10004e-10
0.00209995
-1.25004e-09
0.00209995
-2.56332e-09
0.00209996
-5.26419e-09
0.00209996
-1.08452e-08
0.00209996
-2.24895e-08
0.00209997
-4.72532e-08
0.00209999
-1.01858e-07
0.00210002
-2.30371e-07
0.00210012
-5.60043e-07
0.00209999
-1.84266e-06
0.0021034
-1.10125e-05
0.00202426
0.00027382
0.00191111
0.000540129
0.00176786
0.000743233
0.00159489
0.000952457
0.00139429
0.0011633
0.00117271
0.00139605
0.000938564
0.00161635
0.000711168
0.0016703
0.000519225
0.00171633
-0.000635273
0.00195833
6.14005e-06
0.00209995
-4.6656e-16
0.00209995
-2.81509e-15
0.00209995
-8.99688e-15
0.00209995
-2.30019e-14
0.00209995
-5.29945e-14
0.00209995
-1.15707e-13
0.00209995
-2.45438e-13
0.00209995
-5.12484e-13
0.00209995
-1.06091e-12
0.00209995
-2.18594e-12
0.00209995
-4.49236e-12
0.00209995
-9.21913e-12
0.00209995
-1.8904e-11
0.00209995
-3.87443e-11
0.00209995
-7.93836e-11
0.00209995
-1.6262e-10
0.00209995
-3.33108e-10
0.00209995
-6.82366e-10
0.00209995
-1.39817e-09
0.00209995
-2.86677e-09
0.00209996
-5.88676e-09
0.00209996
-1.21265e-08
0.00209996
-2.51436e-08
0.00209997
-5.28225e-08
0.00209999
-1.1384e-07
0.00210002
-2.57396e-07
0.00210013
-6.25206e-07
0.00209998
-2.06679e-06
0.00210338
-1.26058e-05
0.0020219
0.000332954
0.00190498
0.000642809
0.00175886
0.000879176
0.00158443
0.0011192
0.00138578
0.00135566
0.00116846
0.00160779
0.000947743
0.00183188
0.000738232
0.00187543
0.000535928
0.0019125
0.000528553
0.0019686
0.000549271
0.00209995
-5.10704e-16
0.00209995
-3.0824e-15
0.00209995
-9.84776e-15
0.00209995
-2.51688e-14
0.00209995
-5.79852e-14
0.00209995
-1.2663e-13
0.00209995
-2.68672e-13
0.00209995
-5.6112e-13
0.00209995
-1.16182e-12
0.00209995
-2.39419e-12
0.00209995
-4.92077e-12
0.00209995
-1.0099e-11
0.00209995
-2.07096e-11
0.00209995
-4.24484e-11
0.00209995
-8.69812e-11
0.00209995
-1.78204e-10
0.00209995
-3.65072e-10
0.00209995
-7.47937e-10
0.00209995
-1.53274e-09
0.00209995
-3.14314e-09
0.00209996
-6.45524e-09
0.00209996
-1.32995e-08
0.00209996
-2.75793e-08
0.00209997
-5.7945e-08
0.00209999
-1.24884e-07
0.00210003
-2.82353e-07
0.00210013
-6.85481e-07
0.00209999
-2.27637e-06
0.00210336
-1.41324e-05
0.0020196
0.000394744
0.00189966
0.000748763
0.00175
0.00101902
0.00157495
0.00128698
0.00137794
0.00154687
0.00116475
0.00181605
0.000957404
0.00203462
0.000758088
0.00207091
0.00058303
0.00208234
0.00050218
0.00204917
0.00106069
0.00209995
-5.48862e-16
0.00209995
-3.31084e-15
0.00209995
-1.05779e-14
0.00209995
-2.70451e-14
0.00209995
-6.23259e-14
0.00209995
-1.36132e-13
0.00209995
-2.88888e-13
0.00209995
-6.03463e-13
0.00209995
-1.24973e-12
0.00209995
-2.57595e-12
0.00209995
-5.29586e-12
0.00209995
-1.0872e-11
0.00209995
-2.23013e-11
0.00209995
-4.57248e-11
0.00209995
-9.37253e-11
0.00209995
-1.92085e-10
0.00209995
-3.93636e-10
0.00209995
-8.06709e-10
0.00209995
-1.65367e-09
0.00209995
-3.39212e-09
0.00209996
-6.96843e-09
0.00209996
-1.43603e-08
0.00209996
-2.97854e-08
0.00209997
-6.25903e-08
0.00209999
-1.34908e-07
0.00210003
-3.05016e-07
0.00210014
-7.40147e-07
0.00209999
-2.46893e-06
0.00210335
-1.55944e-05
0.00201784
0.000458705
0.00189404
0.000858894
0.0017421
0.00116154
0.00156569
0.00145656
0.00136965
0.00173763
0.00116073
0.00202065
0.000966452
0.00222486
0.000758239
0.00227577
0.000584107
0.00225163
0.000429002
0.00220268
0.00149738
0.00209995
-5.80852e-16
0.00209995
-3.5056e-15
0.00209995
-1.11984e-14
0.00209995
-2.86269e-14
0.00209995
-6.59897e-14
0.00209995
-1.44202e-13
0.00209995
-3.06147e-13
0.00209995
-6.39767e-13
0.00209995
-1.32543e-12
0.00209995
-2.73294e-12
0.00209995
-5.62057e-12
0.00209995
-1.15431e-11
0.00209995
-2.36875e-11
0.00209995
-4.85865e-11
0.00209995
-9.96291e-11
0.00209995
-2.04261e-10
0.00209995
-4.1875e-10
0.00209995
-8.58507e-10
0.00209995
-1.76053e-09
0.00209995
-3.61265e-09
0.00209996
-7.42425e-09
0.00209996
-1.53053e-08
0.00209996
-3.17573e-08
0.00209997
-6.67574e-08
0.0021
-1.43935e-07
0.00210004
-3.25513e-07
0.00210015
-7.89854e-07
0.0021
-2.64642e-06
0.00210332
-1.69632e-05
0.00201541
0.000525538
0.00188965
0.000971314
0.00173355
0.00130858
0.00155717
0.00162656
0.00136162
0.00192838
0.00115419
0.00222415
0.000971308
0.00240414
0.000743809
0.00250043
0.000566339
0.00242527
0.000421353
0.00234455
0.00192451
0.00209995
-6.05804e-16
0.00209995
-3.65948e-15
0.00209995
-1.17015e-14
0.00209995
-2.99456e-14
0.00209995
-6.90817e-14
0.00209995
-1.51037e-13
0.00209995
-3.20796e-13
0.00209995
-6.70629e-13
0.00209995
-1.38979e-12
0.00209995
-2.86647e-12
0.00209995
-5.89668e-12
0.00209995
-1.21126e-11
0.00209995
-2.48614e-11
0.00209995
-5.10063e-11
0.00209995
-1.0462e-10
0.00209995
-2.14556e-10
0.00209995
-4.39993e-10
0.00209995
-9.02362e-10
0.00209995
-1.85112e-09
0.00209995
-3.79998e-09
0.00209996
-7.81226e-09
0.00209996
-1.61115e-08
0.00209996
-3.3443e-08
0.00209998
-7.03272e-08
0.0021
-1.51683e-07
0.00210005
-3.43135e-07
0.00210016
-8.32532e-07
0.0021
-2.80234e-06
0.00210328
-1.82395e-05
0.00201378
0.000594464
0.00188467
0.00108737
0.00172559
0.00145907
0.0015485
0.00179771
0.00135371
0.00211895
0.00114602
0.00242833
0.000952853
0.00259404
0.000743792
0.00270681
0.000541617
0.00262437
0.000406899
0.00247477
0.00233779
0.00209995
-6.28895e-16
0.00209995
-3.79283e-15
0.00209995
-1.21265e-14
0.00209995
-3.10411e-14
0.00209995
-7.16397e-14
0.00209995
-1.56695e-13
0.00209995
-3.32908e-13
0.00209995
-6.96088e-13
0.00209995
-1.44274e-12
0.00209995
-2.97595e-12
0.00209995
-6.12258e-12
0.00209995
-1.25787e-11
0.00209995
-2.58229e-11
0.00209995
-5.29897e-11
0.00209995
-1.08712e-10
0.00209995
-2.23007e-10
0.00209995
-4.57453e-10
0.00209995
-9.38455e-10
0.00209995
-1.92578e-09
0.00209995
-3.95461e-09
0.00209996
-8.13306e-09
0.00209996
-1.67793e-08
0.00209997
-3.48424e-08
0.00209998
-7.3298e-08
0.0021
-1.58149e-07
0.00210005
-3.57891e-07
0.00210017
-8.68346e-07
0.0021
-2.93714e-06
0.00210323
-1.94047e-05
0.00201205
0.000665568
0.00187948
0.00120728
0.00171732
0.00161303
0.00154001
0.00196962
0.00134493
0.00231018
0.00113848
0.00263176
0.000942043
0.00278739
0.000734886
0.00291132
0.000522799
0.00283137
0.000398834
0.00259689
0.00274618
0.00209995
-6.43001e-16
0.00209995
-3.88697e-15
0.00209995
-1.24393e-14
0.00209995
-3.18669e-14
0.00209995
-7.35923e-14
0.00209995
-1.61041e-13
0.00209995
-3.42273e-13
0.00209995
-7.15845e-13
0.00209995
-1.48396e-12
0.00209995
-3.06151e-12
0.00209995
-6.29969e-12
0.00209995
-1.29446e-11
0.00209995
-2.65782e-11
0.00209995
-5.455e-11
0.00209995
-1.11938e-10
0.00209995
-2.29677e-10
0.00209995
-4.71263e-10
0.00209995
-9.67079e-10
0.00209995
-1.98519e-09
0.00209995
-4.07809e-09
0.00209996
-8.39031e-09
0.00209996
-1.73173e-08
0.00209997
-3.59754e-08
0.00209998
-7.5716e-08
0.0021
-1.63443e-07
0.00210005
-3.70067e-07
0.00210018
-8.98232e-07
0.00210001
-3.05231e-06
0.00210312
-2.04085e-05
0.002009
0.00074016
0.00187529
0.00132883
0.00170753
0.00177285
0.00153507
0.00213697
0.00133358
0.00250832
0.00113106
0.00283156
0.000931687
0.0029837
0.000724485
0.00311577
0.000491111
0.00305776
0.000399808
0.00269093
0.00315672
0.00209995
-6.5344e-16
0.00209995
-3.94985e-15
0.00209995
-1.26536e-14
0.00209995
-3.244e-14
0.00209995
-7.49482e-14
0.00209995
-1.64051e-13
0.00209995
-3.48728e-13
0.00209995
-7.29488e-13
0.00209995
-1.51252e-12
0.00209995
-3.12081e-12
0.00209995
-6.42238e-12
0.00209995
-1.31986e-11
0.00209995
-2.71048e-11
0.00209995
-5.56424e-11
0.00209995
-1.14206e-10
0.00209995
-2.34391e-10
0.00209995
-4.81066e-10
0.00209995
-9.87479e-10
0.00209995
-2.02767e-09
0.00209995
-4.16663e-09
0.00209996
-8.57516e-09
0.00209996
-1.77045e-08
0.00209997
-3.6792e-08
0.00209998
-7.74622e-08
0.00210001
-1.67279e-07
0.00210006
-3.78947e-07
0.00210018
-9.20132e-07
0.0021
-3.14168e-06
0.00210298
-2.12427e-05
0.00200614
0.000817976
0.00187125
0.00145171
0.00169882
0.00193781
0.00152557
0.00230538
0.00132765
0.00270375
0.00112432
0.00303231
0.000923898
0.00318107
0.000718629
0.00331858
0.000478921
0.00328916
0.00037642
0.00280031
0.00354564
0.00209995
-6.58672e-16
0.00209995
-3.97774e-15
0.00209995
-1.27447e-14
0.00209995
-3.26847e-14
0.00209995
-7.55466e-14
0.00209995
-1.65432e-13
0.00209995
-3.51772e-13
0.00209995
-7.35992e-13
0.00209995
-1.52627e-12
0.00209995
-3.14986e-12
0.00209995
-6.4836e-12
0.00209995
-1.33272e-11
0.00209995
-2.73746e-11
0.00209995
-5.62081e-11
0.00209995
-1.15392e-10
0.00209995
-2.36879e-10
0.00209995
-4.86288e-10
0.00209995
-9.98455e-10
0.00209995
-2.05078e-09
0.00209995
-4.21538e-09
0.00209996
-8.67838e-09
0.00209996
-1.79243e-08
0.00209997
-3.72648e-08
0.00209998
-7.84973e-08
0.00210001
-1.69616e-07
0.00210006
-3.8452e-07
0.00210017
-9.3411e-07
0.00209998
-3.20887e-06
0.00210289
-2.19895e-05
0.002006
0.00089614
0.0018612
0.00158456
0.00169582
0.00209631
0.00151099
0.00248582
0.00132379
0.00288861
0.00111837
0.00323582
0.000919354
0.00337731
0.0007168
0.00351902
0.000488029
0.00350877
0.000321332
0.00297935
0.00388214
0.00209995
-6.51914e-16
0.00209995
-3.95134e-15
0.00209995
-1.26775e-14
0.00209995
-3.25435e-14
0.00209995
-7.52604e-14
0.00209995
-1.64852e-13
0.00209995
-3.50628e-13
0.00209995
-7.33781e-13
0.00209995
-1.522e-12
0.00209995
-3.14167e-12
0.00209995
-6.46829e-12
0.00209995
-1.32995e-11
0.00209995
-2.7326e-11
0.00209995
-5.61263e-11
0.00209995
-1.15265e-10
0.00209995
-2.3671e-10
0.00209995
-4.86149e-10
0.00209995
-9.98639e-10
0.00209995
-2.05222e-09
0.00209995
-4.22076e-09
0.00209996
-8.69494e-09
0.00209996
-1.79709e-08
0.00209997
-3.73893e-08
0.00209998
-7.88209e-08
0.0021
-1.70454e-07
0.00210005
-3.86776e-07
0.00210016
-9.40227e-07
0.00209995
-3.25387e-06
0.00210278
-2.26379e-05
0.00200429
0.000976276
0.00184911
0.00172809
0.00168937
0.00224964
0.00150417
0.00266716
0.00131507
0.00307565
0.0011133
0.00343588
0.00091474
0.00357362
0.000716046
0.00371636
0.000496249
0.00372033
0.000277084
0.00320986
0.00417812
0.00209995
-6.39703e-16
0.00209995
-3.87018e-15
0.00209995
-1.2416e-14
0.00209995
-3.18754e-14
0.00209995
-7.37376e-14
0.00209995
-1.61572e-13
0.00209995
-3.43745e-13
0.00209995
-7.19575e-13
0.00209995
-1.49304e-12
0.00209995
-3.0831e-12
0.00209995
-6.35036e-12
0.00209995
-1.30626e-11
0.00209995
-2.68516e-11
0.00209995
-5.51786e-11
0.00209995
-1.13375e-10
0.00209995
-2.32949e-10
0.00209995
-4.78675e-10
0.00209995
-9.83821e-10
0.00209995
-2.02292e-09
0.00209995
-4.16298e-09
0.00209996
-8.58133e-09
0.00209996
-1.77482e-08
0.00209996
-3.69537e-08
0.00209998
-7.79684e-08
0.0021
-1.68773e-07
0.00210004
-3.8341e-07
0.00210013
-9.32948e-07
0.00209988
-3.25623e-06
0.00210247
-2.30245e-05
0.00200075
0.00105988
0.00184735
0.0018702
0.00168389
0.00240718
0.00149927
0.00284818
0.00130646
0.00326657
0.00110718
0.00363359
0.000910688
0.00376865
0.000711597
0.00391485
0.000485932
0.00393818
0.000239052
0.00346554
0.00443599
0.00209995
-6.11801e-16
0.00209995
-3.7004e-15
0.00209995
-1.18726e-14
0.00209995
-3.04875e-14
0.00209995
-7.0532e-14
0.00209995
-1.54562e-13
0.00209995
-3.28907e-13
0.00209995
-6.88778e-13
0.00209995
-1.42988e-12
0.00209995
-2.95446e-12
0.00209995
-6.08928e-12
0.00209995
-1.25339e-11
0.00209995
-2.57828e-11
0.00209995
-5.30207e-11
0.00209995
-1.09022e-10
0.00209995
-2.24176e-10
0.00209995
-4.61006e-10
0.00209995
-9.48234e-10
0.00209995
-1.95123e-09
0.00209995
-4.01852e-09
0.00209996
-8.28987e-09
0.00209996
-1.71585e-08
0.00209996
-3.57535e-08
0.00209997
-7.54959e-08
0.00209999
-1.6356e-07
0.00210002
-3.71952e-07
0.00210009
-9.05618e-07
0.00209978
-3.19533e-06
0.00210202
-2.30608e-05
0.00199851
0.00114557
0.00184565
0.00201198
0.0016778
0.0025692
0.001491
0.00303153
0.00130095
0.00345498
0.00110181
0.00383143
0.000905632
0.00396437
0.000708743
0.00411233
0.000479993
0.00416081
0.000211471
0.00374163
0.00466553
0.00209995
-5.62383e-16
0.00209995
-3.40488e-15
0.00209995
-1.09311e-14
0.00209995
-2.80835e-14
0.00209995
-6.50034e-14
0.00209995
-1.42528e-13
0.00209995
-3.03507e-13
0.00209995
-6.36073e-13
0.00209995
-1.32155e-12
0.00209995
-2.73299e-12
0.00209995
-5.63815e-12
0.00209995
-1.1617e-11
0.00209995
-2.39214e-11
0.00209995
-4.9245e-11
0.00209995
-1.01367e-10
0.00209995
-2.08658e-10
0.00209995
-4.29556e-10
0.00209995
-8.84509e-10
0.00209995
-1.82209e-09
0.00209995
-3.75664e-09
0.00209995
-7.75796e-09
0.00209996
-1.60745e-08
0.00209996
-3.35297e-08
0.00209997
-7.08738e-08
0.00209998
-1.53707e-07
0.0021
-3.49957e-07
0.00210004
-8.52343e-07
0.00209965
-3.0559e-06
0.0021015
-2.27205e-05
0.00199671
0.00123274
0.00184164
0.00215616
0.00167092
0.00273432
0.00148598
0.00321313
0.0012921
0.00364709
0.00109687
0.00402529
0.000901611
0.00415954
0.000703002
0.00431205
0.000478095
0.00437935
0.000203208
0.00402719
0.00489004
0.00209995
-4.89308e-16
0.00209995
-2.96385e-15
0.00209995
-9.51084e-15
0.00209995
-2.44253e-14
0.00209995
-5.65412e-14
0.00209995
-1.24053e-13
0.00209995
-2.64426e-13
0.00209995
-5.54839e-13
0.00209995
-1.15434e-12
0.00209995
-2.39083e-12
0.00209995
-4.94034e-12
0.00209995
-1.01966e-11
0.00209995
-2.10333e-11
0.00209995
-4.33755e-11
0.00209995
-8.94416e-11
0.00209995
-1.84432e-10
0.00209995
-3.80341e-10
0.00209995
-7.84511e-10
0.00209995
-1.61883e-09
0.00209995
-3.34315e-09
0.00209995
-6.91547e-09
0.00209995
-1.43524e-08
0.00209996
-2.99864e-08
0.00209996
-6.3488e-08
0.00209997
-1.37919e-07
0.00209997
-3.14612e-07
0.00209997
-7.66722e-07
0.00209949
-2.82013e-06
0.00210083
-2.18904e-05
0.00199293
0.00132327
0.00183742
0.00230102
0.00166424
0.0029018
0.00147796
0.00339604
0.00128746
0.00383592
0.00109273
0.00421863
0.000898476
0.00435372
0.000701046
0.00451095
0.000479428
0.00459458
0.000201351
0.00432012
0.00512
0.00209995
-3.86597e-16
0.00209995
-2.32839e-15
0.00209995
-7.45721e-15
0.00209995
-1.91493e-14
0.00209995
-4.43596e-14
0.00209995
-9.74324e-14
0.00209995
-2.08014e-13
0.00209995
-4.37394e-13
0.00209995
-9.12309e-13
0.00209995
-1.89484e-12
0.00209995
-3.92701e-12
0.00209995
-8.12991e-12
0.00209995
-1.68224e-11
0.00209995
-3.48006e-11
0.00209995
-7.19843e-11
0.00209995
-1.48894e-10
0.00209995
-3.0799e-10
0.00209995
-6.37177e-10
0.00209995
-1.31866e-09
0.00209995
-2.73106e-09
0.00209995
-5.66521e-09
0.00209995
-1.179e-08
0.00209995
-2.46993e-08
0.00209995
-5.2434e-08
0.00209995
-1.14212e-07
0.00209993
-2.61327e-07
0.00209989
-6.37061e-07
0.00209928
-2.4561e-06
0.00210007
-2.05163e-05
0.00199081
0.00141546
0.00183241
0.00244882
0.00165693
0.00307185
0.0014711
0.00357856
0.00127982
0.00402556
0.0010902
0.00440656
0.000896177
0.00454734
0.000696074
0.00471216
0.000478072
0.00480688
0.000199431
0.00461651
0.00535598
0.00209995
-2.36899e-16
0.00209995
-1.43154e-15
0.00209995
-4.58132e-15
0.00209995
-1.17719e-14
0.00209995
-2.733e-14
0.00209995
-6.02692e-14
0.00209995
-1.29367e-13
0.00209995
-2.73758e-13
0.00209995
-5.75058e-13
0.00209995
-1.20346e-12
0.00209995
-2.51379e-12
0.00209995
-5.24548e-12
0.00209995
-1.09395e-11
0.00209995
-2.28067e-11
0.00209995
-4.75363e-11
0.00209995
-9.90618e-11
0.00209995
-2.0641e-10
0.00209995
-4.30078e-10
0.00209995
-8.96283e-10
0.00209995
-1.86896e-09
0.00209995
-3.90281e-09
0.00209995
-8.17547e-09
0.00209995
-1.72382e-08
0.00209994
-3.68316e-08
0.00209993
-8.07547e-08
0.00209989
-1.86182e-07
0.0020998
-4.54747e-07
0.00209904
-1.94138e-06
0.00209914
-1.84665e-05
0.00198709
0.00151079
0.00182689
0.00259877
0.00165087
0.00324242
0.0014639
0.00376223
0.00127572
0.0042119
0.00108834
0.00459187
0.000895068
0.00473968
0.000695817
0.0049119
0.000477496
0.00502034
0.000198074
0.00491704
0.00559467
0.00209995
-3.75049e-17
0.00209995
-2.16123e-16
0.00209995
-6.70718e-16
0.00209995
-1.74143e-15
0.00209995
-4.20264e-15
0.00209995
-9.80202e-15
0.00209995
-2.25024e-14
0.00209995
-5.12688e-14
0.00209995
-1.16225e-13
0.00209995
-2.62157e-13
0.00209995
-5.88126e-13
0.00209995
-1.31221e-12
0.00209995
-2.9121e-12
0.00209995
-6.42929e-12
0.00209995
-1.4126e-11
0.00209995
-3.09009e-11
0.00209995
-6.73336e-11
0.00209995
-1.46226e-10
0.00209995
-3.16673e-10
0.00209995
-6.84445e-10
0.00209995
-1.47817e-09
0.00209995
-3.19639e-09
0.00209994
-6.94731e-09
0.00209993
-1.52886e-08
0.00209991
-3.45281e-08
0.00209984
-8.23818e-08
0.00209967
-2.03319e-07
0.00209874
-1.23277e-06
0.00209803
-1.56186e-05
0.0019835
0.00160902
0.00182122
0.00275097
0.0016423
0.00341601
0.00145661
0.00394453
0.00126886
0.00439751
0.00108894
0.00476922
0.000895401
0.00493164
0.000692927
0.00511414
0.000476145
0.00523222
0.000198876
0.00521922
0.00583448
0.00209995
2.30087e-16
0.00209995
1.40844e-15
0.00209995
4.54006e-15
0.00209995
1.16025e-14
0.00209995
2.65666e-14
0.00209995
5.7359e-14
0.00209995
1.19729e-13
0.00209995
2.44938e-13
0.00209995
4.94959e-13
0.00209995
9.92417e-13
0.00209995
1.97964e-12
0.00209995
3.93523e-12
0.00209995
7.80346e-12
0.00209995
1.54451e-11
0.00209995
3.05223e-11
0.00209995
6.02332e-11
0.00209995
1.18709e-10
0.00209995
2.33661e-10
0.00209995
4.59399e-10
0.00209995
9.0239e-10
0.00209995
1.77185e-09
0.00209995
3.48171e-09
0.00209994
6.86351e-09
0.00209992
1.36385e-08
0.00209988
2.75587e-08
0.00209978
5.69557e-08
0.00209953
1.33109e-07
0.00209838
-2.9346e-07
0.00209672
-1.18251e-05
0.00197955
0.00171031
0.00181464
0.00290612
0.00163663
0.00358872
0.00144914
0.00412857
0.00126424
0.00457967
0.0010904
0.00493967
0.000896921
0.00512267
0.000694959
0.005315
0.000479401
0.00544139
0.000204268
0.00552242
0.00607787
0.00209995
5.85781e-16
0.00209995
3.5494e-15
0.00209995
1.13791e-14
0.00209995
2.90931e-14
0.00209995
6.68676e-14
0.00209995
1.45284e-13
0.00209995
3.05923e-13
0.00209995
6.32735e-13
0.00209995
1.29513e-12
0.00209995
2.63489e-12
0.00209995
5.34141e-12
0.00209995
1.08051e-11
0.00209995
2.183e-11
0.00209995
4.40699e-11
0.00209995
8.89254e-11
0.00209995
1.79385e-10
0.00209995
3.61809e-10
0.00209995
7.29745e-10
0.00209995
1.47215e-09
0.00209995
2.97159e-09
0.00209995
6.00642e-09
0.00209994
1.21759e-08
0.00209993
2.48306e-08
0.0020999
5.12488e-08
0.00209985
1.08259e-07
0.00209971
2.38141e-07
0.00209936
5.71335e-07
0.00209793
9.32841e-07
0.00209512
-6.88442e-06
0.0019748
0.00181519
0.00180746
0.00306376
0.00162742
0.00376353
0.00144101
0.00431117
0.0012574
0.00476011
0.00109517
0.00509748
0.000897615
0.00531717
0.000696868
0.00551307
0.000485816
0.0056461
0.000214431
0.00582591
0.00632914
0.00209995
1.04376e-15
0.00209995
6.32588e-15
0.00209995
2.02752e-14
0.00209995
5.18499e-14
0.00209995
1.19284e-13
0.00209995
2.59609e-13
0.00209995
5.47939e-13
0.00209995
1.13658e-12
0.00209995
2.33427e-12
0.00209995
4.76674e-12
0.00209995
9.70193e-12
0.00209995
1.97092e-11
0.00209995
3.99946e-11
0.00209995
8.11065e-11
0.00209995
1.64417e-10
0.00209995
3.33235e-10
0.00209995
6.75339e-10
0.00209995
1.36874e-09
0.00209995
2.77482e-09
0.00209995
5.62909e-09
0.00209995
1.14358e-08
0.00209994
2.33023e-08
0.00209992
4.77753e-08
0.00209988
9.91625e-08
0.00209981
2.1078e-07
0.00209962
4.67535e-07
0.00209916
1.12362e-06
0.00209743
2.4773e-06
0.00209324
-5.63188e-07
0.00197054
0.00192284
0.00179909
0.00322591
0.0016226
0.00393472
0.00142956
0.00450026
0.00125195
0.00493376
0.00109768
0.00524657
0.000895257
0.00551549
0.00070119
0.00570266
0.000492142
0.00585159
0.000228892
0.00612784
0.00659192
0.00209995
1.64359e-15
0.00209995
9.95234e-15
0.00209995
3.18669e-14
0.00209995
8.14848e-14
0.00209995
1.87515e-13
0.00209995
4.08348e-13
0.00209995
8.6268e-13
0.00209995
1.7916e-12
0.00209995
3.68472e-12
0.00209995
7.53631e-12
0.00209995
1.53654e-11
0.00209995
3.12714e-11
0.00209995
6.35775e-11
0.00209995
1.29183e-10
0.00209995
2.62401e-10
0.00209995
5.32911e-10
0.00209995
1.08224e-09
0.00209995
2.198e-09
0.00209995
4.46537e-09
0.00209995
9.07782e-09
0.00209994
1.84817e-08
0.00209993
3.77417e-08
0.00209991
7.75537e-08
0.00209986
1.61356e-07
0.00209975
3.439e-07
0.0020995
7.65606e-07
0.00209887
1.84249e-06
0.00209671
4.46274e-06
0.00209076
7.50934e-06
0.00196274
0.00203622
0.00178892
0.00339045
0.00160919
0.00410906
0.00142035
0.00468537
0.00124384
0.00510584
0.00108478
0.00540079
0.00089931
0.00569697
0.000697187
0.00590028
0.000493995
0.00605156
0.000244692
0.00642067
0.00686472
0.00209995
2.42364e-15
0.00209995
1.46673e-14
0.00209995
4.6958e-14
0.00209995
1.20069e-13
0.00209995
2.76338e-13
0.00209995
6.01961e-13
0.00209995
1.27228e-12
0.00209995
2.64384e-12
0.00209995
5.44157e-12
0.00209995
1.11391e-11
0.00209995
2.27322e-11
0.00209995
4.63103e-11
0.00209995
9.42523e-11
0.00209995
1.91722e-10
0.00209995
3.89872e-10
0.00209995
7.92704e-10
0.00209995
1.61172e-09
0.00209995
3.27727e-09
0.00209995
6.6661e-09
0.00209995
1.35687e-08
0.00209994
2.76599e-08
0.00209992
5.65593e-08
0.00209989
1.16381e-07
0.00209982
2.42498e-07
0.00209967
5.17702e-07
0.00209933
1.15508e-06
0.00209848
2.7826e-06
0.00209572
7.0651e-06
0.00208754
1.77832e-05
0.00195695
0.00215255
0.00177834
0.00356008
0.00159208
0.0042899
0.00141471
0.00485864
0.00123777
0.00527829
0.00107897
0.00555507
0.00089938
0.0058729
0.00069632
0.00609696
0.000500665
0.00624318
0.000262408
0.00670743
0.00714742
0.00209995
3.4406e-15
0.00209995
2.08218e-14
0.00209995
6.66509e-14
0.00209995
1.7041e-13
0.00209995
3.92213e-13
0.00209995
8.54479e-13
0.00209995
1.80634e-12
0.00209995
3.75464e-12
0.00209995
7.73043e-12
0.00209995
1.58309e-11
0.00209995
3.23218e-11
0.00209995
6.58793e-11
0.00209995
1.34151e-10
0.00209995
2.73036e-10
0.00209995
5.55562e-10
0.00209995
1.13032e-09
0.00209995
2.29974e-09
0.00209995
4.67978e-09
0.00209995
9.52654e-09
0.00209994
1.94081e-08
0.00209993
3.96022e-08
0.00209991
8.10665e-08
0.00209987
1.67013e-07
0.00209977
3.48485e-07
0.00209957
7.45223e-07
0.0020991
1.66655e-06
0.00209795
4.02492e-06
0.00209435
1.05193e-05
0.00208364
3.05664e-05
0.00194582
0.00227658
0.0017663
0.00373079
0.00157808
0.00447276
0.00140124
0.00503127
0.00123383
0.0054416
0.00107577
0.00570909
0.000903224
0.0060426
0.00070193
0.00629219
0.000511253
0.00643235
0.000280537
0.0069826
0.00743745
0.00209995
4.77222e-15
0.00209995
2.88791e-14
0.00209995
9.24481e-14
0.00209995
2.36367e-13
0.00209995
5.43981e-13
0.00209995
1.18499e-12
0.00209995
2.5047e-12
0.00209995
5.20559e-12
0.00209995
1.07164e-11
0.00209995
2.19426e-11
0.00209995
4.47933e-11
0.00209995
9.12848e-11
0.00209995
1.85855e-10
0.00209995
3.78205e-10
0.00209995
7.6943e-10
0.00209995
1.5652e-09
0.00209995
3.18412e-09
0.00209995
6.47869e-09
0.00209995
1.31875e-08
0.00209994
2.68652e-08
0.00209993
5.48177e-08
0.0020999
1.12216e-07
0.00209984
2.31201e-07
0.00209972
4.82463e-07
0.00209946
1.03185e-06
0.00209886
2.30795e-06
0.0020974
5.56959e-06
0.00209301
1.47735e-05
0.00207849
4.71878e-05
0.00193405
0.00240695
0.00175173
0.00390425
0.00156463
0.0046547
0.00139178
0.00520002
0.00123104
0.00559856
0.00107808
0.0058587
0.000913068
0.00620658
0.000711487
0.0064866
0.000523241
0.00662363
0.000300949
0.00724935
0.00774117
0.00209995
6.53388e-15
0.00209995
3.95548e-14
0.00209995
1.26667e-13
0.00209995
3.23894e-13
0.00209995
7.45384e-13
0.00209995
1.62344e-12
0.00209995
3.43058e-12
0.00209995
7.12754e-12
0.00209995
1.46674e-11
0.00209995
3.002e-11
0.00209995
6.12545e-11
0.00209995
1.24772e-10
0.00209995
2.53909e-10
0.00209995
5.16437e-10
0.00209995
1.05014e-09
0.00209995
2.1352e-09
0.00209995
4.34164e-09
0.00209995
8.82984e-09
0.00209994
1.79652e-08
0.00209994
3.6582e-08
0.00209992
7.46122e-08
0.00209988
1.52672e-07
0.0020998
3.14424e-07
0.00209964
6.55889e-07
0.0020993
1.40234e-06
0.00209851
3.13632e-06
0.0020966
7.56818e-06
0.002091
2.02719e-05
0.00207203
6.81079e-05
0.00192888
0.0025384
0.0017399
0.00408494
0.00154655
0.00484324
0.00138018
0.00536237
0.00123155
0.00574381
0.00108393
0.00600325
0.000928255
0.00636169
0.000737507
0.00666912
0.000550104
0.00682134
0.000332243
0.00750958
0.00806822
0.00209995
8.91026e-15
0.00209995
5.39636e-14
0.00209995
1.72867e-13
0.00209995
4.42075e-13
0.00209995
1.01728e-12
0.00209995
2.21519e-12
0.00209995
4.67962e-12
0.00209995
9.71889e-12
0.00209995
1.99911e-11
0.00209995
4.08958e-11
0.00209995
8.34002e-11
0.00209995
1.69779e-10
0.00209995
3.45266e-10
0.00209995
7.01725e-10
0.00209995
1.4257e-09
0.00209995
2.89602e-09
0.00209995
5.88221e-09
0.00209995
1.19481e-08
0.00209994
2.42756e-08
0.00209993
4.93542e-08
0.00209991
1.00486e-07
0.00209986
2.05213e-07
0.00209975
4.21705e-07
0.00209954
8.77466e-07
0.0020991
1.87046e-06
0.00209811
4.16709e-06
0.00209577
9.9847e-06
0.00208927
2.66647e-05
0.00206533
9.4055e-05
0.00191876
0.00267057
0.00172627
0.00426872
0.00153038
0.00503442
0.00136928
0.00551971
0.00123351
0.00587648
0.00109798
0.00613618
0.00095353
0.00650688
0.000772085