/*--------------------------------*- C++ -*----------------------------------*\
  =========                 |
  \\      /  F ield         | OpenFOAM: The Open Source CFD Toolbox
   \\    /   O peration     | Website:  https://openfoam.org
    \\  /    A nd           | Version:  6.0
     \\/     M anipulation  |
\*---------------------------------------------------------------------------*/
FoamFile
{
    version     2.0;
    format      ascii;
    class       volScalarField;
    location    "4";
    object      T;
}
// * * * * * * * * * * * * * * * * * * * * * * * * * * * * * * * * * * * * * //

dimensions      [0 0 0 1 0 0 0];

internalField   nonuniform List<scalar> 
4800
(
1
1
1
1
1
1
1
1
1
1
1
1.00001
1.00001
1.00002
1.00004
1.00009
1.00019
1.00038
1.00079
1.00162
1.00332
1.00683
1.01406
1.02908
1.06064
1.12849
1.28466
1.65302
3.28853
2.41048
2.60589
2.73739
2.79418
2.81612
2.81449
2.81004
2.8253
2.92863
2.78543
2.72389
1
1
1
1
1
1
1
1
1
1
1
1.00001
1.00001
1.00002
1.00004
1.00009
1.00019
1.00038
1.00079
1.00162
1.00332
1.00683
1.01406
1.02908
1.06064
1.1285
1.28468
1.65317
3.2882
2.41093
2.60686
2.73847
2.79491
2.81648
2.81415
2.80905
2.8154
2.83322
2.8089
2.7592
1
1
1
1
1
1
1
1
1
1
1
1.00001
1.00001
1.00002
1.00004
1.00009
1.00019
1.00038
1.00079
1.00162
1.00332
1.00683
1.01406
1.02909
1.06065
1.12851
1.2847
1.65347
3.28748
2.41188
2.60788
2.7397
2.79576
2.81673
2.81313
2.80824
2.80982
2.82982
2.81777
2.83559
1
1
1
1
1
1
1
1
1
1
1
1.00001
1.00001
1.00002
1.00004
1.00009
1.00019
1.00038
1.00079
1.00162
1.00332
1.00683
1.01407
1.02909
1.06066
1.12853
1.28473
1.65391
3.28637
2.41335
2.60915
2.74112
2.7965
2.8168
2.8114
2.80697
2.80802
2.8286
2.82851
2.84729
1
1
1
1
1
1
1
1
1
1
1
1.00001
1.00001
1.00002
1.00004
1.00009
1.00019
1.00038
1.00079
1.00162
1.00332
1.00683
1.01407
1.02909
1.06067
1.12855
1.28476
1.65449
3.28483
2.41539
2.61076
2.74264
2.79719
2.8167
2.80958
2.80542
2.80696
2.82304
2.85327
2.86067
1
1
1
1
1
1
1
1
1
1
1
1.00001
1.00001
1.00002
1.00004
1.00009
1.00019
1.00038
1.00079
1.00162
1.00332
1.00683
1.01407
1.0291
1.06068
1.12858
1.2848
1.65521
3.28286
2.41802
2.61278
2.74425
2.79774
2.81635
2.80767
2.80357
2.80508
2.82477
2.80484
2.75607
1
1
1
1
1
1
1
1
1
1
1
1.00001
1.00001
1.00002
1.00004
1.00009
1.00019
1.00038
1.00079
1.00162
1.00332
1.00683
1.01408
1.02911
1.06069
1.12861
1.28485
1.65606
3.28045
2.42124
2.61521
2.74597
2.79816
2.81575
2.80558
2.80143
2.80282
2.82522
2.80755
2.70321
1
1
1
1
1
1
1
1
1
1
1
1.00001
1.00001
1.00002
1.00004
1.00009
1.00019
1.00038
1.00079
1.00162
1.00332
1.00683
1.01408
1.02911
1.06071
1.12865
1.2849
1.65704
3.27756
2.42509
2.61795
2.74788
2.79842
2.81498
2.80334
2.79932
2.80054
2.82431
2.81442
2.71979
1
1
1
1
1
1
1
1
1
1
1
1.00001
1.00001
1.00002
1.00004
1.00009
1.00019
1.00038
1.00079
1.00162
1.00332
1.00684
1.01408
1.02912
1.06072
1.12869
1.28495
1.65815
3.2742
2.42955
2.62114
2.74977
2.79865
2.814
2.80061
2.79737
2.79848
2.82253
2.8207
2.72942
1
1
1
1
1
1
1
1
1
1
1
1.00001
1.00001
1.00002
1.00004
1.00009
1.00019
1.00038
1.00079
1.00162
1.00333
1.00684
1.01409
1.02913
1.06074
1.12873
1.285
1.65938
3.27033
2.43467
2.62453
2.75196
2.79874
2.81289
2.79795
2.79503
2.79633
2.82053
2.82592
2.73652
1
1
1
1
1
1
1
1
1
1
1
1.00001
1.00001
1.00002
1.00004
1.00009
1.00019
1.00038
1.00079
1.00162
1.00333
1.00684
1.01409
1.02914
1.06076
1.12878
1.28506
1.66074
3.26595
2.44042
2.62839
2.75411
2.7988
2.8115
2.79541
2.79264
2.79405
2.81635
2.83398
2.74391
1
1
1
1
1
1
1
1
1
1
1
1.00001
1.00001
1.00002
1.00004
1.00009
1.00019
1.00038
1.00079
1.00162
1.00333
1.00684
1.0141
1.02915
1.06078
1.12883
1.28512
1.66221
3.26103
2.44682
2.63263
2.75625
2.79874
2.80956
2.7923
2.79022
2.79198
2.81184
2.84029
2.74643
1
1
1
1
1
1
1
1
1
1
1
1.00001
1.00001
1.00002
1.00004
1.00009
1.00019
1.00038
1.00079
1.00162
1.00333
1.00685
1.0141
1.02916
1.06081
1.12888
1.28518
1.66379
3.25554
2.45393
2.63695
2.75858
2.79838
2.80812
2.78879
2.78714
2.78947
2.80824
2.84069
2.74602
1
1
1
1
1
1
1
1
1
1
1
1.00001
1.00001
1.00002
1.00004
1.00009
1.00019
1.00038
1.00079
1.00162
1.00333
1.00685
1.01411
1.02917
1.06083
1.12894
1.28524
1.66547
3.24949
2.46165
2.64154
2.76107
2.79875
2.80499
2.78615
2.78436
2.78716
2.80538
2.83913
2.74408
1
1
1
1
1
1
1
1
1
1
1
1.00001
1.00001
1.00002
1.00004
1.00009
1.00019
1.00038
1.00079
1.00162
1.00333
1.00685
1.01411
1.02918
1.06085
1.12899
1.2853
1.66723
3.24288
2.46995
2.64728
2.76226
2.80039
2.79993
2.78337
2.78117
2.78369
2.80204
2.83522
2.73771
1
1
1
1
1
1
1
1
1
1
1
1.00001
1.00001
1.00002
1.00004
1.00009
1.00019
1.00038
1.00079
1.00162
1.00333
1.00685
1.01412
1.02919
1.06088
1.12905
1.28536
1.66908
3.23562
2.47891
2.65356
2.76311
2.80085
2.79634
2.77889
2.77851
2.78137
2.79999
2.83022
2.7243
1
1
1
1
1
1
1
1
1
1
1
1.00001
1.00001
1.00002
1.00004
1.00009
1.00019
1.00039
1.00079
1.00162
1.00333
1.00686
1.01412
1.02921
1.0609
1.12911
1.28542
1.67101
3.22769
2.48853
2.65966
2.76391
2.80056
2.79346
2.77455
2.77429
2.77694
2.79642
2.82636
2.7112
1
1
1
1
1
1
1
1
1
1
1
1.00001
1.00001
1.00002
1.00004
1.00009
1.00019
1.00039
1.00079
1.00162
1.00334
1.00686
1.01413
1.02922
1.06092
1.12917
1.28548
1.67302
3.21906
2.49881
2.66556
2.76507
2.79993
2.78958
2.77062
2.77133
2.77454
2.79447
2.82256
2.69989
1
1
1
1
1
1
1
1
1
1
1
1.00001
1.00001
1.00002
1.00004
1.00009
1.00019
1.00039
1.00079
1.00162
1.00334
1.00686
1.01413
1.02923
1.06095
1.12923
1.28553
1.67506
3.20973
2.50968
2.67172
2.7661
2.7986
2.78623
2.76558
2.76607
2.76952
2.79213
2.81497
2.68792
1
1
1
1
1
1
1
1
1
1
1
1.00001
1.00001
1.00002
1.00004
1.00009
1.00019
1.00039
1.00079
1.00163
1.00334
1.00686
1.01414
1.02924
1.06097
1.12928
1.28557
1.67713
3.19965
2.52117
2.67759
2.76734
2.7973
2.78217
2.76198
2.76317
2.76668
2.79102
2.80451
2.67252
1
1
1
1
1
1
1
1
1
1
1
1.00001
1.00001
1.00002
1.00004
1.00009
1.00019
1.00039
1.00079
1.00163
1.00334
1.00687
1.01414
1.02925
1.06099
1.12933
1.2856
1.6792
3.18884
2.53312
2.68375
2.76853
2.79555
2.77785
2.75639
2.75756
2.76087
2.78855
2.79197
2.65293
1
1
1
1
1
1
1
1
1
1
1
1.00001
1.00001
1.00002
1.00004
1.00009
1.00019
1.00039
1.00079
1.00163
1.00334
1.00687
1.01415
1.02926
1.06101
1.12937
1.28562
1.68123
3.17724
2.54561
2.68985
2.76929
2.7937
2.77332
2.75297
2.75465
2.75784
2.78639
2.77953
2.63077
1
1
1
1
1
1
1
1
1
1
1
1.00001
1.00001
1.00002
1.00004
1.00009
1.00019
1.00039
1.00079
1.00163
1.00334
1.00687
1.01415
1.02926
1.06102
1.12941
1.28561
1.6832
3.16486
2.5585
2.69582
2.77032
2.79113
2.76814
2.74687
2.74869
2.75164
2.7819
2.76574
2.60868
1
1
1
1
1
1
1
1
1
1
1
1.00001
1.00001
1.00002
1.00004
1.00009
1.00019
1.00039
1.00079
1.00163
1.00334
1.00687
1.01415
1.02926
1.06102
1.12943
1.28556
1.68506
3.15164
2.57176
2.70183
2.7707
2.78882
2.76334
2.7433
2.74556
2.74805
2.77831
2.75184
2.5885
1
1
1
1
1
1
1
1
1
1
1
1.00001
1.00001
1.00002
1.00004
1.00009
1.00019
1.00039
1.00079
1.00163
1.00334
1.00687
1.01415
1.02926
1.06102
1.12943
1.28548
1.68677
3.13758
2.58533
2.70758
2.77114
2.78518
2.75759
2.73684
2.73893
2.74145
2.77429
2.73812
2.57102
1
1
1
1
1
1
1
1
1
1
1
1.00001
1.00001
1.00002
1.00004
1.00009
1.00019
1.00039
1.00079
1.00163
1.00334
1.00687
1.01415
1.02926
1.061
1.1294
1.28534
1.68826
3.12263
2.5991
2.71359
2.77101
2.78246
2.75223
2.73355
2.73535
2.73778
2.76906
2.72311
2.55578
1
1
1
1
1
1
1
1
1
1
1
1.00001
1.00001
1.00002
1.00004
1.00009
1.00019
1.00039
1.00079
1.00163
1.00334
1.00686
1.01414
1.02924
1.06097
1.12935
1.28514
1.68949
3.10679
2.613
2.71845
2.77145
2.77664
2.74657
2.72674
2.72823
2.73166
2.76151
2.70652
2.54218
1
1
1
1
1
1
1
1
1
1
1
1.00001
1.00001
1.00002
1.00004
1.00009
1.00019
1.00039
1.00079
1.00162
1.00334
1.00686
1.01413
1.02922
1.06093
1.12925
1.28485
1.69039
3.09005
2.62702
2.72411
2.77276
2.76949
2.74279
2.72317
2.72365
2.7266
2.75535
2.69003
2.53038
1
1
1
1
1
1
1
1
1
1
1
1.00001
1.00001
1.00002
1.00004
1.00009
1.00019
1.00038
1.00079
1.00162
1.00333
1.00685
1.01411
1.02919
1.06086
1.1291
1.28446
1.69083
3.07262
2.6403
2.72705
2.77278
2.76269
2.73494
2.71581
2.71682
2.72145
2.74805
2.6724
2.52012
1
1
1
1
1
1
1
1
1
1
1
1.00001
1.00001
1.00002
1.00004
1.00009
1.00019
1.00038
1.00079
1.00162
1.00333
1.00684
1.01409
1.02914
1.06075
1.12889
1.2839
1.69071
3.05371
2.65483
2.7318
2.77249
2.75693
2.72978
2.71187
2.711
2.71467
2.7401
2.65861
2.5126
1
1
1
1
1
1
1
1
1
1
1
1.00001
1.00001
1.00002
1.00004
1.00009
1.00019
1.00038
1.00079
1.00161
1.00332
1.00682
1.01405
1.02907
1.06061
1.12859
1.28317
1.68983
3.03473
2.66714
2.73435
2.77133
2.74911
2.7209
2.70381
2.70323
2.70939
2.72847
2.63998
2.50512
1
1
1
1
1
1
1
1
1
1
1
1.00001
1.00001
1.00002
1.00004
1.00009
1.00019
1.00038
1.00078
1.00161
1.00331
1.0068
1.01401
1.02897
1.06041
1.12817
1.28219
1.68799
3.01445
2.67713
2.73666
2.7697
2.74382
2.71523
2.69967
2.69647
2.70182
2.71514
2.62507
2.49744
1
1
1
1
1
1
1
1
1
1
1
1.00001
1.00001
1.00002
1.00004
1.00009
1.00019
1.00038
1.00078
1.0016
1.00329
1.00677
1.01395
1.02885
1.06016
1.12763
1.28102
1.6848
3.00225
2.69767
2.73536
2.76607
2.73514
2.70601
2.69121
2.6874
2.69497
2.70181
2.60276
2.49141
1
1
1
1
1
1
1
1
1
1
1
1.00001
1.00001
1.00002
1.00004
1.00009
1.00018
1.00038
1.00078
1.00159
1.00327
1.00673
1.01387
1.02868
1.05981
1.12689
1.27943
1.67983
2.99243
2.70935
2.73567
2.76229
2.73
2.7004
2.68717
2.68042
2.68569
2.68614
2.58463
2.48634
1
1
1
1
1
1
1
1
1
1
1
1
1.00001
1.00002
1.00004
1.00009
1.00018
1.00037
1.00077
1.00158
1.00325
1.00667
1.01375
1.02845
1.05932
1.12585
1.2772
1.67274
2.98262
2.7163
2.73589
2.75722
2.72042
2.69138
2.679
2.67138
2.67657
2.67111
2.55669
2.47908
1
1
1
1
1
1
1
1
1
1
1
1
1.00001
1.00002
1.00004
1.00009
1.00018
1.00037
1.00076
1.00156
1.00321
1.0066
1.01359
1.02812
1.05865
1.12442
1.2741
1.66304
2.97264
2.71946
2.73645
2.75249
2.71623
2.68661
2.67539
2.66372
2.66482
2.65252
2.53612
2.4707
1
1
1
1
1
1
1
1
1
1
1
1
1.00001
1.00002
1.00004
1.00009
1.00018
1.00036
1.00075
1.00154
1.00316
1.00649
1.01338
1.02768
1.05773
1.12245
1.26985
1.64989
2.96266
2.71861
2.73622
2.74235
2.70912
2.67913
2.66802
2.65504
2.65275
2.63385
2.50478
2.45231
1
1
1
1
1
1
1
1
1
1
1
1
1.00001
1.00002
1.00004
1.00008
1.00017
1.00036
1.00073
1.0015
1.00308
1.00635
1.01308
1.02707
1.05647
1.11977
1.26407
1.6324
2.95251
2.71556
2.73548
2.73594
2.70659
2.67602
2.66439
2.64498
2.63642
2.61077
2.48366
2.43053
1
1
1
1
1
1
1
1
1
1
1
1
1.00001
1.00002
1.00004
1.00008
1.00017
1.00034
1.00071
1.00145
1.00299
1.00615
1.01268
1.02624
1.05473
1.11603
1.25598
1.60716
2.94119
2.70831
2.73188
2.724
2.70062
2.6705
2.65658
2.63537
2.62062
2.58808
2.44658
2.38524
1
1
1
1
1
1
1
1
1
1
1
1
1.00001
1.00002
1.00004
1.00008
1.00016
1.00033
1.00068
1.00139
1.00286
1.00589
1.01215
1.02515
1.05247
1.11121
1.24569
1.57698
2.94806
2.69069
2.73062
2.72293
2.69944
2.66982
2.65288
2.62406
2.60333
2.56296
2.41755
2.33686
1
1
1
1
1
1
1
1
1
1
1
1
1.00001
1.00002
1.00003
1.00007
1.00014
1.00028
1.00057
1.00117
1.0024
1.00493
1.01014
1.02093
1.04345
1.09111
1.19903
1.41721
2.793
2.48809
2.55217
2.63318
2.66319
2.64783
2.62885
2.59842
2.55464
2.49963
2.32656
2.24269
1
1
1
1
1
1
1
1
1
1
1
1
1.00001
1.00001
1.00002
1.00005
1.0001
1.00021
1.00043
1.00088
1.00181
1.00372
1.00764
1.01575
1.03261
1.06811
1.14576
1.31759
1.97335
2.75476
2.67886
2.66111
2.65763
2.63347
2.60764
2.56303
2.52364
2.47501
2.33178
2.24635
1
1
1
1
1
1
1
1
1
1
1
1
1
1.00001
1.00002
1.00003
1.00006
1.00013
1.00027
1.00055
1.00112
1.00231
1.00473
1.00972
1.02002
1.04145
1.08748
1.18178
1.5538
2.6084
2.49281
2.56301
2.61084
2.60915
2.57698
2.53024
2.4698
2.42764
2.33564
2.25515
1
1
1
1
1
1
1
1
1
1
1
1
1
1.00001
1.00001
1.00002
1.00005
1.0001
1.00021
1.00042
1.00087
1.00178
1.00366
1.00753
1.01551
1.03209
1.06711
1.14209
1.33127
1.84849
2.64226
2.62158
2.61681
2.60495
2.56974
2.52689
2.45742
2.41054
2.33893
2.27862
1
1
1
1
1
1
1
1
1
1
1
1
1
1
1.00001
1.00001
1.00003
1.00006
1.00013
1.00026
1.00054
1.0011
1.00225
1.00462
1.00949
1.01954
1.04046
1.08505
1.18058
1.49079
2.54711
2.4805
2.52888
2.56323
2.54216
2.50988
2.45316
2.39642
2.33345
2.27851
1
1
1
1
1
1
1
1
1
1
1
1
1
1
1.00001
1.00001
1.00002
1.00005
1.0001
1.0002
1.00041
1.00084
1.00173
1.00355
1.0073
1.01504
1.03111
1.06498
1.13786
1.31342
1.81807
2.59601
2.59005
2.5717
2.54902
2.50906
2.45631
2.39926
2.32979
2.2691
1
1
1
1
1
1
1
1
1
1
1
1
1
1
1
1.00001
1.00001
1.00003
1.00006
1.00012
1.00025
1.00052
1.00107
1.00219
1.00449
1.00922
1.01898
1.0393
1.08259
1.17492
1.46858
2.47329
2.45977
2.49727
2.49645
2.48046
2.44463
2.39258
2.32696
2.26709
1
1
1
1
1
1
1
1
1
1
1
1
1
1
1
1.00001
1.00001
1.00002
1.00004
1.00009
1.00019
1.00039
1.0008
1.00164
1.00336
1.00691
1.01424
1.02946
1.06147
1.13028
1.29326
1.78035
2.50827
2.55578
2.51759
2.49653
2.45112
2.39298
2.3255
2.26616
1
1
1
1
1
1
1
1
1
1
1
1
1
1
1
1
1.00001
1.00001
1.00003
1.00005
1.00011
1.00023
1.00047
1.00096
1.00196
1.00403
1.00827
1.01702
1.0352
1.07391
1.15476
1.42984
2.33908
2.36971
2.43873
2.46199
2.44546
2.402
2.3354
2.27417
1
1
1
1
1
1
1
1
1
1
1
1
1
1
1
1
1
1.00001
1.00002
1.00004
1.00007
1.00015
1.00031
1.00064
1.00131
1.0027
1.00554
1.01139
1.02351
1.04886
1.10297
1.22498
1.68927
2.31421
2.34515
2.346
2.33837
2.31877
2.29407
2.26018
1
1
1
1
1
1
1
1
1
1
1
1
1
1
1
1
1
1.00001
1.00001
1.00002
1.00004
1.00009
1.00018
1.00038
1.00078
1.00159
1.00326
1.00671
1.01381
1.02851
1.05975
1.12291
1.3406
1.81307
2.31091
2.33103
2.31732
2.29178
2.22678
2.18543
1
1
1
1
1
1
1
1
1
1
1
1
1
1
1
1
1
1
1
1.00001
1.00002
1.00004
1.00009
1.00018
1.00036
1.00074
1.00151
1.0031
1.00636
1.01307
1.02696
1.05621
1.11799
1.40571
1.5737
1.98337
2.1974
2.22986
2.20351
2.16705
1
1
1
1
1
1
1
1
1
1
1
1
1
1
1
1
1
1
1
1
1.00001
1.00002
1.00004
1.00007
1.00015
1.00031
1.00063
1.00128
1.00262
1.00536
1.0109
1.02356
1.04517
1.12201
1.21673
1.42947
1.96621
2.13088
2.13909
2.12908
1
1
1
1
1
1
1
1
1
1
1
1
1
1
1
1
1
1
1
1
1
1.00001
1.00002
1.00003
1.00006
1.00013
1.00026
1.00053
1.00109
1.00223
1.00456
1.00936
1.01918
1.0402
1.08218
1.17483
1.37702
1.89367
2.08029
2.07217
1
1
1
1
1
1
1
1
1
1
1
1
1
1
1
1
1
1
1
1
1
1
1.00001
1.00001
1.00003
1.00005
1.00011
1.00021
1.00044
1.0009
1.00183
1.00374
1.00766
1.01574
1.03249
1.06674
1.14054
1.32094
1.88388
2.03356
1
1
1
1
1
1
1
1
1
1
1
1
1
1
1
1
1
1
1
1
1
1
1
1
1.00001
1.00001
1.00003
1.00005
1.00011
1.00021
1.00043
1.00088
1.00178
1.00361
1.00733
1.01524
1.02992
1.06618
1.12089
1.37278
1
1
1
1
1
1
1
1
1
1
1
1
1
1
1
1
1
1
1
1
1
1
1
1
1
1.00001
1.00002
1.00004
1.00008
1.00016
1.00033
1.00067
1.00137
1.00282
1.00576
1.012
1.02403
1.05637
1.0985
1.4016
1
1
1
1
1
1
1
1
1
1
1
1
1
1
1
1
1
1
1
1
1
1
1
1
1
1
1.00001
1.00002
1.00004
1.00007
1.00015
1.00031
1.00063
1.0013
1.00266
1.00548
1.01104
1.02479
1.04536
1.1424
1
1
1
1
1
1
1
1
1
1
1
1
1
1
1
1
1
1
1
1
1
1
1
1
1
1
1.00001
1.00001
1.00002
1.00005
1.0001
1.0002
1.0004
1.00082
1.00168
1.00345
1.00707
1.01454
1.02994
1.0631
1
1
1
1
1
1
1
1
1
1
1
1
1
1
1
1
1
1
1
1
1
1
1
1
1
1
1
1.00001
1.00002
1.00004
1.00008
1.00017
1.00034
1.0007
1.00144
1.00295
1.00608
1.01239
1.02703
1.05166
1
1
1
1
1
1
1
1
1
1
1
1
1
1
1
1
1
1
1
1
1
1
1
1
1
1
1
1.00001
1.00001
1.00003
1.00006
1.00012
1.00024
1.00049
1.00101
1.00206
1.00427
1.00859
1.01943
1.03515
1
1
1
1
1
1
1
1
1
1
1
1
1
1
1
1
1
1
1
1
1
1
1
1
1
1
1
1
1.00001
1.00002
1.00004
1.00009
1.00018
1.00037
1.00076
1.00155
1.00319
1.0065
1.01413
1.02687
1
1
1
1
1
1
1
1
1
1
1
1
1
1
1
1
1
1
1
1
1
1
1
1
1
1
1
1
1.00001
1.00002
1.00004
1.00007
1.00015
1.00031
1.00064
1.00131
1.00269
1.0055
1.01177
1.02287
1
1
1
1
1
1
1
1
1
1
1
1
1
1
1
1
1
1
1
1
1
1
1
1
1
1
1
1
1.00001
1.00001
1.00002
1.00005
1.0001
1.00021
1.00044
1.0009
1.00186
1.00377
1.00822
1.01555
1
1
1
1
1
1
1
1
1
1
1
1
1
1
1
1
1
1
1
1
1
1
1
1
1
1
1
1
1
1.00001
1.00002
1.00004
1.00008
1.00016
1.00034
1.00069
1.00143
1.00286
1.00643
1.01168
1
1
1
1
1
1
1
1
1
1
1
1
1
1
1
1
1
1
1
1
1
1
1
1
1
1
1
1
1
1.00001
1.00002
1.00003
1.00007
1.00014
1.00029
1.00059
1.00122
1.00246
1.0055
1.01006
1
1
1
1
1
1
1
1
1
1
1
1
1
1
1
1
1
1
1
1
1
1
1
1
1
1
1
1
1
1.00001
1.00001
1.00002
1.00005
1.0001
1.0002
1.00042
1.00087
1.00174
1.00391
1.00707
1
1
1
1
1
1
1
1
1
1
1
1
1
1
1
1
1
1
1
1
1
1
1
1
1
1
1
1
1
1
1.00001
1.00002
1.00004
1.00008
1.00016
1.00032
1.00067
1.00135
1.00302
1.00551
1
1
1
1
1
1
1
1
1
1
1
1
1
1
1
1
1
1
1
1
1
1
1
1
1
1
1
1
1
1
1.00001
1.00002
1.00003
1.00007
1.00014
1.00028
1.00058
1.00117
1.00259
1.0048
1
1
1
1
1
1
1
1
1
1
1
1
1
1
1
1
1
1
1
1
1
1
1
1
1
1
1
1
1
1
1.00001
1.00001
1.00002
1.00005
1.0001
1.00021
1.00042
1.00086
1.00188
1.0035
1
1
1
1
1
1
1
1
1
1
1
1
1
1
1
1
1
1
1
1
1
1
1
1
1
1
1
1
1
1
1
1.00001
1.00002
1.00003
1.00006
1.00013
1.00027
1.00055
1.0012
1.00227
1
1
1
1
1
1
1
1
1
1
1
1
1
1
1
1
1
1
1
1
1
1
1
1
1
1
1
1
1
1
1
1.00001
1.00001
1.00002
1.00005
1.0001
1.0002
1.0004
1.00089
1.00165
1
1
1
1
1
1
1
1
1
1
1
1
1
1
1
1
1
1
1
1
1
1
1
1
1
1
1
1
1
1
1
1
1.00001
1.00002
1.00004
1.00007
1.00015
1.00031
1.00068
1.00126
1
1
1
1
1
1
1
1
1
1
1
1
1
1
1
1
1
1
1
1
1
1
1
1
1
1
1
1
1
1
1
1
1.00001
1.00002
1.00003
1.00006
1.00013
1.00026
1.00058
1.00107
1
1
1
1
1
1
1
1
1
1
1
1
1
1
1
1
1
1
1
1
1
1
1
1
1
1
1
1
1
1
1
1
1.00001
1.00001
1.00002
1.00005
1.00009
1.00019
1.00042
1.00077
1
1
1
1
1
1
1
1
1
1
1
1
1
1
1
1
1
1
1
1
1
1
1
1
1
1
1
1
1
1
1
1
1
1.00001
1.00002
1.00004
1.00008
1.00016
1.00034
1.00063
1
1
1
1
1
1
1
1
1
1
1
1
1
1
1
1
1
1
1
1
1
1
1
1
1
1
1
1
1
1
1
1
1
1.00001
1.00002
1.00003
1.00007
1.00013
1.0003
1.00055
1
1
1
1
1
1
1
1
1
1
1
1
1
1
1
1
1
1
1
1
1
1
1
1
1
1
1
1
1
1
1
1
1
1.00001
1.00001
1.00002
1.00005
1.0001
1.00021
1.0004
1
1
1
1
1
1
1
1
1
1
1
1
1
1
1
1
1
1
1
1
1
1
1
1
1
1
1
1
1
1
1
1
1
1
1.00001
1.00002
1.00004
1.00007
1.00017
1.0003
1
1
1
1
1
1
1
1
1
1
1
1
1
1
1
1
1
1
1
1
1
1
1
1
1
1
1
1
1
1
1
1
1
1
1.00001
1.00002
1.00004
1.00008
1.00017
1.00032
2.19533
2.19553
2.16994
1.84085
1.96912
2.04246
2.04734
2.13404
2.097
2.04416
2.06485
1.9267
1.53769
1.94383
2.05644
2.09598
2.65433
2.66005
2.60371
2.62078
2.69095
2.68401
2.78866
2.83259
2.85406
2.87957
2.82811
2.79486
2.77575
2.74577
2.68555
2.64419
2.66036
2.62061
2.67586
2.80625
3.08506
2.62928
2.47216
2.70498
2.19951
2.23427
2.2049
2.25546
2.6162
2.26751
2.31705
2.72047
2.20325
2.26129
2.32647
2.35459
3.37615
3.2414
2.62655
2.42689
2.64413
2.63835
2.63175
2.67684
2.64463
2.6592
2.75056
2.78648
2.7883
2.78775
2.79608
2.78452
2.71068
2.69392
2.67425
2.62358
2.54328
2.56874
2.70855
2.68554
2.79395
2.28016
2.04049
2.38092
2.23213
2.2918
2.33099
2.30737
2.27828
2.19181
2.23877
2.28149
2.28075
2.23257
2.18283
2.10847
1.95498
2.53714
2.54744
2.57289
2.61693
2.56178
2.54265
2.5292
2.55457
2.63185
2.71791
2.77169
2.75963
2.73686
2.78936
2.76276
2.62747
2.58125
2.61056
2.57994
2.47546
2.44055
2.5667
2.59221
2.57801
3.00613
3.01212
2.77568
2.2394
2.26742
2.26065
2.195
2.13959
2.1625
2.26096
2.33436
2.35571
2.33064
2.30508
2.24569
2.17221
2.2378
2.38649
2.5026
2.5035
2.45392
2.45453
2.45861
2.50407
2.58562
2.6565
2.72245
2.6974
2.68186
2.72518
2.74734
2.63201
2.62842
2.63928
2.57611
2.47995
2.43498
2.40036
2.38677
2.45484
2.8265
2.77823
2.56897
2.21131
2.19615
2.16024
2.1072
2.09756
2.14761
2.17616
2.23161
2.38951
2.39492
2.39332
2.38454
2.35327
2.36807
2.39936
2.44154
2.43244
2.38976
2.38706
2.4159
2.49966
2.57214
2.63133
2.65803
2.63946
2.65272
2.6953
2.71395
2.66199
2.6293
2.62196
2.56582
2.48294
2.48326
2.39433
2.38459
2.42598
2.61071
2.58482
2.47174
2.1848
2.16962
2.12968
2.10391
2.10611
2.13742
2.13825
2.14848
2.14556
2.3434
2.37241
2.38871
2.39315
2.39009
2.39794
2.41635
2.4096
2.38024
2.37477
2.41267
2.48735
2.53553
2.57853
2.57184
2.57394
2.62602
2.63222
2.65313
2.65456
2.63113
2.63666
2.58034
2.50189
2.49247
2.49124
2.44403
2.40885
2.43579
2.57447
2.61435
2.17735
2.15893
2.12596
2.11324
2.10314
2.09043
2.08073
2.09132
2.11322
2.21467
2.28113
2.31678
2.3365
2.35906
2.38111
2.3917
2.38527
2.36942
2.35731
2.39947
2.45487
2.49071
2.50756
2.50808
2.50582
2.52159
2.52393
2.57722
2.57787
2.56118
2.55054
2.57461
2.5241
2.46427
2.40015
2.34488
2.32621
2.37877
2.49143
2.70826
2.17718
2.13871
2.09893
2.07518
2.07475
2.06449
2.05123
2.06145
2.08596
2.11794
2.1794
2.21761
2.24064
2.28868
2.32503
2.34173
2.3426
2.33589
2.34258
2.36133
2.39803
2.42691
2.44227
2.45526
2.44601
2.46897
2.45525
2.46562
2.45662
2.42051
2.44888
2.49811
2.47896
2.4292
2.41775
2.45103
2.43391
2.39865
2.3784
2.49326
2.1836
2.12516
2.08158
2.06759
2.06241
2.05804
2.05262
2.04712
2.05981
2.08024
2.10342
2.14265
2.17879
2.20561
2.22813
2.24595
2.27435
2.289
2.30053
2.30634
2.3198
2.33235
2.36079
2.3965
2.39467
2.40035
2.36754
2.37685
2.36079
2.30229
2.32173
2.41343
2.40901
2.37734
2.34325
2.24875
2.24925
2.42031
2.34998
2.38322
2.18579
2.12352
2.07938
2.06421
2.05378
2.04033
2.04023
2.0443
2.04095
2.04814
2.06228
2.09365
2.12914
2.15244
2.16155
2.18379
2.21035
2.2303
2.24578
2.2542
2.26162
2.26342
2.27576
2.30822
2.33447
2.36653
2.35098
2.33638
2.32924
2.27109
2.27291
2.3909
2.3822
2.41643
2.45973
2.29565
2.33946
2.38329
2.38783
2.33853
2.15962
2.11684
2.07617
2.05752
2.04271
2.02427
2.01708
2.01558
2.01582
2.02287
2.0299
2.0443
2.08433
2.1166
2.12777
2.14178
2.15906
2.17814
2.19169
2.20036
2.21771
2.22282
2.21461
2.22189
2.28471
2.29388
2.31046
2.31893
2.28005
2.27987
2.32183
2.37595
2.28834
2.25934
2.32732
2.37033
2.37962
2.5379
2.55611
2.46489
2.10941
2.09279
2.06949
2.05381
2.03494
2.01256
1.9952
1.98939
1.99089
2.00142
2.00647
2.0126
2.03577
2.07402
2.09826
2.11343
2.11775
2.13168
2.15314
2.15839
2.15541
2.17867
2.17165
2.19189
2.23103
2.23737
2.29086
2.31184
2.25436
2.25905
2.25933
2.26099
2.29413
2.24797
2.27087
2.30169
2.3026
2.43429
2.45127
2.45174
2.08278
2.0637
2.05547
2.04733
2.0349
2.01277
1.98943
1.97768
1.97237
1.97762
1.98297
1.99011
2.00954
2.04765
2.07195
2.08346
2.09015
2.09772
2.11074
2.12495
2.13351
2.12964
2.13772
2.15968
2.18117
2.21904
2.29584
2.28563
2.22737
2.2201
2.21993
2.21481
2.21804
2.25243
2.26029
2.23534
2.26236
2.28923
2.4028
2.39148
2.03195
2.04119
2.05184
2.05138
2.03949
2.0104
1.98239
1.96903
1.95643
1.96064
1.96874
1.97422
1.98615
2.01552
2.03704
2.0544
2.06438
2.071
2.08192
2.09386
2.0829
2.09917
2.11358
2.13545
2.17974
2.18738
2.20533
2.23496
2.22075
2.21703
2.2607
2.32239
2.31212
2.3045
2.33637
2.31138
2.26395
2.27109
2.35977
2.41845
2.02171
2.03986
2.06283
2.04908
2.02365
1.99775
1.97299
1.9625
1.94911
1.95059
1.95601
1.96068
1.97428
1.99542
2.01474
2.03422
2.04268
2.05284
2.06625
2.05088
2.04895
2.0838
2.0946
2.1073
2.12536
2.14498
2.16182
2.17535
2.24763
2.26385
2.21797
2.18907
2.17946
2.19444
2.16695
2.21477
2.29349
2.29589
2.25872
2.14766
2.03301
2.03902
2.03922
2.02467
2.00872
1.98245
1.95933
1.94937
1.9373
1.94063
1.94477
1.94805
1.96219
1.98506
2.00429
2.02202
2.03625
2.04609
2.03313
2.02903
2.05653
2.07702
2.07537
2.09669
2.10618
2.07586
2.11394
2.17144
2.25126
2.26242
2.13233
2.14055
2.12951
2.11239
2.11815
2.16186
2.20271
2.15258
2.29378
2.2583
1.90025
1.97572
2.00703
2.00762
1.99916
1.97875
1.94892
1.93127
1.91859
1.92505
1.93049
1.93495
1.95431
1.98138
1.99969
2.01436
2.0255
2.02225
2.02677
2.04661
2.04308
2.04514
2.03683
2.07988
2.05442
2.08576
2.16068
2.19975
2.2105
2.19943
2.1519
2.16504
2.15781
2.10061
2.09782
2.12422
2.2539
2.15824
2.09605
2.20775
1.53987
1.90378
1.94109
1.96914
1.9795
1.96513
1.93376
1.91345
1.89642
1.90922
1.91615
1.91968
1.93602
1.96883
1.98991
2.00372
2.00541
2.00862
2.02936
2.03198
2.03618
2.01876
2.02731
2.04688
2.05849
2.11662
2.19104
2.16642
2.14382
2.12663
2.10507
2.10483
2.18634
2.11971
2.1564
2.14787
2.16362
2.13381
2.07014
2.03182
1.60817
1.98639
1.9492
1.95517
1.96221
1.95186
1.92529
1.90405
1.88053
1.89212
1.89638
1.89983
1.92052
1.95379
1.979
1.98852
1.98846
2.01133
2.01789
2.02343
2.02181
1.99533
2.02809
2.04986
2.03455
2.05959
2.1054
2.1033
2.08028
2.08921
2.12317
2.13515
2.13709
2.10691
2.10172
2.10901
2.10522
2.18265
2.13366
2.10665
1.6043
1.80367
1.86459
1.92177
1.94068
1.94112
1.9293
1.90719
1.87445
1.87688
1.87773
1.87925
1.9024
1.93588
1.95957
1.96816
1.98373
1.99152
2.00152
1.98897
1.97716
2.00118
2.00463
1.99088
2.0104
2.0479
2.03658
2.10215
2.06431
2.06402
2.15753
2.1159
2.05412
2.05958
2.07608
2.03122
2.00105
2.00525
2.06807
1.93529
1.33607
1.57098
1.8089
1.85645
1.89838
1.92159
1.92496
1.91042
1.87821
1.86354
1.85756
1.85413
1.87077
1.90571
1.92867
1.94716
1.95893
1.96233
1.97643
1.96947
1.98987
1.98993
1.9788
1.969
1.98233
2.02667
2.05113
2.07969
2.08765
2.13549
2.12037
2.13684
2.12815
2.07102
2.0769
2.09247
1.98216
1.95181
1.97968
1.95163
1.18709
1.52047
1.86653
1.85499
1.87904
1.89464
1.90568
1.8954
1.87353
1.84713
1.83468
1.83037
1.84732
1.88718
1.91686
1.93398
1.93529
1.94399
1.96144
1.9667
1.99893
1.97367
1.94015
1.96977
1.98177
1.98296
2.06213
2.02806
2.03628
2.13387
2.08051
2.04931
2.03651
2.15228
2.10147
2.10448
2.11951
2.01455
1.94359
1.89685
1.13927
1.55662
1.72174
1.79882
1.84347
1.87537
1.88602
1.88666
1.86317
1.86213
1.85526
1.8463
1.8607
1.89419
1.91899
1.92823
1.92903
1.93634
1.94771
1.97729
1.96832
1.93542
1.95497
1.99589
1.96221
1.96507
2.01415
1.98744
2.02971
2.04982
1.97926
1.99778
2.01631
2.0551
2.02804
1.9912
1.99786
2.01415
1.9647
1.80436
1.09238
1.34651
1.49772
1.73583
1.7855
1.82627
1.86498
1.87454
1.85355
1.8539
1.84105
1.84373
1.88723
1.89295
1.90512
1.91154
1.91149
1.92147
1.94039
1.93389
1.93147
1.97838
1.97951
1.9411
1.92918
1.98851
1.95063
1.95632
2.03011
2.04433
2.04718
2.02473
2.00311
1.95182
1.92151
1.90944
1.90965
1.89338
1.9408
1.90101
1.07441
1.21494
1.48954
1.79473
1.7859
1.79999
1.83677
1.85437
1.84993
1.82851
1.8305
1.83865
1.87818
1.87151
1.88838
1.89984
1.90334
1.89874
1.89417
1.93602
1.97873
1.9816
1.95153
1.94458
1.91774
1.93704
1.93943
1.91534
1.97392
1.96833
1.98418
2.04552
2.11471
1.98004
1.91112
1.87609
1.88961
1.92225
1.93774
2.01375
1.06217
1.15887
1.51396
1.69733
1.74355
1.76119
1.787
1.8136
1.81875
1.81807
1.81748
1.83549
1.85636
1.85197
1.8684
1.87529
1.8726
1.87399
1.92457
1.95671
1.97124
1.95223
1.96999
1.94805
1.91149
1.9205
1.91252
1.83979
1.8491
1.89946
1.8647
1.8541
1.98858
2.01765
1.9331
1.87909
1.91181
1.96878
2.00343
2.00271
1.04326
1.10733
1.33088
1.48709
1.67242
1.71987
1.74446
1.76265
1.77712
1.7875
1.79582
1.8181
1.83246
1.827
1.8394
1.84203
1.88131
1.91176
1.91838
1.92927
1.93296
1.93087
1.94314
1.92574
1.89151
1.86746
1.89384
1.90418
1.84869
1.84637
1.81756
1.78936
1.85461
1.83403
1.88167
1.89197
1.83795
1.83511
1.93722
1.92835
1.03218
1.08078
1.22021
1.48032
1.7311
1.72617
1.73333
1.74499
1.75499
1.77663
1.79218
1.80648
1.79242
1.7998
1.83169
1.89529
1.9069
1.88313
1.88053
1.89895
1.9211
1.92382
1.91026
1.93408
1.90024
1.89788
1.91737
1.8346
1.79991
1.80473
1.88883
1.83363
1.78087
1.76271
1.7694
1.89234
1.89997
1.79223
1.83049
1.94028
1.02651
1.07029
1.16776
1.51312
1.63986
1.6825
1.70144
1.71541
1.73768
1.76315
1.77862
1.76135
1.76824
1.82726
1.86512
1.88431
1.88758
1.84806
1.84582
1.87027
1.90618
1.91106
1.92902
1.89234
1.89462
1.89305
1.85042
1.85978
1.86157
1.84589
1.86165
1.90712
1.81315
1.78871
1.78485
1.7707
1.86062
1.84381
1.83046
1.85154
1.01882
1.05048
1.11569
1.35436
1.4447
1.63792
1.68156
1.70397
1.72335
1.73757
1.73953
1.74183
1.79225
1.8353
1.84022
1.8525
1.85401
1.82243
1.83067
1.86907
1.87156
1.88673
1.94834
1.89231
1.88862
1.89797
1.87126
1.86253
1.80259
1.80557
1.83114
1.80985
1.82596
1.84781
1.82554
1.80063
1.85673
1.85488
1.85278
1.81887
1.01131
1.03286
1.07165
1.19684
1.43367
1.57416
1.62941
1.67826
1.70081
1.71427
1.72826
1.772
1.79893
1.81318
1.80949
1.8194
1.81651
1.82042
1.84381
1.86867
1.84498
1.87751
1.95099
1.8809
1.88707
1.89076
1.85029
1.81573
1.78055
1.78588
1.71168
1.67263
1.69112
1.83571
1.88538
1.77282
1.8627
1.89772
1.83227
1.81167
1.00879
1.02346
1.05256
1.12444
1.28639
1.4468
1.58179
1.63266
1.67503
1.71453
1.75058
1.77267
1.78739
1.79453
1.79564
1.82362
1.79053
1.79694
1.81973
1.86183
1.92183
1.9387
1.86262
1.88325
1.91457
1.8486
1.85851
1.82893
1.77274
1.82866
1.71592
1.68043
1.69562
1.7377
1.9058
1.81836
1.74789
1.84627
1.84485
1.78739
1.00677
1.01774
1.04018
1.08681
1.20171
1.44493
1.63263
1.6385
1.66232
1.70479
1.74204
1.75815
1.77071
1.7775
1.79238
1.79766
1.77695
1.80946
1.88363
1.89488
1.86589
1.8605
1.86518
1.85452
1.81415
1.83175
1.80038
1.76435
1.7361
1.75777
1.74811
1.72123
1.74312
1.76856
1.77501
1.84705
1.73491
1.78951
1.88022
1.76947
1.00578
1.01514
1.03432
1.07485
1.16016
1.47407
1.58259
1.62861
1.65864
1.6954
1.73337
1.74505
1.75328
1.76515
1.7771
1.78501
1.82796
1.87053
1.88689
1.86712
1.83511
1.82996
1.80543
1.79625
1.78932
1.77559
1.77822
1.77753
1.74948
1.73054
1.73512
1.76354
1.73265
1.75707
1.70942
1.71029
1.79194
1.78157
1.77608
1.88669
1.00414
1.0108
1.02435
1.05336
1.10995
1.30078
1.44267
1.55403
1.61515
1.67454
1.72113
1.73898
1.75862
1.78982
1.81641
1.85336
1.87759
1.87799
1.84484
1.81548
1.79461
1.77977
1.82272
1.82436
1.80758
1.83195
1.77217
1.72294
1.71085
1.74955
1.76448
1.73588
1.77935
1.7403
1.65563
1.65981
1.70483
1.8142
1.80856
1.75371
1.00332
1.00867
1.01944
1.04201
1.08498
1.2084
1.41896
1.56217
1.61398
1.71502
1.75164
1.77585
1.80276
1.82604
1.84607
1.85239
1.84904
1.82286
1.79567
1.78469
1.81011
1.81391
1.81121
1.79591
1.77105
1.78025
1.7455
1.70936
1.69355
1.67831
1.7286
1.79036
1.68722
1.62862
1.67417
1.73839
1.71498
1.75188
1.73032
1.69671
1.00287
1.00753
1.01692
1.03605
1.07549
1.16276
1.42019
1.56155
1.62381
1.77433
1.79031
1.81439
1.83313
1.83247
1.81621
1.81292
1.80627
1.80383
1.77472
1.77982
1.79267
1.78784
1.77685
1.77721
1.73556
1.74689
1.77437
1.71422
1.67985
1.67224
1.66331
1.67031
1.67085
1.63884
1.63626
1.67701
1.79893
1.74573
1.6732
1.74738
1.0021
1.00552
1.01234
1.02587
1.05377
1.10776
1.30122
1.39245
1.57632
1.75234
1.74196
1.74924
1.77651
1.78309
1.7655
1.76008
1.78246
1.78671
1.78117
1.78257
1.77066
1.78738
1.79797
1.74306
1.73274
1.71425
1.69478
1.67733
1.70486
1.71976
1.61938
1.61496
1.6736
1.75186
1.67746
1.6673
1.72009
1.71837
1.71961
1.7284
1.00167
1.00431
1.00962
1.02029
1.04192
1.08606
1.19035
1.38145
1.67959
1.82002
1.73045
1.72993
1.79077
1.81455
1.8022
1.79315
1.7957
1.80908
1.81335
1.81823
1.82477
1.76496
1.75042
1.74866
1.75729
1.80006
1.706
1.65369
1.67964
1.74183
1.66347
1.63282
1.66604
1.6888
1.67043
1.6837
1.77307
1.72862
1.67978
1.69155
1.0017
1.00434
1.00955
1.02003
1.0415
1.08529
1.17715
1.39614
1.68203
1.81222
1.86116
1.87605
1.92945