/*--------------------------------*- C++ -*----------------------------------*\
  =========                 |
  \\      /  F ield         | OpenFOAM: The Open Source CFD Toolbox
   \\    /   O peration     | Website:  https://openfoam.org
    \\  /    A nd           | Version:  6.0
     \\/     M anipulation  |
\*---------------------------------------------------------------------------*/
FoamFile
{
    version     2.0;
    format      ascii;
    class       volVectorField;
    location    "4";
    object      U;
}
// * * * * * * * * * * * * * * * * * * * * * * * * * * * * * * * * * * * * * //

dimensions      [0 1 -1 0 0 0 0];

internalField   nonuniform List<vector> 
4800
(
(3 -1.94927e-14 0)
(3 -1.1734e-13 0)
(3 -3.76086e-13 0)
(3 -9.64165e-13 0)
(3 -2.22791e-12 0)
(3 -4.87628e-12 0)
(3 -1.03644e-11 0)
(3 -2.16829e-11 0)
(3 -4.49829e-11 0)
(3 -9.29118e-11 0)
(3 -1.91475e-10 0)
(3 -3.94118e-10 0)
(2.99999 -8.1068e-10 0)
(2.99998 -1.66695e-09 0)
(2.99996 -3.42712e-09 0)
(2.99992 -7.0456e-09 0)
(2.99984 -1.44852e-08 0)
(2.99968 -2.97845e-08 0)
(2.99935 -6.12575e-08 0)
(2.99866 -1.26037e-07 0)
(2.99724 -2.59501e-07 0)
(2.99432 -5.34985e-07 0)
(2.98829 -1.1057e-06 0)
(2.97573 -2.29679e-06 0)
(2.94916 -4.82001e-06 0)
(2.89095 -1.03387e-05 0)
(2.75378 -2.31277e-05 0)
(2.36823 -6.43136e-05 0)
(0.313146 -0.000324739 0)
(-1.32699 0.000837252 0)
(-1.0033 0.00245922 0)
(-0.608651 0.00399425 0)
(-0.286031 0.00593993 0)
(-0.0401172 0.00819846 0)
(0.136643 0.0117902 0)
(0.229326 0.0169565 0)
(0.264909 0.0443597 0)
(0.182985 0.0442505 0)
(0.209471 0.0196069 0)
(0.29776 -0.015399 0)
(3 -5.74039e-14 0)
(3 -3.4746e-13 0)
(3 -1.11399e-12 0)
(3 -2.85493e-12 0)
(3 -6.58945e-12 0)
(3 -1.44078e-11 0)
(3 -3.06063e-11 0)
(3 -6.40145e-11 0)
(3 -1.32762e-10 0)
(3 -2.74079e-10 0)
(3 -5.64466e-10 0)
(3 -1.16107e-09 0)
(2.99999 -2.38663e-09 0)
(2.99998 -4.90387e-09 0)
(2.99996 -1.00738e-08 0)
(2.99992 -2.06921e-08 0)
(2.99984 -4.25017e-08 0)
(2.99968 -8.73034e-08 0)
(2.99935 -1.79355e-07 0)
(2.99866 -3.68566e-07 0)
(2.99724 -7.5781e-07 0)
(2.99432 -1.55991e-06 0)
(2.98829 -3.21842e-06 0)
(2.97573 -6.67164e-06 0)
(2.94915 -1.39647e-05 0)
(2.89094 -2.98451e-05 0)
(2.75376 -6.63195e-05 0)
(2.36812 -0.000183925 0)
(0.313381 -0.000964967 0)
(-1.32625 0.00275554 0)
(-1.00126 0.0076467 0)
(-0.604766 0.012217 0)
(-0.279993 0.0177563 0)
(-0.031978 0.0238374 0)
(0.146411 0.0327262 0)
(0.241715 0.0428611 0)
(0.27446 0.0722105 0)
(0.257915 0.0620179 0)
(0.183846 0.0505034 0)
(0.232697 -0.0460956 0)
(3 -9.38303e-14 0)
(3 -5.67065e-13 0)
(3 -1.81513e-12 0)
(3 -4.64453e-12 0)
(3 -1.07086e-11 0)
(3 -2.33983e-11 0)
(3 -4.96718e-11 0)
(3 -1.0382e-10 0)
(3 -2.15176e-10 0)
(3 -4.43921e-10 0)
(3 -9.13547e-10 0)
(3 -1.87752e-09 0)
(2.99999 -3.85597e-09 0)
(2.99998 -7.91589e-09 0)
(2.99996 -1.62461e-08 0)
(2.99992 -3.33375e-08 0)
(2.99984 -6.84039e-08 0)
(2.99968 -1.40352e-07 0)
(2.99935 -2.87992e-07 0)
(2.99866 -5.91051e-07 0)
(2.99724 -1.21359e-06 0)
(2.99432 -2.49435e-06 0)
(2.98829 -5.13777e-06 0)
(2.97573 -1.06298e-05 0)
(2.94915 -2.21972e-05 0)
(2.89093 -4.72879e-05 0)
(2.75373 -0.000104465 0)
(2.36792 -0.000289864 0)
(0.314031 -0.00158431 0)
(-1.32449 0.00510001 0)
(-0.998477 0.013327 0)
(-0.600312 0.0213304 0)
(-0.273405 0.0309769 0)
(-0.0230795 0.0415379 0)
(0.156839 0.0560161 0)
(0.253763 0.0706821 0)
(0.279792 0.0944728 0)
(0.25354 0.0739876 0)
(0.170312 0.0679784 0)
(0.179446 -0.0315859 0)
(3 -1.27283e-13 0)
(3 -7.69831e-13 0)
(3 -2.4632e-12 0)
(3 -6.29911e-12 0)
(3 -1.45153e-11 0)
(3 -3.16992e-11 0)
(3 -6.72555e-11 0)
(3 -1.40476e-10 0)
(3 -2.90943e-10 0)
(3 -5.99843e-10 0)
(3 -1.23364e-09 0)
(3 -2.53366e-09 0)
(2.99999 -5.19978e-09 0)
(2.99998 -1.06668e-08 0)
(2.99996 -2.18758e-08 0)
(2.99992 -4.48563e-08 0)
(2.99984 -9.19681e-08 0)
(2.99968 -1.88551e-07 0)
(2.99935 -3.86573e-07 0)
(2.99866 -7.92695e-07 0)
(2.99724 -1.62617e-06 0)
(2.99432 -3.33924e-06 0)
(2.98829 -6.87113e-06 0)
(2.97573 -1.42003e-05 0)
(2.94914 -2.96145e-05 0)
(2.89092 -6.29852e-05 0)
(2.75368 -0.000138718 0)
(2.36762 -0.000386414 0)
(0.315132 -0.00217717 0)
(-1.3217 0.00773081 0)
(-0.99487 0.019128 0)
(-0.595099 0.0306649 0)
(-0.266054 0.044378 0)
(-0.013549 0.0593115 0)
(0.167606 0.0781981 0)
(0.262807 0.0964276 0)
(0.282888 0.109047 0)
(0.248707 0.0941867 0)
(0.153719 0.0744377 0)
(0.134426 0.017918 0)
(3 -1.57733e-13 0)
(3 -9.53579e-13 0)
(3 -3.05176e-12 0)
(3 -7.80536e-12 0)
(3 -1.79816e-11 0)
(3 -3.92533e-11 0)
(3 -8.32558e-11 0)
(3 -1.73839e-10 0)
(3 -3.59896e-10 0)
(3 -7.41665e-10 0)
(3 -1.52462e-09 0)
(3 -3.1298e-09 0)
(2.99999 -6.42003e-09 0)
(2.99998 -1.31633e-08 0)
(2.99996 -2.69823e-08 0)
(2.99992 -5.5299e-08 0)
(2.99984 -1.13319e-07 0)
(2.99968 -2.32201e-07 0)
(2.99935 -4.75805e-07 0)
(2.99866 -9.75121e-07 0)
(2.99724 -1.99924e-06 0)
(2.99432 -4.10278e-06 0)
(2.98829 -8.4367e-06 0)
(2.97572 -1.74232e-05 0)
(2.94913 -3.63057e-05 0)
(2.8909 -7.7137e-05 0)
(2.75362 -0.000169547 0)
(2.36724 -0.000474546 0)
(0.316728 -0.0027424 0)
(-1.31785 0.0105944 0)
(-0.990354 0.0251229 0)
(-0.589008 0.0402419 0)
(-0.257969 0.0578588 0)
(-0.00355182 0.0768319 0)
(0.178445 0.0990052 0)
(0.27056 0.120202 0)
(0.284843 0.128118 0)
(0.242575 0.12088 0)
(0.128379 0.0881634 0)
(0.140413 0.0126721 0)
(3 -1.85329e-13 0)
(3 -1.1204e-12 0)
(3 -3.5847e-12 0)
(3 -9.16576e-12 0)
(3 -2.11135e-11 0)
(3 -4.60871e-11 0)
(3 -9.77402e-11 0)
(3 -2.04063e-10 0)
(3 -4.22418e-10 0)
(3 -8.70356e-10 0)
(3 -1.78877e-09 0)
(3 -3.67118e-09 0)
(2.99999 -7.5286e-09 0)
(2.99998 -1.54321e-08 0)
(2.99996 -3.16237e-08 0)
(2.99992 -6.47919e-08 0)
(2.99984 -1.32731e-07 0)
(2.99968 -2.71886e-07 0)
(2.99935 -5.56933e-07 0)
(2.99866 -1.14097e-06 0)
(2.99724 -2.33839e-06 0)
(2.99432 -4.79689e-06 0)
(2.98829 -9.85991e-06 0)
(2.97572 -2.03532e-05 0)
(2.94912 -4.2389e-05 0)
(2.89087 -9.00043e-05 0)
(2.75355 -0.000197563 0)
(2.36677 -0.000555781 0)
(0.318856 -0.00328205 0)
(-1.31289 0.0136687 0)
(-0.984895 0.0313876 0)
(-0.581988 0.0501314 0)
(-0.249102 0.0716081 0)
(0.00687352 0.0943854 0)
(0.18932 0.119467 0)
(0.277943 0.143058 0)
(0.287356 0.150015 0)
(0.238133 0.149704 0)
(0.138082 0.0969844 0)
(0.157777 0.0059338 0)
(3 -2.10279e-13 0)
(3 -1.27061e-12 0)
(3 -4.0636e-12 0)
(3 -1.03899e-11 0)
(3 -2.39359e-11 0)
(3 -5.22556e-11 0)
(3 -1.10833e-10 0)
(3 -2.31409e-10 0)
(3 -4.79033e-10 0)
(3 -9.86992e-10 0)
(3 -2.02837e-09 0)
(3 -4.16263e-09 0)
(2.99999 -8.53565e-09 0)
(2.99998 -1.74942e-08 0)
(2.99996 -3.58442e-08 0)
(2.99992 -7.34269e-08 0)
(2.99984 -1.50394e-07 0)
(2.99968 -3.08014e-07 0)
(2.99935 -6.30819e-07 0)
(2.99866 -1.29209e-06 0)
(2.99724 -2.64756e-06 0)
(2.99432 -5.42996e-06 0)
(2.98828 -1.11587e-05 0)
(2.97571 -2.30285e-05 0)
(2.94911 -4.79461e-05 0)
(2.89084 -0.000101763 0)
(2.75346 -0.000223148 0)
(2.36621 -0.000631007 0)
(0.321547 -0.00379843 0)
(-1.3068 0.0169278 0)
(-0.978448 0.0379524 0)
(-0.574031 0.0603323 0)
(-0.239466 0.0856305 0)
(0.0177089 0.111978 0)
(0.200207 0.139812 0)
(0.285031 0.16501 0)
(0.290385 0.171471 0)
(0.238825 0.175605 0)
(0.134626 0.149202 0)
(0.11282 0.0763789 0)
(3 -2.32607e-13 0)
(3 -1.40479e-12 0)
(3 -4.49086e-12 0)
(3 -1.14822e-11 0)
(3 -2.64566e-11 0)
(3 -5.7774e-11 0)
(3 -1.22569e-10 0)
(3 -2.55961e-10 0)
(3 -5.29932e-10 0)
(3 -1.09197e-09 0)
(3 -2.24424e-09 0)
(3 -4.60573e-09 0)
(2.99999 -9.44441e-09 0)
(2.99998 -1.93571e-08 0)
(2.99996 -3.96615e-08 0)
(2.99992 -8.12472e-08 0)
(2.99984 -1.66413e-07 0)
(2.99968 -3.40827e-07 0)
(2.99935 -6.98035e-07 0)
(2.99866 -1.4298e-06 0)
(2.99724 -2.92983e-06 0)
(2.99432 -6.00903e-06 0)
(2.98828 -1.23489e-05 0)
(2.97571 -2.54842e-05 0)
(2.94909 -5.30546e-05 0)
(2.89081 -0.000112586 0)
(2.75337 -0.000246708 0)
(2.36558 -0.000701192 0)
(0.324831 -0.00429164 0)
(-1.29952 0.0203664 0)
(-0.970959 0.0448071 0)
(-0.565172 0.0708847 0)
(-0.229072 0.0998957 0)
(0.0289327 0.12961 0)
(0.21103 0.16005 0)
(0.291622 0.185949 0)
(0.293014 0.191543 0)
(0.243296 0.195645 0)
(0.12562 0.18832 0)
(0.0761469 0.0814059 0)
(3 -2.52329e-13 0)
(3 -1.52281e-12 0)
(3 -4.86676e-12 0)
(3 -1.24432e-11 0)
(3 -2.86745e-11 0)
(3 -6.26296e-11 0)
(3 -1.32901e-10 0)
(3 -2.77599e-10 0)
(3 -5.74847e-10 0)
(3 -1.18476e-09 0)
(3 -2.43541e-09 0)
(3 -4.99901e-09 0)
(2.99999 -1.02528e-08 0)
(2.99998 -2.1018e-08 0)
(2.99996 -4.3074e-08 0)
(2.99992 -8.82577e-08 0)
(2.99984 -1.80814e-07 0)
(2.99968 -3.70403e-07 0)
(2.99935 -7.58779e-07 0)
(2.99866 -1.55457e-06 0)
(2.99724 -3.18618e-06 0)
(2.99432 -6.53609e-06 0)
(2.98828 -1.34343e-05 0)
(2.9757 -2.77279e-05 0)
(2.94908 -5.77289e-05 0)
(2.89078 -0.000122501 0)
(2.75327 -0.000268289 0)
(2.36487 -0.000766379 0)
(0.328734 -0.00476051 0)
(-1.29103 0.0239758 0)
(-0.962436 0.0519733 0)
(-0.555336 0.0817803 0)
(-0.218009 0.114405 0)
(0.0405667 0.14733 0)
(0.221735 0.180097 0)
(0.297602 0.205899 0)
(0.294712 0.211252 0)
(0.246395 0.212786 0)
(0.112666 0.208014 0)
(0.046488 0.107888 0)
(3 -2.69016e-13 0)
(3 -1.6237e-12 0)
(3 -5.18884e-12 0)
(3 -1.32672e-11 0)
(3 -3.05808e-11 0)
(3 -6.68127e-11 0)
(3 -1.41819e-10 0)
(3 -2.96311e-10 0)
(3 -6.13767e-10 0)
(3 -1.26533e-09 0)
(3 -2.60186e-09 0)
(3 -5.34249e-09 0)
(2.99999 -1.09611e-08 0)
(2.99998 -2.24782e-08 0)
(2.99996 -4.60829e-08 0)
(2.99992 -9.44573e-08 0)
(2.99984 -1.93585e-07 0)
(2.99968 -3.96709e-07 0)
(2.99934 -8.12953e-07 0)
(2.99865 -1.66613e-06 0)
(2.99724 -3.41596e-06 0)
(2.99431 -7.00971e-06 0)
(2.98827 -1.44121e-05 0)
(2.97569 -2.97539e-05 0)
(2.94906 -6.19596e-05 0)
(2.89074 -0.000131496 0)
(2.75316 -0.000287903 0)
(2.36408 -0.000826552 0)
(0.333286 -0.00520064 0)
(-1.28128 0.0277724 0)
(-0.952778 0.0594333 0)
(-0.544669 0.0930514 0)
(-0.2062 0.129166 0)
(0.0525389 0.165209 0)
(0.232177 0.200026 0)
(0.303184 0.224801 0)
(0.295605 0.232173 0)
(0.246865 0.229901 0)
(0.0984756 0.221802 0)
(0.0250884 0.141744 0)
(3 -2.82542e-13 0)
(3 -1.70668e-12 0)
(3 -5.45631e-12 0)
(3 -1.39577e-11 0)
(3 -3.21886e-11 0)
(3 -7.03588e-11 0)
(3 -1.49409e-10 0)
(3 -3.12287e-10 0)
(3 -6.4708e-10 0)
(3 -1.33443e-09 0)
(3 -2.74477e-09 0)
(3 -5.6376e-09 0)
(2.99999 -1.15701e-08 0)
(2.99998 -2.37347e-08 0)
(2.99996 -4.86751e-08 0)
(2.99992 -9.98045e-08 0)
(2.99984 -2.04616e-07 0)
(2.99968 -4.19467e-07 0)
(2.99934 -8.59912e-07 0)
(2.99865 -1.76305e-06 0)
(2.99723 -3.61606e-06 0)
(2.99431 -7.4232e-06 0)
(2.98827 -1.52681e-05 0)
(2.97568 -3.15325e-05 0)
(2.94905 -6.56848e-05 0)
(2.89071 -0.000139441 0)
(2.75304 -0.00030526 0)
(2.36323 -0.000880925 0)
(0.338515 -0.00560733 0)
(-1.27023 0.031766 0)
(-0.942066 0.0671629 0)
(-0.533014 0.104762 0)
(-0.193706 0.144174 0)
(0.0649132 0.183296 0)
(0.242195 0.220172 0)
(0.308685 0.24354 0)
(0.296054 0.25369 0)
(0.244943 0.248376 0)
(0.0836955 0.235518 0)
(0.00892336 0.177096 0)
(3 -2.93897e-13 0)
(3 -1.77487e-12 0)
(3 -5.67656e-12 0)
(3 -1.45308e-11 0)
(3 -3.35311e-11 0)
(3 -7.33296e-11 0)
(3 -1.55776e-10 0)
(3 -3.2569e-10 0)
(3 -6.75004e-10 0)
(3 -1.39228e-09 0)
(3 -2.86426e-09 0)
(3 -5.8841e-09 0)
(2.99999 -1.20783e-08 0)
(2.99998 -2.47825e-08 0)
(2.99996 -5.08362e-08 0)
(2.99992 -1.04264e-07 0)
(2.99984 -2.1382e-07 0)
(2.99968 -4.3847e-07 0)
(2.99934 -8.99167e-07 0)
(2.99865 -1.84417e-06 0)
(2.99723 -3.78382e-06 0)
(2.99431 -7.77045e-06 0)
(2.98826 -1.59882e-05 0)
(2.97567 -3.30317e-05 0)
(2.94903 -6.88304e-05 0)
(2.89066 -0.000146162 0)
(2.75291 -0.000319939 0)
(2.36232 -0.000928342 0)
(0.344464 -0.00597702 0)
(-1.25785 0.0359335 0)
(-0.930167 0.0752602 0)
(-0.520385 0.116877 0)
(-0.18047 0.159452 0)
(0.077704 0.201536 0)
(0.251974 0.240558 0)
(0.3139 0.263024 0)
(0.29626 0.274792 0)
(0.241242 0.268241 0)
(0.070527 0.249768 0)
(-0.00210975 0.219381 0)
(3 -3.0284e-13 0)
(3 -1.82909e-12 0)
(3 -5.85232e-12 0)
(3 -1.49888e-11 0)
(3 -3.4607e-11 0)
(3 -7.5717e-11 0)
(3 -1.60902e-10 0)
(3 -3.36484e-10 0)
(3 -6.97482e-10 0)
(3 -1.43884e-09 0)
(3 -2.96045e-09 0)
(3 -6.08264e-09 0)
(2.99999 -1.2488e-08 0)
(2.99998 -2.5628e-08 0)
(2.99996 -5.25819e-08 0)
(2.99992 -1.0787e-07 0)
(2.99984 -2.21276e-07 0)
(2.99968 -4.53897e-07 0)
(2.99934 -9.31106e-07 0)
(2.99865 -1.91035e-06 0)
(2.99723 -3.92106e-06 0)
(2.99431 -8.05545e-06 0)
(2.98826 -1.65814e-05 0)
(2.97567 -3.42714e-05 0)
(2.94901 -7.1443e-05 0)
(2.89062 -0.000151777 0)
(2.75278 -0.000332276 0)
(2.36135 -0.000969458 0)
(0.351162 -0.00629936 0)
(-1.24408 0.0403254 0)
(-0.91697 0.0836866 0)
(-0.506939 0.129479 0)
(-0.166505 0.174746 0)
(0.0907503 0.220338 0)
(0.261652 0.260942 0)
(0.318773 0.283069 0)
(0.296259 0.295768 0)
(0.236121 0.289603 0)
(0.0608554 0.261908 0)
(-0.00715377 0.264951 0)
(3 -3.08718e-13 0)
(3 -1.86658e-12 0)
(3 -5.97849e-12 0)
(3 -1.53241e-11 0)
(3 -3.54002e-11 0)
(3 -7.7481e-11 0)
(3 -1.64696e-10 0)
(3 -3.44496e-10 0)
(3 -7.14219e-10 0)
(3 -1.47358e-09 0)
(3 -3.03235e-09 0)
(3 -6.23125e-09 0)
(2.99999 -1.27953e-08 0)
(2.99998 -2.62638e-08 0)
(2.99996 -5.38982e-08 0)
(2.99992 -1.10597e-07 0)
(2.99984 -2.26932e-07 0)
(2.99968 -4.65635e-07 0)
(2.99934 -9.55487e-07 0)
(2.99865 -1.96103e-06 0)
(2.99723 -4.02651e-06 0)
(2.99431 -8.27515e-06 0)
(2.98826 -1.70402e-05 0)
(2.97566 -3.52339e-05 0)
(2.94899 -7.34811e-05 0)
(2.89058 -0.000156186 0)
(2.75264 -0.000342037 0)
(2.36033 -0.00100344 0)
(0.358645 -0.00656566 0)
(-1.22889 0.0450179 0)
(-0.90261 0.0922568 0)
(-0.492659 0.142765 0)
(-0.151845 0.190021 0)
(0.104462 0.239733 0)
(0.270926 0.281461 0)
(0.323291 0.303486 0)
(0.29629 0.316845 0)
(0.229206 0.312422 0)
(0.055352 0.272095 0)
(-0.00661125 0.308962 0)
(3 -3.12371e-13 0)
(3 -1.88851e-12 0)
(3 -6.05293e-12 0)
(3 -1.55236e-11 0)
(3 -3.58767e-11 0)
(3 -7.85504e-11 0)
(3 -1.67007e-10 0)
(3 -3.49391e-10 0)
(3 -7.24489e-10 0)
(3 -1.495e-09 0)
(3 -3.0769e-09 0)
(3 -6.32387e-09 0)
(2.99999 -1.29879e-08 0)
(2.99998 -2.66644e-08 0)
(2.99996 -5.47321e-08 0)
(2.99992 -1.12334e-07 0)
(2.99984 -2.30552e-07 0)
(2.99968 -4.73186e-07 0)
(2.99934 -9.71248e-07 0)
(2.99865 -1.99395e-06 0)
(2.99723 -4.09536e-06 0)
(2.9943 -8.41939e-06 0)
(2.98825 -1.73434e-05 0)
(2.97565 -3.58752e-05 0)
(2.94897 -7.48532e-05 0)
(2.89053 -0.000159195 0)
(2.7525 -0.00034874 0)
(2.35928 -0.00102956 0)
(0.367 -0.00678796 0)
(-1.21224 0.0499272 0)
(-0.887119 0.101214 0)
(-0.476917 0.156389 0)
(-0.136819 0.206066 0)
(0.118924 0.258748 0)
(0.279919 0.302481 0)
(0.327422 0.324159 0)
(0.296456 0.337877 0)
(0.220413 0.335396 0)
(0.0536851 0.285701 0)
(-0.000252969 0.348823 0)
(3 -3.12058e-13 0)
(3 -1.88889e-12 0)
(3 -6.05931e-12 0)
(3 -1.5552e-11 0)
(3 -3.5963e-11 0)
(3 -7.87715e-11 0)
(3 -1.67529e-10 0)
(3 -3.50563e-10 0)
(3 -7.27062e-10 0)
(3 -1.50062e-09 0)
(3 -3.08917e-09 0)
(3 -6.35062e-09 0)
(2.99999 -1.3046e-08 0)
(2.99998 -2.67907e-08 0)
(2.99996 -5.50065e-08 0)
(2.99992 -1.12931e-07 0)
(2.99984 -2.31852e-07 0)
(2.99968 -4.76021e-07 0)
(2.99934 -9.77446e-07 0)
(2.99865 -2.00753e-06 0)
(2.99723 -4.12519e-06 0)
(2.9943 -8.48512e-06 0)
(2.98825 -1.74888e-05 0)
(2.97564 -3.61987e-05 0)
(2.94895 -7.55798e-05 0)
(2.89049 -0.000160869 0)
(2.75235 -0.000352578 0)
(2.35818 -0.00104884 0)
(0.376241 -0.00697748 0)
(-1.19404 0.0549848 0)
(-0.870284 0.111134 0)
(-0.459929 0.169836 0)
(-0.121327 0.223059 0)
(0.133379 0.277356 0)
(0.288856 0.323733 0)
(0.331027 0.345082 0)
(0.296609 0.358934 0)
(0.21072 0.35788 0)
(0.0536121 0.305579 0)
(0.0102507 0.381495 0)
(3 -3.07618e-13 0)
(3 -1.8638e-12 0)
(3 -5.98384e-12 0)
(3 -1.53677e-11 0)
(3 -3.55537e-11 0)
(3 -7.79021e-11 0)
(3 -1.65728e-10 0)
(3 -3.46891e-10 0)
(3 -7.19645e-10 0)
(3 -1.48575e-09 0)
(3 -3.05956e-09 0)
(3 -6.29197e-09 0)
(2.99999 -1.29304e-08 0)
(2.99998 -2.65639e-08 0)
(2.99996 -5.45639e-08 0)
(2.99992 -1.12072e-07 0)
(2.99984 -2.30197e-07 0)
(2.99968 -4.72863e-07 0)
(2.99934 -9.71485e-07 0)
(2.99865 -1.99645e-06 0)
(2.99723 -4.10502e-06 0)
(2.9943 -8.44942e-06 0)
(2.98824 -1.74282e-05 0)
(2.97563 -3.61025e-05 0)
(2.94893 -7.54456e-05 0)
(2.89044 -0.000160749 0)
(2.7522 -0.000352573 0)
(2.35706 -0.00105812 0)
(0.386342 -0.0071054 0)
(-1.1742 0.0603103 0)
(-0.852365 0.121771 0)
(-0.443236 0.183159 0)
(-0.105808 0.240365 0)
(0.147592 0.296492 0)
(0.297642 0.344962 0)
(0.334175 0.366093 0)
(0.296634 0.380055 0)
(0.200885 0.380404 0)
(0.0534505 0.330164 0)
(0.0229517 0.408442 0)
(3 -2.97947e-13 0)
(3 -1.80481e-12 0)
(3 -5.79679e-12 0)
(3 -1.4892e-11 0)
(3 -3.44613e-11 0)
(3 -7.55254e-11 0)
(3 -1.6071e-10 0)
(3 -3.36491e-10 0)
(3 -6.9836e-10 0)
(3 -1.4425e-09 0)
(3 -2.97202e-09 0)
(3 -6.11523e-09 0)
(2.99999 -1.25743e-08 0)
(2.99998 -2.58477e-08 0)
(2.99996 -5.31253e-08 0)
(2.99992 -1.09186e-07 0)
(2.99984 -2.24413e-07 0)
(2.99968 -4.61279e-07 0)
(2.99934 -9.48308e-07 0)
(2.99865 -1.95013e-06 0)
(2.99723 -4.01252e-06 0)
(2.9943 -8.26491e-06 0)
(2.98824 -1.70604e-05 0)
(2.97562 -3.53687e-05 0)
(2.94891 -7.39767e-05 0)
(2.89039 -0.000157786 0)
(2.75205 -0.0003463 0)
(2.35592 -0.00105038 0)
(0.397389 -0.00713251 0)
(-1.15267 0.0659659 0)
(-0.833391 0.132591 0)
(-0.425983 0.196936 0)
(-0.0898237 0.258032 0)
(0.161882 0.316178 0)
(0.30604 0.366415 0)
(0.336814 0.387296 0)
(0.29662 0.40143 0)
(0.191611 0.403758 0)
(0.0533905 0.358013 0)
(0.0366219 0.432374 0)
(3 -2.79616e-13 0)
(3 -1.69469e-12 0)
(3 -5.44676e-12 0)
(3 -1.40011e-11 0)
(3 -3.24129e-11 0)
(3 -7.10645e-11 0)
(3 -1.51291e-10 0)
(3 -3.16957e-10 0)
(3 -6.58257e-10 0)
(3 -1.36065e-09 0)
(3 -2.80556e-09 0)
(3 -5.7774e-09 0)
(2.99999 -1.18897e-08 0)
(2.99998 -2.44615e-08 0)
(2.99996 -5.03204e-08 0)
(2.99992 -1.03513e-07 0)
(2.99984 -2.12945e-07 0)
(2.99968 -4.38101e-07 0)
(2.99934 -9.01471e-07 0)
(2.99865 -1.85548e-06 0)
(2.99723 -3.82117e-06 0)
(2.99429 -7.87771e-06 0)
(2.98823 -1.62753e-05 0)
(2.97561 -3.37706e-05 0)
(2.94889 -7.06973e-05 0)
(2.89035 -0.000150947 0)
(2.7519 -0.000331388 0)
(2.35479 -0.00101969 0)
(0.409441 -0.00704287 0)
(-1.12945 0.0718871 0)
(-0.813251 0.14363 0)
(-0.407774 0.211346 0)
(-0.07328 0.276033 0)
(0.17615 0.336262 0)
(0.31424 0.388031 0)
(0.339012 0.408638 0)
(0.29671 0.423069 0)
(0.18314 0.427764 0)
(0.0532995 0.387232 0)
(0.0502774 0.455057 0)
(3 -2.50392e-13 0)
(3 -1.51987e-12 0)
(3 -4.88873e-12 0)
(3 -1.25719e-11 0)
(3 -2.91186e-11 0)
(3 -6.38866e-11 0)
(3 -1.36129e-10 0)
(3 -2.85474e-10 0)
(3 -5.93504e-10 0)
(3 -1.22822e-09 0)
(3 -2.53563e-09 0)
(3 -5.22835e-09 0)
(2.99999 -1.07742e-08 0)
(2.99998 -2.21963e-08 0)
(2.99996 -4.57225e-08 0)
(2.99992 -9.41825e-08 0)
(2.99984 -1.94011e-07 0)
(2.99968 -3.99687e-07 0)
(2.99934 -8.23532e-07 0)
(2.99865 -1.69731e-06 0)
(2.99723 -3.50004e-06 0)
(2.99429 -7.22504e-06 0)
(2.98823 -1.49461e-05 0)
(2.9756 -3.10523e-05 0)
(2.94887 -6.509e-05 0)
(2.89031 -0.000139176 0)
(2.75176 -0.000305626 0)
(2.35367 -0.000960874 0)
(0.422523 -0.00681708 0)
(-1.10451 0.078123 0)
(-0.791785 0.15503 0)
(-0.388687 0.226296 0)
(-0.0561061 0.294346 0)
(0.190637 0.356786 0)
(0.322048 0.409854 0)
(0.340782 0.430165 0)
(0.296968 0.444967 0)
(0.175637 0.451882 0)
(0.0531847 0.416556 0)
(0.0633314 0.477462 0)
(3 -2.08476e-13 0)
(3 -1.2647e-12 0)
(3 -4.06843e-12 0)
(3 -1.04653e-11 0)
(3 -2.42542e-11 0)
(3 -5.32628e-11 0)
(3 -1.13634e-10 0)
(3 -2.3867e-10 0)
(3 -4.97097e-10 0)
(3 -1.03077e-09 0)
(3 -2.13254e-09 0)
(3 -4.40694e-09 0)
(2.99999 -9.10202e-09 0)
(2.99998 -1.87942e-08 0)
(2.99996 -3.88027e-08 0)
(2.99992 -8.01094e-08 0)
(2.99984 -1.6539e-07 0)
(2.99968 -3.41474e-07 0)
(2.99934 -7.0511e-07 0)
(2.99865 -1.45633e-06 0)
(2.99722 -3.0094e-06 0)
(2.99429 -6.225e-06 0)
(2.98823 -1.29035e-05 0)
(2.97559 -2.68622e-05 0)
(2.94885 -5.64197e-05 0)
(2.89027 -0.000120911 0)
(2.75163 -0.000265561 0)
(2.35259 -0.000865595 0)
(0.436694 -0.00643098 0)
(-1.07782 0.0847099 0)
(-0.769154 0.166795 0)
(-0.368687 0.241799 0)
(-0.0383394 0.313068 0)
(0.20531 0.377575 0)
(0.329665 0.431792 0)
(0.342183 0.451864 0)
(0.297339 0.467147 0)
(0.168984 0.475955 0)
(0.0529292 0.445985 0)
(0.0753219 0.499699 0)
(3 -1.48495e-13 0)
(3 -9.01087e-13 0)
(3 -2.90107e-12 0)
(3 -7.47302e-12 0)
(3 -1.73521e-11 0)
(3 -3.81998e-11 0)
(3 -8.17501e-11 0)
(3 -1.72332e-10 0)
(3 -3.60406e-10 0)
(3 -7.50637e-10 0)
(3 -1.56011e-09 0)
(3 -3.23908e-09 0)
(2.99999 -6.72134e-09 0)
(2.99998 -1.39434e-08 0)
(2.99996 -2.89211e-08 0)
(2.99992 -5.99811e-08 0)
(2.99984 -1.24389e-07 0)
(2.99968 -2.57951e-07 0)
(2.99934 -5.3494e-07 0)
(2.99865 -1.10953e-06 0)
(2.99722 -2.30226e-06 0)
(2.99429 -4.78164e-06 0)
(2.98822 -9.9513e-06 0)
(2.97558 -2.07988e-05 0)
(2.94883 -4.38587e-05 0)
(2.89024 -9.44194e-05 0)
(2.75151 -0.000207465 0)
(2.35157 -0.000725126 0)
(0.452009 -0.00585906 0)
(-1.04934 0.0916565 0)
(-0.745162 0.179068 0)
(-0.347786 0.257776 0)
(-0.0200805 0.332226 0)
(0.220071 0.398628 0)
(0.336953 0.453789 0)
(0.343289 0.473765 0)
(0.297853 0.489662 0)
(0.163383 0.500175 0)
(0.0526082 0.475968 0)
(0.0857886 0.521734 0)
(3 -6.53535e-14 0)
(3 -3.99277e-13 0)
(3 -1.29282e-12 0)
(3 -3.35299e-12 0)
(3 -7.85498e-12 0)
(3 -1.74853e-11 0)
(3 -3.79122e-11 0)
(3 -8.11077e-11 0)
(3 -1.72358e-10 0)
(3 -3.65021e-10 0)
(3 -7.71603e-10 0)
(3 -1.62917e-09 0)
(2.99999 -3.43693e-09 0)
(2.99998 -7.24529e-09 0)
(2.99996 -1.5263e-08 0)
(2.99992 -3.21315e-08 0)
(2.99984 -6.76001e-08 0)
(2.99968 -1.42139e-07 0)
(2.99934 -2.98724e-07 0)
(2.99865 -6.27611e-07 0)
(2.99722 -1.31858e-06 0)
(2.99429 -2.77189e-06 0)
(2.98822 -5.83732e-06 0)
(2.97558 -1.23441e-05 0)
(2.94882 -2.63406e-05 0)
(2.89021 -5.7493e-05 0)
(2.75141 -0.000126691 0)
(2.35066 -0.000528671 0)
(0.468501 -0.00506577 0)
(-1.01904 0.0990258 0)
(-0.719926 0.191821 0)
(-0.326028 0.274272 0)
(-0.00121921 0.351809 0)
(0.234961 0.419901 0)
(0.344088 0.475695 0)
(0.344192 0.495855 0)
(0.298524 0.51252 0)
(0.158834 0.524632 0)
(0.0521395 0.506613 0)
(0.0942649 0.543884 0)
(3 4.58424e-14 0)
(3 2.74935e-13 0)
(3 8.67808e-13 0)
(3 2.17781e-12 0)
(3 4.8911e-12 0)
(3 1.03256e-11 0)
(3 2.09746e-11 0)
(3 4.15067e-11 0)
(3 8.05783e-11 0)
(3 1.54051e-10 0)
(3 2.90577e-10 0)
(3 5.41032e-10 0)
(2.99999 9.93721e-10 0)
(2.99998 1.79715e-09 0)
(2.99996 3.18948e-09 0)
(2.99992 5.52364e-09 0)
(2.99984 9.24725e-09 0)
(2.99968 1.47145e-08 0)
(2.99934 2.14971e-08 0)
(2.99865 2.63375e-08 0)
(2.99722 1.76057e-08 0)
(2.99429 -3.90563e-08 0)
(2.98822 -2.3743e-07 0)
(2.97558 -8.25799e-07 0)
(2.94882 -2.46529e-06 0)
(2.8902 -7.2e-06 0)
(2.75134 -1.7061e-05 0)
(2.34987 -0.000262743 0)
(0.486252 -0.00401337 0)
(-0.986894 0.106849 0)
(-0.693384 0.205111 0)
(-0.303417 0.291287 0)
(0.0179631 0.371845 0)
(0.249789 0.441426 0)
(0.35097 0.497272 0)
(0.345028 0.518162 0)
(0.299413 0.535717 0)
(0.155597 0.549279 0)
(0.0517163 0.537864 0)
(0.100512 0.566771 0)
(3 1.94303e-13 0)
(3 1.16935e-12 0)
(3 3.72334e-12 0)
(3 9.47599e-12 0)
(3 2.17016e-11 0)
(3 4.69953e-11 0)
(3 9.86153e-11 0)
(3 2.03193e-10 0)
(3 4.14192e-10 0)
(3 8.38866e-10 0)
(3 1.6923e-09 0)
(3 3.40573e-09 0)
(2.99999 6.84356e-09 0)
(2.99998 1.37379e-08 0)
(2.99996 2.75585e-08 0)
(2.99992 5.52543e-08 0)
(2.99984 1.10738e-07 0)
(2.99968 2.21858e-07 0)
(2.99934 4.44357e-07 0)
(2.99865 8.89826e-07 0)
(2.99722 1.78182e-06 0)
(2.99429 3.56905e-06 0)
(2.98822 7.15587e-06 0)
(2.97558 1.43814e-05 0)
(2.94882 2.90557e-05 0)
(2.89021 5.91863e-05 0)
(2.75131 0.000127502 0)
(2.34925 8.79036e-05 0)
(0.505309 -0.00264632 0)
(-0.952875 0.115182 0)
(-0.665571 0.218981 0)
(-0.279944 0.308798 0)
(0.0376652 0.392362 0)
(0.264519 0.463171 0)
(0.357731 0.518245 0)
(0.345968 0.540839 0)
(0.300491 0.559101 0)
(0.153715 0.574202 0)
(0.0515015 0.569918 0)
(0.104494 0.591108 0)
(3 3.88027e-13 0)
(3 2.33693e-12 0)
(3 7.44984e-12 0)
(3 1.8995e-11 0)
(3 4.36146e-11 0)
(3 9.47771e-11 0)
(3 1.99759e-10 0)
(3 4.13776e-10 0)
(3 8.48569e-10 0)
(3 1.7302e-09 0)
(3 3.51598e-09 0)
(3 7.13091e-09 0)
(2.99999 1.44459e-08 0)
(2.99998 2.92447e-08 0)
(2.99996 5.91793e-08 0)
(2.99992 1.19724e-07 0)
(2.99984 2.42172e-07 0)
(2.99968 4.89812e-07 0)
(2.99934 9.90672e-07 0)
(2.99865 2.00389e-06 0)
(2.99722 4.05459e-06 0)
(2.99429 8.20977e-06 0)
(2.98822 1.66488e-05 0)
(2.97558 3.38726e-05 0)
(2.94883 6.93852e-05 0)
(2.89023 0.000143992 0)
(2.75134 0.000311926 0)
(2.34886 0.00053447 0)
(0.525796 -0.000927154 0)
(-0.916943 0.124044 0)
(-0.636515 0.233543 0)
(-0.25563 0.326716 0)
(0.0575542 0.413585 0)
(0.278963 0.485011 0)
(0.36438 0.538383 0)
(0.347188 0.564226 0)
(0.301769 0.582373 0)
(0.153586 0.599264 0)
(0.0518053 0.602644 0)
(0.106371 0.617434 0)
(3 6.39878e-13 0)
(3 3.85681e-12 0)
(3 1.23004e-11 0)
(3 3.13814e-11 0)
(3 7.21161e-11 0)
(3 1.56897e-10 0)
(3 3.31201e-10 0)
(3 6.87334e-10 0)
(3 1.41261e-09 0)
(3 2.88709e-09 0)
(3 5.88188e-09 0)
(3 1.19613e-08 0)
(2.99999 2.42987e-08 0)
(2.99998 4.93312e-08 0)
(2.99996 1.00116e-07 0)
(2.99992 2.03141e-07 0)
(2.99984 4.12131e-07 0)
(2.99968 8.36081e-07 0)
(2.99934 1.69616e-06 0)
(2.99865 3.44143e-06 0)
(2.99723 6.98484e-06 0)
(2.99429 1.41875e-05 0)
(2.98823 2.88643e-05 0)
(2.9756 5.89265e-05 0)
(2.94886 0.000121166 0)
(2.89028 0.000252761 0)
(2.75143 0.000548219 0)
(2.34873 0.00110549 0)
(0.5477 0.00122113 0)
(-0.879134 0.133503 0)
(-0.606196 0.248811 0)
(-0.230333 0.345019 0)
(0.0781169 0.435574 0)
(0.292826 0.506948 0)
(0.371194 0.558266 0)
(0.348779 0.587797 0)
(0.30311 0.605843 0)
(0.155106 0.624322 0)
(0.0528676 0.635537 0)
(0.106537 0.645929 0)
(3 9.68405e-13 0)
(3 5.83693e-12 0)
(3 1.86174e-11 0)
(3 4.75088e-11 0)
(3 1.09216e-10 0)
(3 2.37735e-10 0)
(3 5.02198e-10 0)
(3 1.04312e-09 0)
(3 2.14604e-09 0)
(3 4.39117e-09 0)
(3 8.95742e-09 0)
(3 1.824e-08 0)
(2.99999 3.71053e-08 0)
(2.99998 7.54399e-08 0)
(2.99996 1.53329e-07 0)
(2.99992 3.11579e-07 0)
(2.99984 6.33092e-07 0)
(2.99968 1.28632e-06 0)
(2.99934 2.61361e-06 0)
(2.99865 5.31122e-06 0)
(2.99723 1.0797e-05 0)
(2.9943 2.1966e-05 0)
(2.98824 4.47643e-05 0)
(2.97562 9.15476e-05 0)
(2.9489 0.000188611 0)
(2.89037 0.000394491 0)
(2.7516 0.000856269 0)
(2.34893 0.00184971 0)
(0.570958 0.00390826 0)
(-0.839652 0.143708 0)
(-0.574891 0.264928 0)
(-0.204253 0.364276 0)
(0.0993278 0.457416 0)
(0.306036 0.529349 0)
(0.377946 0.578579 0)
(0.350847 0.610834 0)
(0.304632 0.629885 0)
(0.15839 0.649361 0)
(0.0550948 0.668507 0)
(0.105512 0.676631 0)
(3 1.39624e-12 0)
(3 8.41688e-12 0)
(3 2.6851e-11 0)
(3 6.85278e-11 0)
(3 1.57564e-10 0)
(3 3.43065e-10 0)
(3 7.2495e-10 0)
(3 1.50647e-09 0)
(3 3.10101e-09 0)
(3 6.34923e-09 0)
(3 1.29607e-08 0)
(3 2.64118e-08 0)
(2.99999 5.37722e-08 0)
(2.99998 1.09418e-07 0)
(2.99996 2.22586e-07 0)
(2.99992 4.52732e-07 0)
(2.99984 9.20787e-07 0)
(2.99968 1.87275e-06 0)
(2.99934 3.80922e-06 0)
(2.99865 7.7496e-06 0)
(2.99723 1.57728e-05 0)
(2.9943 3.21305e-05 0)
(2.98825 6.55701e-05 0)
(2.97564 0.000134307 0)
(2.94896 0.000277204 0)
(2.8905 0.00058117 0)
(2.75188 0.00126384 0)
(2.34954 0.00283783 0)
(0.595668 0.00732661 0)
(-0.798356 0.154542 0)
(-0.542301 0.281773 0)
(-0.177686 0.384614 0)
(0.120859 0.479002 0)
(0.319146 0.551919 0)
(0.38452 0.599398 0)
(0.353418 0.633603 0)
(0.306432 0.654644 0)
(0.163473 0.674525 0)
(0.0586893 0.701638 0)
(0.103772 0.709606 0)
(3 1.95543e-12 0)
(3 1.17891e-11 0)
(3 3.76118e-11 0)
(3 9.59923e-11 0)
(3 2.2071e-10 0)
(3 4.80552e-10 0)
(3 1.0155e-09 0)
(3 2.11036e-09 0)
(3 4.34443e-09 0)
(3 8.89604e-09 0)
(3 1.81618e-08 0)
(3 3.70162e-08 0)
(2.99999 7.53735e-08 0)
(2.99998 1.534e-07 0)
(2.99996 3.12114e-07 0)
(2.99992 6.34965e-07 0)
(2.99984 1.29173e-06 0)
(2.99968 2.62793e-06 0)
(2.99934 5.347e-06 0)
(2.99865 1.08822e-05 0)
(2.99724 2.21581e-05 0)
(2.99431 4.51603e-05 0)
(2.98827 9.22131e-05 0)
(2.97569 0.000189003 0)
(2.94904 0.000390397 0)
(2.89069 0.000819343 0)
(2.75231 0.00178249 0)
(2.35071 0.00409297 0)
(0.622191 0.01162 0)
(-0.755545 0.166424 0)
(-0.508555 0.299408 0)
(-0.150586 0.405756 0)
(0.14241 0.500871 0)
(0.332003 0.574219 0)
(0.390966 0.620498 0)
(0.356607 0.656173 0)
(0.30864 0.680003 0)
(0.170217 0.700082 0)
(0.0637609 0.735254 0)
(0.101771 0.745308 0)
(3 2.692e-12 0)
(3 1.62314e-11 0)
(3 5.17925e-11 0)
(3 1.32189e-10 0)
(3 3.03912e-10 0)
(3 6.61603e-10 0)
(3 1.39781e-09 0)
(3 2.90413e-09 0)
(3 5.97687e-09 0)
(3 1.22351e-08 0)
(3 2.49707e-08 0)
(3 5.08769e-08 0)
(2.99999 1.03562e-07 0)
(2.99998 2.107e-07 0)
(2.99996 4.28562e-07 0)
(2.99992 8.71603e-07 0)
(2.99984 1.77264e-06 0)
(2.99968 3.60541e-06 0)
(2.99935 7.3343e-06 0)
(2.99866 1.49241e-05 0)
(2.99724 3.0384e-05 0)
(2.99433 6.19199e-05 0)
(2.9883 0.00012643 0)
(2.97574 0.000259143 0)
(2.94917 0.000535335 0)
(2.89095 0.00112385 0)
(2.75292 0.00244449 0)
(2.35252 0.00569218 0)
(0.65022 0.0170056 0)
(-0.711077 0.17959 0)
(-0.474211 0.318047 0)
(-0.123541 0.427683 0)
(0.163944 0.522943 0)
(0.344688 0.596046 0)
(0.397315 0.641619 0)
(0.360463 0.678531 0)
(0.311394 0.705776 0)
(0.178642 0.726284 0)
(0.0705646 0.769146 0)
(0.0999279 0.784431 0)
(3 3.67729e-12 0)
(3 2.21762e-11 0)
(3 7.07725e-11 0)
(3 1.80632e-10 0)
(3 4.15232e-10 0)
(3 9.0372e-10 0)
(3 1.90869e-09 0)
(3 3.96387e-09 0)
(3 8.15389e-09 0)
(3 1.66825e-08 0)
(3 3.40272e-08 0)
(3 6.92843e-08 0)
(2.99999 1.40933e-07 0)
(2.99998 2.86515e-07 0)
(2.99996 5.82295e-07 0)
(2.99992 1.18321e-06 0)
(2.99985 2.40405e-06 0)
(2.99968 4.88447e-06 0)
(2.99935 9.92471e-06 0)
(2.99866 2.01696e-05 0)
(2.99725 4.10066e-05 0)
(2.99435 8.34415e-05 0)
(2.98834 0.000170091 0)
(2.97582 0.000347989 0)
(2.94933 0.000717342 0)
(2.89132 0.00150206 0)
(2.75378 0.00325198 0)
(2.3552 0.00760299 0)
(0.680667 0.023333 0)
(-0.665158 0.192482 0)
(-0.438916 0.337586 0)
(-0.0964045 0.450703 0)
(0.185058 0.54515 0)
(0.35714 0.617076 0)
(0.403703 0.662398 0)
(0.36513 0.700451 0)
(0.314925 0.73149 0)
(0.188377 0.753203 0)
(0.0794651 0.803386 0)
(0.0989554 0.828074 0)
(3 5.02353e-12 0)
(3 3.02986e-11 0)
(3 9.67063e-11 0)
(3 2.46837e-10 0)
(3 5.67417e-10 0)
(3 1.23486e-09 0)
(3 2.6078e-09 0)
(3 5.41502e-09 0)
(3 1.11371e-08 0)
(3 2.27817e-08 0)
(3 4.64571e-08 0)
(3 9.45689e-08 0)
(2.99999 1.92308e-07 0)
(2.99998 3.90827e-07 0)
(2.99996 7.93983e-07 0)
(2.99993 1.61263e-06 0)
(2.99985 3.27488e-06 0)
(2.99968 6.6499e-06 0)
(2.99935 1.35029e-05 0)
(2.99867 2.74207e-05 0)
(2.99726 5.57014e-05 0)
(2.99437 0.000113235 0)
(2.98839 0.000230572 0)
(2.97592 0.000471144 0)
(2.94955 0.00096979 0)
(2.89178 0.00202698 0)
(2.75485 0.00437384 0)
(2.35852 0.0102526 0)
(0.708938 0.0318303 0)
(-0.62224 0.206933 0)
(-0.402755 0.35829 0)
(-0.0680081 0.474397 0)
(0.206036 0.567101 0)
(0.369335 0.636991 0)
(0.410211 0.682398 0)
(0.370628 0.721653 0)
(0.31948 0.756953 0)
(0.199697 0.781341 0)
(0.0911346 0.839034 0)
(0.0997492 0.87697 0)