/*--------------------------------*- C++ -*----------------------------------*\
  =========                 |
  \\      /  F ield         | OpenFOAM: The Open Source CFD Toolbox
   \\    /   O peration     | Website:  https://openfoam.org
    \\  /    A nd           | Version:  6.0
     \\/     M anipulation  |
\*---------------------------------------------------------------------------*/
FoamFile
{
    version     2.0;
    format      ascii;
    class       volScalarField;
    location    "2.50067029";
    object      p;
}
// * * * * * * * * * * * * * * * * * * * * * * * * * * * * * * * * * * * * * //

dimensions      [1 -1 -2 0 0 0 0];

internalField   nonuniform List<scalar> 
4800
(
1
1
1
1
1
1
1
1
1
1
1
1
1
1
1
1
1
1
1
1
1.43978
7.88149
10.6731
10.7095
10.6859
10.5578
10.7766
11.6166
12.5038
12.7544
12.2368
11.1443
10.5239
10.5661
11.1222
12.0623
12.7338
12.4274
11.2402
10.4482
1
1
1
1
1
1
1
1
1
1
1
1
1
1
1
1
1
1
1
1
1.43414
7.86628
10.6547
10.7512
10.7991
10.8325
11.0001
11.1389
11.3851
11.6577
11.5434
11.7028
11.7779
11.8343
12.1352
12.226
12.1922
11.9665
11.8801
11.9965
1
1
1
1
1
1
1
1
1
1
1
1
1
1
1
1
1
1
1
1
1.4262
7.84594
10.5926
10.6939
10.8551
11.1211
11.155
10.8975
10.5817
10.412
10.8174
11.6689
12.3526
12.6062
12.629
12.181
11.5501
11.5018
12.0744
12.7573
1
1
1
1
1
1
1
1
1
1
1
1
1
1
1
1
1
1
1
1
1.41856
7.80535
10.4985
10.5825
10.9719
11.3018
11.3556
11.0086
10.3392
10.1318
10.7742
11.4586
12.3304
12.6962
12.3734
11.4523
10.9009
11.3721
11.9949
12.7056
1
1
1
1
1
1
1
1
1
1
1
1
1
1
1
1
1
1
1
1
1.40344
7.75219
10.492
10.5891
10.8885
11.2483
11.3501
11.0895
10.734
10.6936
11.2817
12.1773
12.3796
11.9608
11.3012
10.7944
10.8614
11.5501
12.5217
12.8894
1
1
1
1
1
1
1
1
1
1
1
1
1
1
1
1
1
1
1
1
1.38382
7.68804
10.51
10.6885
10.8384
10.9645
11.1193
11.229
11.4705
11.9478
12.0276
12.0224
11.8982
11.1507
10.7348
11.0741
11.5702
12.203
12.248
12.2851
1
1
1
1
1
1
1
1
1
1
1
1
1
1
1
1
1
1
1
1
1.35833
7.63714
10.5948
10.773
10.8301
10.7702
10.7006
11.0838
12.0028
12.6644
13.0013
12.3432
10.9547
10.629
11.2384
12.1313
12.723
12.6375
12.0043
10.9153
1
1
1
1
1
1
1
1
1
1
1
1
1
1
1
1
1
1
1
1
1.33504
7.58437
10.6763
10.8009
10.8641
10.6717
10.638
11.1584
11.9182
12.3709
12.0375
11.0172
10.7568
11.1808
12.0995
13.0679
13.3499
12.6805
10.9376
10.5747
1
1
1
1
1
1
1
1
1
1
1
1
1
1
1
1
1
1
1
1
1.30778
7.50786
10.6449
10.7642
10.7866
10.7435
10.9186
11.2164
11.4241
11.3599
10.8422
10.8732
11.1357
11.587
12.1956
12.9858
12.8972
11.7639
10.9347
10.8583
1
1
1
1
1
1
1
1
1
1
1
1
1
1
1
1
1
1
1
1
1.26773
7.40505
10.6098
10.6199
10.6786
10.8663
11.2009
11.3314
11.0972
10.4633
10.0265
10.3071
11.1401
12.0258
12.5791
12.154
11.3401
11.1222
10.8502
10.9253
1
1
1
1
1
1
1
1
1
1
1
1
1
1
1
1
1
1
1
1
1.22398
7.28648
10.608
10.5064
10.5682
10.9601
11.3397
11.4322
11.0569
10.2975
10.0143
10.3393
11.4307
12.4223
12.075
11.1225
10.4276
11.0253
12.1433
13.0626
1
1
1
1
1
1
1
1
1
1
1
1
1
1
1
1
1
1
1
1
1.1846
7.16083
10.565
10.5107
10.6869
10.9644
11.2243
11.2709
10.9555
10.7023
10.8769
11.8271
12.3562
12.345
11.6069
10.1466
10.338
11.6729
13.3539
14.3381
1
1
1
1
1
1
1
1
1
1
1
1
1
1
1
1
1
1
1
1
1.14547
7.01144
10.4555
10.6081
10.8748
11.0305
11.0421
10.8096
10.7342
11.3915
12.5589
12.929
13.1674
12.1776
10.4426
10.6446
11.1483
12.5719
13.7742
14.4725
1
1
1
1
1
1
1
1
1
1
1
1
1
1
1
1
1
1
1
1
1.10314
6.87495
10.3495
10.6716
10.9916
11.1175
10.9517
10.5989
10.8791
12.0017
13.0011
13.625
12.8394
10.7459
10.761
11.3677
12.5179
12.9265
12.4525
11.572
1
1
1
1
1
1
1
1
1
1
1
1
1
1
1
1
1
1
1
1
1.05039
6.79878
10.4685
10.6607
10.8601
11.0303
10.9867
10.835
11.2594
11.8569
12.4691
12.0951
10.5361
10.5956
11.1085
12.2932
13.0624
12.6454
11.037
10.5432
1
1
1
1
1
1
1
1
1
1
1
1
1
1
1
1
1
1
1
1
1.00731
6.70328
10.605
10.6936
10.7236
10.71
10.7718
11.1508
11.5843
11.7491
11.2498
9.85437
9.82547
10.4342
12.0866
12.9823
12.6245
11.4313
10.7716
11.2537
1
1
1
1
1
1
1
1
1
1
1
1
1
1
1
1
1
1
1
1
1.00025
6.521
10.6025
10.6775
10.6353
10.3986
10.4347
11.0897
11.6616
11.5556
10.1828
9.38549
9.70886
10.9739
12.5072
12.6861
11.8873
10.5104
10.9917
11.9573
1
1
1
1
1
1
1
1
1
1
1
1
1
1
1
1
1
1
1
1
0.999983
6.29255
10.4931
10.5818
10.4559
10.3615
10.6621
11.2191
11.4376
10.8881
10.1669
9.99697
10.5118
12.2403
12.7603
12.3461
10.3505
10.2796
11.1643
12.0531
1
1
1
1
1
1
1
1
1
1
1
1
1
1
1
1
1
1
1
1
0.999994
6.01949
10.3107
10.3849
10.5356
10.8014
11.1667
11.222
11.0371
10.4246
10.2636
11.1833
12.5742
12.8108
12.4376
10.3644
10.3481
10.5209
10.958
11.3424
1
1
1
1
1
1
1
1
1
1
1
1
1
1
1
1
1
1
1
1
1
5.75517
10.1563
10.2167
10.6032
11.1768
11.3966
11.2945
10.791
10.3152
10.915
12.6016
13.3708
12.7616
10.5179
9.98923
10.7001
11.3541
11.0481
10.3907
1
1
1
1
1
1
1
1
1
1
1
1
1
1
1
1
1
1
1
1
0.999999
5.52536
10.1036
10.3512
10.7131
10.99
11.2208
11.201
10.7033
10.8647
12.2045
12.8163
12.8012
11.3902
9.57024
9.63124
10.9984
12.8015
12.3107
11.497
1
1
1
1
1
1
1
1
1
1
1
1
1
1
1
1
1
1
1
1
0.999999
5.34777
10.1742
10.6271
10.7402
10.7934
10.8014
10.5945
10.7854
11.6769
12.3953
12.4971
11.8919
10.1174
9.7387
10.1523
11.8483
12.9949
13.4994
13.8779
1
1
1
1
1
1
1
1
1
1
1
1
1
1
1
1
1
1
1
1
0.999999
5.1281
10.236
10.68
10.7649
10.7299
10.3983
10.1893
10.6365
11.7404
12.2086
11.6296
9.65363
10.1403
11.3709
12.7714
12.6808
12.3236
13.2025
14.3378
1
1
1
1
1
1
1
1
1
1
1
1
1
1
1
1
1
1
1
1
1
4.85603
10.1825
10.6318
10.7482
10.4797
10.3065
10.4149
11.1669
11.398
11.247
9.75551
9.72106
10.5552
13.0309
13.5792
12.9215
11.4442
11.5695
13.0993
1
1
1
1
1
1
1
1
1
1
1
1
1
1
1
1
1
1
1
1
1
4.57929
10.0768
10.3629
10.3262
10.4096
10.5156
11.1782
11.3014
11.1528
10.1135
9.40981
9.76388
11.481
13.1041
13.5281
12.7234
10.6411
10.038
10.045
1
1
1
1
1
1
1
1
1
1
1
1
1
1
1
1
1
1
1
1
1
4.28084
9.94439
10.0752
10.0104
10.2871
11.051
11.3755
11.3928
10.8545
9.83438
9.62754
10.6759
12.1755
12.577
11.9734
10.4684
10.4435
10.1071
9.74844
1
1
1
1
1
1
1
1
1
1
1
1
1
1
1
1
1
1
1
1
1
3.93988
9.72578
9.94395
10.0787
10.5831
11.0147
11.2249
11.2065
10.5629
10.1636
11.1105
12.2332
11.9932
11.3289
9.50166
9.88851
10.1724
10.2216
9.80939
1
1
1
1
1
1
1
1
1
1
1
1
1
1
1
1
1
1
1
1
1
3.61178
9.4958
10.1397
10.6186
10.8645
10.8871
10.8704
10.5585
10.3138
10.8893
12.185
12.258
11.9249
9.63035
9.30229
9.78801
10.0157
9.87846
9.57085
1
1
1
1
1
1
1
1
1
1
1
1
1
1
1
1
1
1
1
1
1
3.35173
9.31109
10.6254
10.8903
10.9485
10.9149
10.5909
10.1946
10.3045
11.6166
12.1032
12.2321
10.8029
9.42141
9.47466
10.2275
10.8391
10.213
9.55782
1
1
1
1
1
1
1
1
1
1
1
1
1
1
1
1
1
1
1
1
1
3.14039
9.36432
10.6723
10.8809
10.9554
10.576
10.1182
10.2325
10.8808
11.5602
11.8917
11.3602
9.99066
9.42942
9.95677
11.4361
12.495
12.058
11.5558
1
1
1
1
1
1
1
1
1
1
1
1
1
1
1
1
1
1
1
1
1
2.87162
9.3611
10.5434
10.6454
10.3416
10.0974
10.1144
10.3905
11.3222
11.5112
11.2309
9.81458
9.93281
10.902
12.4026
12.7031
12.3096
13.4466
14.7917
1
1
1
1
1
1
1
1
1
1
1
1
1
1
1
1
1
1
1
1
1
2.57451
9.09416
10.44
10.0865
9.89157
9.85489
10.0766
11.0717
11.3406
11.299
9.9647
9.68218
10.233
12.3822
12.7243
12.4581
11.7082
13.0406
14.756
1
1
1
1
1
1
1
1
1
1
1
1
1
1
1
1
1
1
1
1
1
2.28481
8.73907
10.1439
9.7882
9.84102
10.2063
11.039
11.2131
11.141
10.1996
9.67005
9.73882
11.5798
12.5405
12.7294
12.2351
10.9205
11.2991
12.4237
1
1
1
1
1
1
1
1
1
1
1
1
1
1
1
1
1
1
1
1
1
1.93722
8.23783
10.0332
9.86801
10.2964
11.1238
11.2871
11.1631
10.509
9.7728
9.7957
11.0089
11.7463
12.1756
11.2807
9.63218
9.16028
8.69112
8.42386
1
1
1
1
1
1
1
1
1
1
1
1
1
1
1
1
1
1
1
1
1
1.60188
7.80585
9.92419
10.3699
10.9928
11.2035
11.2545
10.7063
9.82387
9.80607
10.5755
11.6434
11.616
10.6891
8.80602
8.89721
8.95263
8.41605
7.98018
1
1
1
1
1
1
1
1
1
1
1
1
1
1
1
1
1
1
1
1
1
1.34679
7.73729
10.3772
10.8535
11.0233
10.9987
10.4851
9.78936
9.70649
9.96371
11.3565
11.5291
11.2608
8.99604
8.47403
8.64617
8.77143
8.29241
7.93557
1
1
1
1
1
1
1
1
1
1
1
1
1
1
1
1
1
1
1
1
1
1.12015
7.62542
10.7209
10.7554
10.7796
10.2182
9.52861
9.71582
9.96708
11.1643
11.3021
11.3079
10.0594
8.64945
8.34235
8.43614
8.54051
8.18889
7.80048
1
1
1
1
1
1
1
1
1
1
1
1
1
1
1
1
1
1
1
1
1
1.00979
7.35845
10.6504
10.5541
10.3618
9.41931
9.30792
9.73104
11.0081
11.4111
11.1799
10.5244
9.38445
8.89075
8.74332
9.13257
8.81981
8.12896
7.42145
1
1
1
1
1
1
1
1
1
1
1
1
1
1
1
1
1
1
1
1
1
1.00004
6.78597
10.4145
10.1347
9.62302
9.2513
9.38213
10.4458
11.4262
11.3924
10.9782
9.37646
9.2477
9.79265
11.9562
12.314
11.6276
8.31732
6.78419
1
1
1
1
1
1
1
1
1
1
1
1
1
1
1
1
1
1
1
1
1
0.999996
5.97714
9.84371
9.62028
9.41721
9.70883
10.6783
11.2255
11.2223
10.8587
9.66912
9.33401
9.93776
11.9718
12.4915
12.202
12.0107
11.6202
10.2781
1
1
1
1
1
1
1
1
1
1
1
1
1
1
1
1
1
1
1
1
1
0.999999
4.76575
9.58959
9.96473
10.2545
10.5285
10.6838
10.4706
10.0525
9.80107
10.008
10.4974
10.815
10.8292
10.301
9.72386
9.2511
9.43266
8.52097
1
1
1
1
1
1
1
1
1
1
1
1
1
1
1
1
1
1
1
1
1
1
2.89053
8.97285
10.0608
10.1325
10.1078
9.99448
9.94726
10.0497
10.2544
10.3128
10.2278
10.0093
9.64513
9.35715
9.02198
8.37555
7.2255
5.55479
1
1
1
1
1
1
1
1
1
1
1
1
1
1
1
1
1
1
1
1
1
1
1.32826
7.56606
10.1361
9.98419
9.9297
9.91957
9.9605
10.0073
9.97663
9.88797
9.75246
9.63431
9.52522
9.336
8.91287
8.19612
7.13772
5.73818
1
1
1
1
1
1
1
1
1
1
1
1
1
1
1
1
1
1
1
1
1
1
1.00705
5.4243
9.54182
9.70176
9.78261
9.79223
9.75006
9.66835
9.60207
9.58162
9.56601
9.44642
9.20952
8.86296
8.39991
7.79854
7.01736
5.91233
1
1
1
1
1
1
1
1
1
1
1
1
1
1
1
1
1
1
1
1
1
1
0.999962
2.74383
8.63505
9.62727
9.65541
9.6136
9.5478
9.48154
9.43816
9.38172
9.27565
9.07951
8.79621
8.42873
7.97764
7.46841
6.76301
5.90378
1
1
1
1
1
1
1
1
1
1
1
1
1
1
1
1
1
1
1
1
1
1
0.999991
1.16782
6.76245
9.59307
9.54089
9.48961
9.43616
9.35472
9.23969
9.09586
8.95127
8.78684
8.53154
8.18372
7.70948
7.20379
6.61109
5.90657
1
1
1
1
1
1
1
1
1
1
1
1
1
1
1
1
1
1
1
1
1
1
0.999999
1.00139
3.83211
8.88018
9.34071
9.34968
9.2959
9.16971
9.01874
8.88051
8.73984
8.54088
8.26583
7.92052
7.48227
7.02192
6.51285
5.92987
1
1
1
1
1
1
1
1
1
1
1
1
1
1
1
1
1
1
1
1
1
1
1
0.999995
1.35596
7.352
9.41456
9.28379
9.17507
9.02188
8.87956
8.74558
8.56443
8.30758
8.02752
7.68876
7.30484
6.8735
6.41048
5.91217
1
1
1
1
1
1
1
1
1
1
1
1
1
1
1
1
1
1
1
1
1
1
1
0.999999
1.00697
4.36012
8.72209
9.02506
8.99919
8.89196
8.74744
8.58223
8.36868
8.11556
7.8558
7.54387
7.18349
6.78037
6.34335
5.87138
1
1
1
1
1
1
1
1
1
1
1
1
1
1
1
1
1
1
1
1
1
1
1
1
0.999987
1.47899
7.21646
9.08102
8.91756
8.80343
8.63661
8.44188
8.22234
7.99621
7.74769
7.45907
7.11769
6.74034
6.32585
5.87998
1
1
1
1
1
1
1
1
1
1
1
1
1
1
1
1
1
1
1
1
1
1
1
1
0.999997
1.01212
4.14022
8.43236
8.65335
8.62074
8.49899
8.33086
8.12591
7.89878
7.64532
7.36483
7.05444
6.72025
6.34734
5.93493
1
1
1
1
1
1
1
1
1
1
1
1
1
1
1
1
1
1
1
1
1
1
1
1
1
1
1.4233
6.51918
8.65327
8.48515
8.39061
8.23809
8.05835
7.82988
7.56742
7.28684
7.00097
6.70698
6.37981
6.00242
1
1
1
1
1
1
1
1
1
1
1
1
1
1
1
1
1
1
1
1
1
1
1
1
1
1
1.00946
3.03316
7.82129
8.31219
8.22034
8.114
7.97102
7.76456
7.50663
7.22147
6.94837
6.68559
6.39388
6.05067
1
1
1
1
1
1
1
1
1
1
1
1
1
1
1
1
1
1
1
1
1
1
1
1
1
1
1.00002
1.19004
5.26747
8.1764
8.14384
8.04092
7.89889
7.70604
7.46151
7.18616
6.92363
6.66897
6.38973
6.07543
1
1
1
1
1
1
1
1
1
1
1
1
1
1
1
1
1
1
1
1
1
1
1
1
1
1
1
1.00214
1.85973
6.52104
8.00568
7.92441
7.80392
7.6323
7.41546
7.16846
6.92354
6.66556
6.3838
6.09311
1
1
1
1
1
1
1
1
1
1
1
1
1
1
1
1
1
1
1
1
1
1
1
1
1
1
1
1
1.03682
2.94603
7.35263
7.92433
7.76176
7.60554
7.41121
7.18824
6.95524
6.69096
6.40424
6.13063
1
1
1
1
1
1
1
1
1
1
1
1
1
1
1
1
1
1
1
1
1
1
1
1
1
1
1
1
1.00021
1.17924
4.62425
7.625
7.67199
7.5313
7.36535
7.17302
6.96024
6.70557
6.4341
6.18262
1
1
1
1
1
1
1
1
1
1
1
1
1
1
1
1
1
1
1
1
1
1
1
1
1
1
1
1
1
1.0022
1.62282
5.62619
7.53359
7.45887
7.31504
7.14487
6.95276
6.72318
6.48301
6.25136
1
1
1
1
1
1
1
1
1
1
1
1
1
1
1
1
1
1
1
1
1
1
1
1
1
1
1
1
1
1.00001
1.02009
2.19923
6.23505
7.41711
7.27269
7.12186
6.9431
6.73541
6.52478
6.30817
1
1
1
1
1
1
1
1
1
1
1
1
1
1
1
1
1
1
1
1
1
1
1
1
1
1
1
1
1
1
1.00011
1.06974
2.88068
6.61297
7.26269
7.0737
6.92184
6.73918
6.54661
6.34185
1
1
1
1
1
1
1
1
1
1
1
1
1
1
1
1
1
1
1
1
1
1
1
1
1
1
1
1
1
1
1
1.00063
1.16989
3.62604
6.75489
7.07436
6.8878
6.72286
6.55034
6.35565
1
1
1
1
1
1
1
1
1
1
1
1
1
1
1
1
1
1
1
1
1
1
1
1
1
1
1
1
1
1
1
1
1.00243
1.34135
4.25217
6.73788
6.8877
6.70966
6.53867
6.35841
1
1
1
1
1
1
1
1
1
1
1
1
1
1
1
1
1
1
1
1
1
1
1
1
1
1
1
1
1
1
1
1
1.00001
1.00772
1.56524
4.66142
6.62795
6.72129
6.53844
6.354
1
1
1
1
1
1
1
1
1
1
1
1
1
1
1
1
1
1
1
1
1
1
1
1
1
1
1
1
1
1
1
1
1
1.00003
1.01877
1.78327
4.88572
6.51846
6.5667
6.38032
1
1
1
1
1
1
1
1
1
1
1
1
1
1
1
1
1
1
1
1
1
1
1
1
1
1
1
1
1
1
1
1
1
1
1.00011
1.03419
1.96093
5.01216
6.38505
6.43684
1
1
1
1
1
1
1
1
1
1
1
1
1
1
1
1
1
1
1
1
1
1
1
1
1
1
1
1
1
1
1
1
1
1
1
1.00026
1.05081
2.09312
5.02951
6.2973
1
1
1
1
1
1
1
1
1
1
1
1
1
1
1
1
1
1
1
1
1
1
1
1
1
1
1
1
1
1
1
1
1
1
1
1
1.00046
1.0661
2.1599
5.12165
1
1
1
1
1
1
1
1
1
1
1
1
1
1
1
1
1
1
1
1
1
1
1
1
1
1
1
1
1
1
1
1
1
1
1
1
1
1.00075
1.07234
2.4733
1
1
1
1
1
1
1
1
1
1
1
1
1
1
1
1
1
1
1
1
1
1
1
1
1
1
1
1
1
1
1
1
1
1
1
1
1
1
1.00074
1.12189
1
1
1
1
1
1
1
1
1
1
1
1
1
1
1
1
1
1
1
1
1
1
1
1
1
1
1
1
1
1
1
1
1
1
1
1
1
1
1
1.00117
1
1
1
1
1
1
1
1
1
1
1
1
1
1
1
1
1
1
1
1
1
1
1
1
1
1
1
1
1
1
1
1
1
1
1
1
1
1
1
1
1
1
1
1
1
1
1
1
1
1
1
1
1
1
1
1
1
1
1
1
1
1
1
1
1
1
1
1
1
1
1
1
1
1
1
1
1
1
1
1
1
1
1
1
1
1
1
1
1
1
1
1
1
1
1
1
1
1
1
1
1
1
1
1
1
1
1
1
1
1
1
1
1
1
1
1
1
1
1
1
1
1
1
1
1
1
1
1
1
1
1
1
1
1
1
1
1
1
1
1
1
1
1
1
1
1
1
1
1
1
1
1
1
1
1
1
1
1
1
1
1
1
1
1
1
1
1
1
1
1
1
1
1
1
1
1
1
1
1
1
1
1
1
1
1
1
1
1
1
1
1
1
1
1
1
1
1
1
1
1
1
1
1
1
1
1
1
1
1
1
1
1
1
1
1
1
1
1
1
1
1
1
1
1
1
1
1
1
1
1
1
1
1
1
1
1
1
1
1
1
1
1
1
1
1
1
1
1
1
1
1
1
1
1
1
1
1
1
1
1
1
1
1
1
1
1
1
1
1
1
1
1
1
1
1
1
1
1
1
1
1
1
1
1
1
1
1
1
1
1
1
1
1
1
1
1
1
1
1
1
1
1
1
1
1
1
1
1
1
1
1
1
1
1
1
1
1
1
1
1
1
1
1
1
1
1
1
1
1
1
1
1
1
1
1
1
1
1
1
1
1
1
1
1
1
1
1
1
1
1
1
1
1
1
1
1
1
1
1
1
1
1
1
1
1
1
1
1
1
1
1
1
1
1
1
1
1
1
1
1
1
1
1
1
1
1
1
1
1
1
1
1
1
1
1
1
1
1
1
1
0.949214
0.369414
0.560987
0.827326
0.978504
1.08795
1.21384
1.25381
1.27764
1.29032
1.28857
1.29295
1.30092
1.29062
1.36398
3.82317
6.09301
6.11586
5.88113
5.54611
5.25544
5.05889
4.86347
4.644
4.4303
4.2127
3.9989
3.81089
3.6572
3.52858
3.41754
3.3136
3.20361
3.08646
2.92983
2.70722
2.50789
2.40399
2.35508
2.26276
2.19844
0.769206
0.664393
0.748167
0.915673
1.07256
1.18341
1.23164
1.26765
1.28679
1.29345
1.2989
1.29331
1.29953
1.44766
3.66873
5.94357
6.00157
5.78177
5.50945
5.26513
5.05621
4.82481
4.60153
4.39466
4.19559
4.01036
3.84286
3.68643
3.54613
3.42316
3.30462
3.18512
3.05363
2.9021
2.72577
2.54738
2.41613
2.35689
2.26111
2.99102
1.1852
0.745554
0.735993
0.855958
1.03005
1.1883
1.23362
1.26523
1.27478
1.28718
1.29516
1.29226
1.30822
1.56996
3.367
5.90848
5.97028
5.74993
5.51342
5.29276
5.06437
4.8209
4.58819
4.3654
4.16076
3.98471
3.8336
3.69706
3.56811
3.43759
3.30276
3.16242
3.0112
2.85351
2.71721
2.59129
2.4532
2.36373
2.25678
3.44895
1.68359
1.05215
0.78488
0.827752
0.941421
1.09588
1.21784
1.28587
1.26746
1.27936
1.29159
1.29205
1.33362
1.83191
2.98313
5.36474
5.99502
5.704
5.46546
5.26206
5.02862
4.79995
4.58601
4.38023
4.18739
4.01426
3.85834
3.71482
3.57672
3.43267
3.28296
3.13032
2.97356
2.82725
2.71557
2.61776
2.49825
2.38387
2.24882
3.81401
2.18604
1.32769
0.899315
0.878514
0.896417
0.99089
1.13716
1.24645
1.27358
1.2991
1.29995
1.29589
1.40804
2.26749
2.85054
4.44515
5.79977
5.70764
5.44025
5.22151
5.00322
4.77439
4.55809
4.35888
4.18056
4.02373
3.87923
3.73755
3.59092
3.43227
3.26035
3.08505
2.92689
2.80481
2.71295
2.62902
2.5297
2.41492
2.24463
4.15742
2.6069
1.6438
1.17993
0.979121
0.8909
0.921632
1.04645
1.17846
1.23569
1.28597
1.28287
1.28378
1.57013
2.72954
2.88461
3.50719
5.23478
5.68692
5.4244
5.15446
4.95532
4.77084
4.57882
4.39366
4.2229
4.06255
3.90206
3.73849
3.56988
3.40046
3.23172
3.06639
2.92117
2.80772
2.71585
2.63451
2.54572
2.43739
2.24282
4.43777
2.97365
1.97171
1.42899
1.10248
0.916057
0.941591
0.98106
1.07973
1.18764
1.26263
1.25507
1.28389
1.87563
3.0746
3.03519
3.07537
4.26105
5.47508
5.38911
5.12276
4.92102
4.75129
4.58343
4.41427
4.2416
4.06106
3.87493
3.68694
3.51122
3.35055
3.20041
3.06075
2.93437
2.82062
2.719
2.62911
2.54034
2.43636
2.23585
4.5874
3.26514
2.2565
1.68237
1.29052
1.04307
0.987971
0.968194
1.0009
1.11085
1.2159
1.2202
1.34026
2.22378
3.23442
3.18683
3.08967
3.40539
4.92991
5.32054
5.12755
4.90451
4.72141
4.56055
4.39342
4.21885
4.03493
3.8368
3.6377
3.4627
3.31776
3.19259
3.07663
2.96012
2.83957
2.72621
2.63257
2.52981
2.41883
2.23262
4.71427
3.47168
2.51723
1.93283
1.47498
1.19995
1.04796
0.967508
0.983474
1.04317
1.13414
1.17534
1.54042
2.56208
3.26997
3.25399
3.11048
3.05266
4.05109
5.12528
5.14929
4.90678
4.69471
4.50116
4.32663
4.17313
4.00508
3.81205
3.6123
3.44031
3.30475
3.19744
3.09672
2.98853
2.86628
2.73121
2.5959
2.47762
2.37938
2.23002
4.85024
3.65244
2.76382
2.15361
1.65869
1.38188
1.16179
1.00942
1.00466
1.01587
1.0628
1.17091
1.86512
2.8843
3.2717
3.24496
3.10664
2.96455
3.27278
4.58389
5.09569
4.91933
4.6762
4.44745
4.26223
4.11043
3.96219
3.79656
3.61924
3.4517
3.31199
3.20173
3.10437
2.99884
2.87307
2.72197
2.56924
2.44208
2.35426
2.22685
4.98996
3.84135
2.99392
2.36194
1.8414
1.55601
1.27403
1.09861
1.03293
1.01678
1.03581
1.20589
2.18065
3.02616
3.22923
3.1872
3.05346
2.90164
2.89779
3.75153
4.84188
4.94766
4.70854
4.42999
4.21507
4.05548
3.91931
3.78272
3.63817
3.48269
3.33009
3.19854
3.08925
2.98934
2.86424
2.70907
2.55039
2.41504
2.33566
2.22709
5.14422
4.02008
3.20619
2.5408
2.0237
1.71016
1.40344
1.22708
1.10098
1.03513
1.05212
1.35259
2.41875
2.97231
3.10933
3.06119
2.95428
2.84407
2.79073
3.07356
4.26344
4.86022
4.71325
4.45857
4.19539
4.01122
3.87836
3.76225
3.64378
3.50493
3.34277
3.18873
3.06327
2.94608
2.82556
2.69028
2.53971
2.40125
2.3246
2.22436
5.26704
4.17528
3.39108
2.6987
2.20717
1.85393
1.5409
1.34081
1.17426
1.07285
1.09675
1.63665
2.63324
2.84
2.87899
2.88493
2.85052
2.79897
2.74753
2.77863
3.50439
4.55194
4.70137
4.49839
4.22521
3.99927
3.84795
3.73327
3.62479
3.50126
3.34873
3.18161
3.03207
2.90639
2.78887
2.66419
2.53535
2.40401
2.32403
2.21994
5.35543
4.3013
3.54521
2.84518
2.38324
1.99005
1.66535
1.46554
1.27636
1.14314
1.20231
2.01141
2.7584
2.72202
2.66641
2.67763
2.7363
2.75565
2.73428
2.68441
2.89436
3.92166
4.5556
4.47723
4.27085
4.02183
3.82557
3.69065
3.58006
3.46655
3.33233
3.17475
3.01103
2.87184
2.75369
2.64306
2.53383
2.41916
2.33418
2.21696
5.41359
4.41063
3.67847
2.99035
2.55238
2.10851
1.7985
1.58868
1.37444
1.22213
1.42069
2.40484
2.77791
2.71965
2.61763
2.57377
2.6206
2.67624
2.70062
2.63296
2.5942
3.13984
4.14148
4.41586
4.26796
4.06203
3.83066
3.6553
3.52537
3.41115
3.29425
3.15829
3.00258
2.85195
2.72749
2.62622
2.534
2.43719
2.34969
2.21403
5.46941
4.51866
3.80272
3.13912
2.70333
2.2171
1.93845
1.69993
1.4765
1.32411
1.81592
2.81614
2.82808
2.73251
2.61114
2.53032
2.49495
2.53647
2.60309
2.55973
2.47276
2.58147
3.41736
4.20808
4.2439
4.09246
3.85382
3.63173
3.4747
3.35615
3.25147
3.13758
2.9999
2.84934
2.7181
2.61747
2.53267
2.44736
2.36093
2.20952
5.53151
4.6378
3.9186
3.29335
2.82422
2.3332
2.07918
1.79983
1.58493
1.49843
2.35096
3.07838
2.96456
2.79985
2.64976
2.5226
2.41402
2.36627
2.39129
2.43603
2.38532
2.34967
2.69104
3.64466
4.13011
4.04771
3.86323
3.63495
3.44004
3.30542
3.20994
3.11349
2.99632
2.85806
2.72396
2.61594
2.5268
2.44173
2.35704
2.19975
5.60996
4.76661
4.0317
3.44313
2.92044
2.45955
2.21731
1.89516
1.69688
1.83557
2.92994
3.21165
3.08561
2.89376
2.7036
2.528
2.3889
2.2737
2.21387
2.23817
2.27381
2.24032
2.28784
2.9112
3.80881
3.98256
3.84932
3.66873
3.4567
3.28279
3.16856
3.07809
2.97836
2.85926
2.73219
2.6156
2.51455
2.42217
2.33677
2.18177
5.68838
4.88435
4.13387
3.57412
3.00163
2.60671
2.33887
1.99702
1.81262
2.38171
3.5044
3.35885
3.17656
2.97587
2.76936
2.56603
2.3797
2.2453
2.15441
2.09938
2.13074
2.15257
2.1335
2.32226
3.15771
3.81177
3.82482
3.69805
3.49578
3.28118
3.14041
3.03799
2.9404
2.83841
2.72746
2.61226
2.50141
2.39762
2.30748
2.15865
5.7678
4.98744
4.23799
3.68512
3.09849
2.7753
2.44346
2.10725
1.98686
3.09282
3.86001
3.58899
3.30081
3.06364
2.84066
2.6187
2.41178
2.24113
2.13001
2.05749
2.01447
2.03
2.03432
2.05069
2.47234
3.33318
3.72687
3.67481
3.50194
3.28419
3.11498
3.0124
2.90724
2.80207
2.7023
2.597
2.48701
2.37837
2.28442
2.14005
5.83065
5.06079
4.34486
3.7823
3.23193
2.94241
2.5312
2.21109
2.39938
3.83177
4.02542
3.77308
3.43913
3.15263
2.9068
2.67384
2.45785
2.27848
2.13753
2.03952
1.96879
1.92088
1.91706
1.91066
2.00823
2.65811
3.46527
3.58984
3.48597
3.29367
3.10109
2.95133
2.84328
2.75296
2.66722
2.57259
2.46688
2.35964
2.26665
2.12853
5.87995
5.11729
4.45963
3.88373
3.40156
3.07513
2.60673
2.31199
3.1204
4.44917
4.18369
3.90054
3.58714
3.27833
2.99653
2.74349
2.51606
2.32268
2.16512
2.04084
1.94591
1.87538
1.81465
1.7983
1.80067
2.03291
2.82211
3.41731
3.42192
3.29302
3.08535
2.9164
2.80896
2.72389
2.63598
2.54353
2.44161
2.33737
2.24792
2.11939
5.90785
5.17383
4.58253
3.99798
3.58915
3.14989
2.69231
2.50525
4.01861
4.81023
4.41448
4.04082
3.71142
3.38531
3.0798
2.80938
2.57723
2.37835
2.20964
2.06572
1.94637
1.85027
1.77796
1.70703
1.67878
1.7063
2.11229
2.93341
3.28308
3.2311
3.06207
2.9012
2.78496
2.69992
2.62582
2.52865
2.42643
2.32538
2.23877
2.11365
5.92814
5.24219
4.69937
4.11702
3.71936
3.17364
2.73558
3.07485
4.91243
4.98082
4.61245
4.18942
3.82439
3.48701
3.17314
2.89235
2.64594
2.43509
2.25389
2.09838
1.95934
1.84445
1.75146
1.67854
1.60568
1.57642
1.65344
2.23922
3.02459
3.13864
3.05296
2.91312
2.78147
2.67868
2.57928
2.50494
2.4344
2.33231
2.24224
2.11246
5.96647
5.33886
4.79612
4.23113
3.77368
3.16603
2.80701
4.06412
5.52643
5.13059
4.7463
4.33092
3.93414
3.57624
3.25184
2.96231
2.71171
2.49583
2.30622
2.13609
1.98484
1.85083
1.74162
1.65675
1.5831
1.51285
1.49557
1.67015
2.39269
3.00761
3.03508
2.93872
2.78237
2.65238
2.54946
2.47689
2.40086
2.31085
2.2343
2.10966
6.05929
5.46127
4.85216
4.30818
3.7671
3.19622
3.11404
5.21934
5.92933
5.38402
4.87591
4.43126
4.01633
3.64601
3.31949
3.03023
2.77918
2.56283
2.36797
2.18529
2.01831
1.87163
1.74646
1.64515
1.56938
1.49484
1.42628
1.42773
1.74318
2.52642
2.92043
2.88113
2.75687
2.6258
2.5248
2.45185
2.38049
2.29918
2.22433
2.09138
6.11119
5.59198
4.88064
4.34653
3.71505
3.25825
3.98763
6.16604
6.09313
5.57973
5.0173
4.52484
4.09191
3.71379
3.38059
3.08685
2.83356
2.61741
2.42394
2.23883
2.06122
1.90143
1.7667
1.65547
1.56789
1.49139
1.41232
1.34865
1.38451
1.90348
2.64513
2.79073
2.73716
2.62944
2.52068
2.42552
2.355
2.29477
2.21973
2.0777
5.97299
5.68741
4.90487
4.35654
3.69577
3.39016
5.40147
6.88258
6.23605
5.70106
5.13777
4.61815
4.16785
3.77385
3.42452
3.123
2.87477
2.66643
2.47698
2.29024
2.10262
1.92828
1.78473
1.67048
1.57513
1.49534
1.4107
1.33567
1.28346
1.39991
2.05807
2.66837
2.71889
2.64155
2.51465
2.41109
2.33504
2.26012
2.18597
2.05634
5.37342
5.46208
4.89357
4.34491
3.7661
3.99297
6.80032
7.21909
6.48749
5.81252
5.22365
4.70089
4.24647
3.83952
3.47196
3.15905
2.90771
2.70031
2.51242
2.32643
2.13825
1.96014
1.8083
1.68429
1.57968
1.48694
1.40173
1.31805
1.25555
1.2254
1.45848
2.18243
2.60696
2.5801
2.50165
2.39833
2.31285
2.23892
2.16919
2.04218
3.87658
5.36299
5.00841
4.42069
3.96537
5.38012
7.95154
7.44324
6.6543
5.91693
5.31267
4.79688
4.33723
3.91129
3.52583
3.20327
2.94547
2.73112
2.5397
2.3547
2.16998
1.99433
1.8388
1.70823
1.59708
1.49813
1.40752
1.31736
1.23683
1.18519
1.1962
1.60155
2.2963
2.46803
2.4387
2.36681
2.28337
2.21414
2.15332
2.0295
3.08322
5.27225
5.12741
4.55934
4.29996
7.1803
8.53915
7.59025
6.76866
6.03357
5.4242
4.89965
4.42148
3.97712
3.58445
3.25905
2.99095
2.76009
2.5558
2.36965
2.19145
2.02072
1.86449
1.72784
1.60866
1.50546
1.41369
1.32956
1.2425
1.17166
1.13219
1.20761
1.75473
2.34949
2.40591
2.34537
2.26839
2.19294
2.12814
2.00828
1.97537
5.0782
5.20781
4.69624
5.33975
8.7954
8.82288
7.71538
6.86278
6.14604
5.53704
4.99473
4.49087
4.03548
3.65042
3.3302
3.05133
2.7988
2.57044
2.37068
2.1986
2.04159
1.89224
1.75253
1.62708
1.517
1.41734
1.33575
1.25758
1.17711
1.11944
1.08999
1.26505
1.92138
2.30777
2.31756
2.25574
2.17475
2.11024
1.99332
1.27417
4.47408
5.21079
4.78071
7.12269
9.83696
8.96193
7.83798
6.97658
6.27121
5.64444
5.06803
4.53777
4.08143
3.71203
3.40081
3.11519
2.84372
2.59273
2.37656
2.19964
2.05077
1.91147
1.77291
1.64143
1.52738
1.42747
1.34047
1.26328
1.18853
1.1117
1.06648
1.06856
1.38507
1.99079
2.21606
2.21915
2.17054
2.10514
1.97964
1.01398
3.6474
4.89542
4.9336
9.20004
10.3045
9.0871
7.98237
7.09971
6.37177
5.71167
5.09914
4.55699
4.11497
3.7639
3.45957
3.17166
2.8894
2.62197
2.39142
2.20819
2.05942
1.92392
1.78872
1.65544
1.53488
1.43328
1.3474
1.26977
1.19892
1.12097
1.05436
1.01712
1.06751
1.5064
2.05008
2.14504
2.11283
2.05183
1.95736
0.999597
2.68051
4.40001
6.22037
10.7847
10.4234
9.15937
8.08714
7.19526
6.42606
5.72946
5.09666
4.55962
4.13715
3.79949
3.49893
3.21024
2.92436
2.6517
2.41476
2.22505
2.07119
1.93407
1.80128
1.67124
1.54997
1.44478
1.35498
1.27609
1.20617
1.1329
1.05645
1.0044
0.976176
1.09341
1.59562
2.02277
2.06839
2.0328
1.93616
0.999799
1.76599
3.77468
7.7656
11.9031
10.5483
9.2391
8.15655
7.25132
6.45504
5.73805
5.10313
4.57828
4.16205
3.81971
3.51646
3.22306
2.93976
2.6735
2.44167
2.24979
2.08895
1.94444
1.80686
1.67628
1.55764
1.45361
1.36273
1.28216
1.2067
1.14518
1.07524
0.999418
0.952681
0.946959
1.14027
1.65823
1.94961
1.9873
1.91588
0.999898
1.20624
2.91269
9.46293
12.4312
10.6587
9.26818
8.19188
7.27638
6.4678
5.75558
5.14604
4.6358
4.20658
3.83745
3.52216
3.22114
2.94406
2.68921
2.46696
2.27275
2.10429
1.95396
1.81294
1.6804
1.55955
1.45482
1.36521
1.28587
1.21045
1.13969
1.07051
1.00284
0.944806
0.907687
0.925015
1.20538
1.70124
1.86209
1.87435
0.999955
1.01921
2.16389
11.1452
13.109
10.8222
9.2631
8.18385
7.26774
6.46638
5.77319
5.19266
4.69698
4.25767
3.86276
3.50901
3.23193
2.95479
2.69811
2.48654
2.29664
2.12216
1.96292
1.81783
1.6863
1.56859
1.46528
1.37376
1.29195
1.2158
1.14293
1.07729
1.0141
0.954196
0.900854
0.872109
0.912183
1.27392
1.63092
1.88051
0.999981
1.00045
2.51942
12.0616
13.2932
10.8242
9.23065
8.16104
7.25288
6.46698
5.79816
5.23122
4.7667
4.35724
3.94104
3.55176
3.19978
2.9272
2.7482
2.56048
2.36683
2.17683
2.00349
1.85404
1.72499
1.60917
1.50216
1.40335
1.31622
1.239
1.16795
1.1034
1.04195
0.981203
0.921601
0.872402
0.838131
0.933436
1.32555
2.05005
0.999994
0.999993
2.83258
13.2363
13.7511
10.8544
9.20861
8.12034
7.21676
6.45572
5.82934
5.30246
4.80807
4.32362
3.88879
3.49791
3.16476
2.92635
2.71444
2.5214
2.32864
2.13697
1.96113
1.81277
1.68763
1.57564
1.47053
1.37228
1.28654
1.21112
1.14322
1.08073
1.02149
0.960938
0.9057
0.849035
0.796443
0.797321
1.05685
2.23136
)
;

boundaryField
{
    inlet
    {
        type            fixedValue;
        value           uniform 1;
    }
    outlet
    {
        type            zeroGradient;
    }
    top
    {
        type            symmetryPlane;
    }
    bottom
    {
        type            symmetryPlane;
    }
    step
    {
        type            zeroGradient;
    }
    defaultFaces
    {
        type            empty;
    }
}


// ************************************************************************* //
