/*--------------------------------*- C++ -*----------------------------------*\
  =========                 |
  \\      /  F ield         | OpenFOAM: The Open Source CFD Toolbox
   \\    /   O peration     | Website:  https://openfoam.org
    \\  /    A nd           | Version:  6.0
     \\/     M anipulation  |
\*---------------------------------------------------------------------------*/
FoamFile
{
    version     2.0;
    format      ascii;
    class       volScalarField;
    location    "2.50067029";
    object      rho;
}
// * * * * * * * * * * * * * * * * * * * * * * * * * * * * * * * * * * * * * //

dimensions      [1 -3 0 0 0 0 0];

internalField   nonuniform List<scalar> 
4800
(
1.39997
1.39997
1.39997
1.39997
1.39997
1.39997
1.39997
1.39997
1.39997
1.39997
1.39997
1.39997
1.39997
1.39997
1.39997
1.39997
1.39997
1.39997
1.39997
1.39997
1.64359
4.50081
5.50331
5.5289
5.53061
5.48349
5.55785
5.85258
6.16105
6.2471
6.06525
5.67195
5.44613
5.46736
5.6809
6.0376
6.29702
6.20957
5.80191
5.51762
1.39997
1.39997
1.39997
1.39997
1.39997
1.39997
1.39997
1.39997
1.39997
1.39997
1.39997
1.39997
1.39997
1.39997
1.39997
1.39997
1.39997
1.39997
1.39997
1.39997
1.64107
4.49493
5.49516
5.54537
5.57233
5.58536
5.64006
5.68195
5.76545
5.85984
5.8209
5.88307
5.91192
5.93587
6.05113
6.09761
6.10787
6.0509
6.05018
6.11553
1.39997
1.39997
1.39997
1.39997
1.39997
1.39997
1.39997
1.39997
1.39997
1.39997
1.39997
1.39997
1.39997
1.39997
1.39997
1.39997
1.39997
1.39997
1.39997
1.39997
1.63711
4.48756
5.46988
5.52479
5.59287
5.69042
5.69723
5.59471
5.47255
5.40923
5.56281
5.87431
6.11706
6.20826
6.22673
6.08702
5.88188
5.88684
6.13218
6.39918
1.39997
1.39997
1.39997
1.39997
1.39997
1.39997
1.39997
1.39997
1.39997
1.39997
1.39997
1.39997
1.39997
1.39997
1.39997
1.39997
1.39997
1.39997
1.39997
1.39997
1.6326
4.4723
5.43306
5.48284
5.63483
5.75538
5.7709
5.63621
5.38393
5.30681
5.54928
5.80181
6.11215
6.24271
6.14085
5.82994
5.64749
5.84555
6.11016
6.38958
1.39997
1.39997
1.39997
1.39997
1.39997
1.39997
1.39997
1.39997
1.39997
1.39997
1.39997
1.39997
1.39997
1.39997
1.39997
1.39997
1.39997
1.39997
1.39997
1.39997
1.62467
4.45196
5.42902
5.48385
5.60339
5.7359
5.76905
5.66618
5.53055
5.51485
5.73292
6.05907
6.1327
5.98935
5.76156
5.5904
5.63543
5.91812
6.30626
6.46387
1.39997
1.39997
1.39997
1.39997
1.39997
1.39997
1.39997
1.39997
1.39997
1.39997
1.39997
1.39997
1.39997
1.39997
1.39997
1.39997
1.39997
1.39997
1.39997
1.39997
1.61391
4.42622
5.43318
5.51791
5.58316
5.63231
5.68485
5.71741
5.7997
5.96848
6.00066
6.00552
5.9664
5.69681
5.55412
5.69499
5.90343
6.16139
6.21717
6.26389
1.39997
1.39997
1.39997
1.39997
1.39997
1.39997
1.39997
1.39997
1.39997
1.39997
1.39997
1.39997
1.39997
1.39997
1.39997
1.39997
1.39997
1.39997
1.39997
1.39997
1.59984
4.40537
5.46175
5.54435
5.57729
5.55968
5.53106
5.66477
5.98978
6.22286
6.3461
6.12122
5.621
5.50582
5.74193
6.08539
6.3223
6.32203
6.13784
5.75571
1.39997
1.39997
1.39997
1.39997
1.39997
1.39997
1.39997
1.39997
1.39997
1.39997
1.39997
1.39997
1.39997
1.39997
1.39997
1.39997
1.39997
1.39997
1.39997
1.39997
1.58629
4.38391
5.49087
5.55159
5.58749
5.52256
5.50764
5.69193
5.9603
6.1197
6.00462
5.6414
5.55001
5.71255
6.05571
6.41833
6.54631
6.34376
5.74691
5.63478
1.39997
1.39997
1.39997
1.39997
1.39997
1.39997
1.39997
1.39997
1.39997
1.39997
1.39997
1.39997
1.39997
1.39997
1.39997
1.39997
1.39997
1.39997
1.39997
1.39997
1.57088
4.35687
5.47988
5.53921
5.55895
5.54794
5.61018
5.71305
5.78358
5.75882
5.57247
5.58855
5.68902
5.85874
6.0917
6.39181
6.38986
6.02008
5.75034
5.7438
1.39997
1.39997
1.39997
1.39997
1.39997
1.39997
1.39997
1.39997
1.39997
1.39997
1.39997
1.39997
1.39997
1.39997
1.39997
1.39997
1.39997
1.39997
1.39997
1.39997
1.55102
4.32778
5.47211
5.48899
5.52004
5.59246
5.71216
5.75494
5.66407
5.42925
5.27113
5.38122
5.69058
6.01498
6.22865
6.10224
5.83395
5.78342
5.72382
5.77454
1.39997
1.39997
1.39997
1.39997
1.39997
1.39997
1.39997
1.39997
1.39997
1.39997
1.39997
1.39997
1.39997
1.39997
1.39997
1.39997
1.39997
1.39997
1.39997
1.39997
1.53032
4.29673
5.48081
5.45135
5.48021
5.62611
5.76172
5.79112
5.64937
5.36829
5.26658
5.39377
5.79529
6.15601
6.05134
5.73248
5.49617
5.75175
6.20161
6.5506
1.39997
1.39997
1.39997
1.39997
1.39997
1.39997
1.39997
1.39997
1.39997
1.39997
1.39997
1.39997
1.39997
1.39997
1.39997
1.39997
1.39997
1.39997
1.39997
1.39997
1.50994
4.25601
5.47101
5.45672
5.52543
5.62742
5.71933
5.73207
5.61165
5.51858
5.58744
5.93315
6.12558
6.12921
5.88685
5.36806
5.46295
5.99593
6.64102
7.01053
1.39997
1.39997
1.39997
1.39997
1.39997
1.39997
1.39997
1.39997
1.39997
1.39997
1.39997
1.39997
1.39997
1.39997
1.39997
1.39997
1.39997
1.39997
1.39997
1.39997
1.48561
4.19492
5.43222
5.49567
5.59627
5.65235
5.65301
5.56308
5.53013
5.76815
6.1884
6.32525
6.41185
6.07313
5.45832
5.55779
5.77172
6.32549
6.79439
7.06414
1.39997
1.39997
1.39997
1.39997
1.39997
1.39997
1.39997
1.39997
1.39997
1.39997
1.39997
1.39997
1.39997
1.39997
1.39997
1.39997
1.39997
1.39997
1.39997
1.39997
1.45955
4.1374
5.39344
5.52005
5.64013
5.68568
5.62142
5.48578
5.58341
5.98631
6.3438
6.56818
6.30081
5.55191
5.57752
5.83015
6.26879
6.45333
6.32733
6.02577
1.39997
1.39997
1.39997
1.39997
1.39997
1.39997
1.39997
1.39997
1.39997
1.39997
1.39997
1.39997
1.39997
1.39997
1.39997
1.39997
1.39997
1.39997
1.39997
1.39997
1.43047
4.10894
5.43564
5.51638
5.59304
5.65523
5.63593
5.57351
5.72249
5.93606
6.15844
6.03312
5.46952
5.49659
5.70799
6.16259
6.46159
6.35702
5.8068
5.64367
1.39997
1.39997
1.39997
1.39997
1.39997
1.39997
1.39997
1.39997
1.39997
1.39997
1.39997
1.39997
1.39997
1.39997
1.39997
1.39997
1.39997
1.39997
1.39997
1.39997
1.4059
4.07333
5.48249
5.5272
5.5438
5.53891
5.55854
5.69117
5.84203
5.89826
5.72163
5.21078
5.20478
5.43855
6.06051
6.40822
6.30712
5.91829
5.70965
5.9137
1.39997
1.39997
1.39997
1.39997
1.39997
1.39997
1.39997
1.39997
1.39997
1.39997
1.39997
1.39997
1.39997
1.39997
1.39997
1.39997
1.39997
1.39997
1.39997
1.39997
1.40022
3.9974
5.47718
5.51639
5.51025
5.42506
5.43529
5.67047
5.87145
5.83011
5.32798
5.03436
5.1617
5.63953
6.21155
6.30368
6.05149
5.57326
5.79138
6.18239
1.39997
1.39997
1.39997
1.39997
1.39997
1.39997
1.39997
1.39997
1.39997
1.39997
1.39997
1.39997
1.39997
1.39997
1.39997
1.39997
1.39997
1.39997
1.39997
1.39997
1.39995
3.90019
5.43019
5.47682
5.44303
5.41102
5.52101
5.71903
5.79193
5.58825
5.32348
5.2674
5.46811
6.09457
6.30362
6.19261
5.4776
5.48509
5.86025
6.22155
1.39997
1.39997
1.39997
1.39997
1.39997
1.39997
1.39997
1.39997
1.39997
1.39997
1.39997
1.39997
1.39997
1.39997
1.39997
1.39997
1.39997
1.39997
1.39997
1.39997
1.39996
3.78431
5.35503
5.40326
5.47086
5.57415
5.70675
5.72253
5.64981
5.41825
5.36193
5.70817
6.20617
6.29575
6.19506
5.45997
5.47665
5.57848
5.78472
5.95954
1.39997
1.39997
1.39997
1.39997
1.39997
1.39997
1.39997
1.39997
1.39997
1.39997
1.39997
1.39997
1.39997
1.39997
1.39997
1.39997
1.39997
1.39997
1.39997
1.39997
1.39997
3.6741
5.29509
5.33861
5.4934
5.70891
5.79064
5.75157
5.56113
5.38034
5.60483
6.21154
6.48481
6.27926
5.49291
5.3213
5.61028
5.8917
5.81681
5.60256
1.39997
1.39997
1.39997
1.39997
1.39997
1.39997
1.39997
1.39997
1.39997
1.39997
1.39997
1.39997
1.39997
1.39997
1.39997
1.39997
1.39997
1.39997
1.39997
1.39997
1.39997
3.58024
5.27538
5.38677
5.53089
5.63909
5.72606
5.71805
5.52985
5.58716
6.06791
6.28883
6.28679
5.79357
5.13809
5.18376
5.72587
6.41336
6.28389
6.02874
1.39997
1.39997
1.39997
1.39997
1.39997
1.39997
1.39997
1.39997
1.39997
1.39997
1.39997
1.39997
1.39997
1.39997
1.39997
1.39997
1.39997
1.39997
1.39997
1.39997
1.39997
3.50758
5.30324
5.48741
5.53834
5.5645
5.57072
5.4943
5.56197
5.88137
6.13794
6.17791
5.97175
5.32381
5.20373
5.39094
6.03164
6.48337
6.71427
6.8864
1.39997
1.39997
1.39997
1.39997
1.39997
1.39997
1.39997
1.39997
1.39997
1.39997
1.39997
1.39997
1.39997
1.39997
1.39997
1.39997
1.39997
1.39997
1.39997
1.39997
1.39997
3.4146
5.33017
5.50763
5.54494
5.53789
5.41926
5.34228
5.50812
5.90567
6.07343
5.87075
5.14135
5.33184
5.81053
6.33675
6.32927
6.24385
6.61007
7.05311
1.39997
1.39997
1.39997
1.39997
1.39997
1.39997
1.39997
1.39997
1.39997
1.39997
1.39997
1.39997
1.39997
1.39997
1.39997
1.39997
1.39997
1.39997
1.39997
1.39997
1.39997
3.29783
5.31676
5.4913
5.53722
5.4428
5.38308
5.42571
5.70103
5.78321
5.72832
5.1756
5.16805
5.48987
6.40301
6.62251
6.41431
5.92284
6.01731
6.6214
1.39997
1.39997
1.39997
1.39997
1.39997
1.39997
1.39997
1.39997
1.39997
1.39997
1.39997
1.39997
1.39997
1.39997
1.39997
1.39997
1.39997
1.39997
1.39997
1.39997
1.39997
3.17855
5.29012
5.3945
5.38142
5.41527
5.45813
5.70352
5.74877
5.69345
5.30631
5.04536
5.18542
5.82728
6.43142
6.60499
6.35183
5.62097
5.43605
5.47714
1.39997
1.39997
1.39997
1.39997
1.39997
1.39997
1.39997
1.39997
1.39997
1.39997
1.39997
1.39997
1.39997
1.39997
1.39997
1.39997
1.39997
1.39997
1.39997
1.39997
1.39997
3.05002
5.25466
5.29092
5.26375
5.36843
5.65278
5.77346
5.7805
5.5823
5.20153
5.12974
5.52741
6.07629
6.24668
6.05997
5.52443
5.54602
5.46191
5.36767
1.39997
1.39997
1.39997
1.39997
1.39997
1.39997
1.39997
1.39997
1.39997
1.39997
1.39997
1.39997
1.39997
1.39997
1.39997
1.39997
1.39997
1.39997
1.39997
1.39997
1.39997
2.90105
5.18535
5.24584
5.2909
5.47828
5.63862
5.71711
5.71091
5.47271
5.32493
5.67659
6.08633
6.01071
5.80132
5.13379
5.30478
5.44286
5.50689
5.39368
1.39997
1.39997
1.39997
1.39997
1.39997
1.39997
1.39997
1.39997
1.39997
1.39997
1.39997
1.39997
1.39997
1.39997
1.39997
1.39997
1.39997
1.39997
1.39997
1.39997
1.39997
2.75645
5.10942
5.32563
5.49652
5.58436
5.59102
5.58483
5.46911
5.37788
5.59165
6.06224
6.09469
5.98869
5.1619
5.0601
5.26847
5.38344
5.37461
5.3024
1.39997
1.39997
1.39997
1.39997
1.39997
1.39997
1.39997
1.39997
1.39997
1.39997
1.39997
1.39997
1.39997
1.39997
1.39997
1.39997
1.39997
1.39997
1.39997
1.39997
1.39997
2.63577
5.04746
5.5148
5.60423
5.61823
5.60123
5.47919
5.33147
5.37309
5.85331
6.03249
6.08338
5.57991
5.08629
5.12756
5.43946
5.69423
5.50817
5.30405
1.39997
1.39997
1.39997
1.39997
1.39997
1.39997
1.39997
1.39997
1.39997
1.39997
1.39997
1.39997
1.39997
1.39997
1.39997
1.39997
1.39997
1.39997
1.39997
1.39997
1.39997
2.52998
5.07782
5.53983
5.60835
5.62579
5.47641
5.30306
5.34407
5.58285
5.83206
5.95412
5.77056
5.27681
5.09212
5.32528
5.88567
6.29841
6.19387
6.06313
1.39997
1.39997
1.39997
1.39997
1.39997
1.39997
1.39997
1.39997
1.39997
1.39997
1.39997
1.39997
1.39997
1.39997
1.39997
1.39997
1.39997
1.39997
1.39997
1.39997
1.39997
2.40197
5.09524
5.50495
5.53258
5.40513
5.30216
5.30148
5.40218
5.74228
5.81067
5.71434
5.1965
5.25309
5.64315
6.21094
6.34149
6.23459
6.69753
7.22341
1.39997
1.39997
1.39997
1.39997
1.39997
1.39997
1.39997
1.39997
1.39997
1.39997
1.39997
1.39997
1.39997
1.39997
1.39997
1.39997
1.39997
1.39997
1.39997
1.39997
1.39997
2.2568
5.01093
5.47758
5.33179
5.24205
5.2151
5.28904
5.65169
5.74712
5.73266
5.24126
5.14498
5.37029
6.17909
6.32845
6.25532
6.01997
6.56074
7.22377
1.39997
1.39997
1.39997
1.39997
1.39997
1.39997
1.39997
1.39997
1.39997
1.39997
1.39997
1.39997
1.39997
1.39997
1.39997
1.39997
1.39997
1.39997
1.39997
1.39997
1.39997
2.11231
4.88729
5.37548
5.22446
5.22897
5.35184
5.6468
5.70478
5.67366
5.32438
5.12909
5.16749
5.86263
6.23701
6.33008
6.18813
5.73035
5.93174
6.4047
1.39997
1.39997
1.39997
1.39997
1.39997
1.39997
1.39997
1.39997
1.39997
1.39997
1.39997
1.39997
1.39997
1.39997
1.39997
1.39997
1.39997
1.39997
1.39997
1.39997
1.39997
1.93711
4.71212
5.34706
5.26554
5.41318
5.69734
5.74243
5.68879
5.44075
5.16369
5.17534
5.63638
5.92237
6.10496
5.80998
5.20531
5.051
4.91714
4.86142
1.39997
1.39997
1.39997
1.39997
1.39997
1.39997
1.39997
1.39997
1.39997
1.39997
1.39997
1.39997
1.39997
1.39997
1.39997
1.39997
1.39997
1.39997
1.39997
1.39997
1.39997
1.77368
4.58199
5.32834
5.47891
5.68737
5.7369
5.73992
5.52547
5.18645
5.17515
5.46403
5.86621
5.87102
5.56652
4.87172
4.92114
4.96884
4.80858
4.68505
1.39997
1.39997
1.39997
1.39997
1.39997
1.39997
1.39997
1.39997
1.39997
1.39997
1.39997
1.39997
1.39997
1.39997
1.39997
1.39997
1.39997
1.39997
1.39997
1.39997
1.39997
1.64359
4.60253
5.53108
5.68566
5.71699
5.68461
5.46501
5.18739
5.14359
5.23668
5.74819
5.82214
5.74601
4.92056
4.74385
4.82602
4.89889
4.7592
4.67471
1.39997
1.39997
1.39997
1.39997
1.39997
1.39997
1.39997
1.39997
1.39997
1.39997
1.39997
1.39997
1.39997
1.39997
1.39997
1.39997
1.39997
1.39997
1.39997
1.39997
1.39997
1.49435
4.56382
5.67376
5.6718
5.65539
5.40789
5.11551
5.16529
5.24454
5.67835
5.72879
5.74037
5.29954
4.78952
4.69337
4.74731
4.81017
4.72123
4.63458
1.39997
1.39997
1.39997
1.39997
1.39997
1.39997
1.39997
1.39997
1.39997
1.39997
1.39997
1.39997
1.39997
1.39997
1.39997
1.39997
1.39997
1.39997
1.39997
1.39997
1.39997
1.40909
4.42412
5.64737
5.6074
5.50936
5.11228
5.04591
5.181
5.63595
5.77111
5.68404
5.45177
5.04195
4.88542
4.8697
5.02629
4.93115
4.70146
4.49236
1.39997
1.39997
1.39997
1.39997
1.39997
1.39997
1.39997
1.39997
1.39997
1.39997
1.39997
1.39997
1.39997
1.39997
1.39997
1.39997
1.39997
1.39997
1.39997
1.39997
1.39997
1.40002
4.14385
5.5262
5.42875
5.22217
5.05564
5.08724
5.46477
5.80138
5.77241
5.6156
5.01454
4.97897
5.22843
6.04356
6.19638
5.98119
4.81269
4.24551
1.39997
1.39997
1.39997
1.39997
1.39997
1.39997
1.39997
1.39997
1.39997
1.39997
1.39997
1.39997
1.39997
1.39997
1.39997
1.39997
1.39997
1.39997
1.39997
1.39997
1.39997
1.39997
3.76724
5.26352
5.20063
5.13349
5.23977
5.58527
5.76486
5.74216
5.58565
5.12886
4.99477
5.22333
5.99061
6.21669
6.14283
6.11023
6.0074
5.56262
1.39997
1.39997
1.39997
1.39997
1.39997
1.39997
1.39997
1.39997
1.39997
1.39997
1.39997
1.39997
1.39997
1.39997
1.39997
1.39997
1.39997
1.39997
1.39997
1.39997
1.39997
1.39997
3.25024
5.12623
5.31755
5.44186
5.54535
5.59419
5.49994
5.3213
5.20611
5.26472
5.42921
5.53254
5.5299
5.33637
5.14289
4.9882
5.04284
4.53969
1.39997
1.39997
1.39997
1.39997
1.39997
1.39997
1.39997
1.39997
1.39997
1.39997
1.39997
1.39997
1.39997
1.39997
1.39997
1.39997
1.39997
1.39997
1.39997
1.39997
1.39997
1.39997
2.42218
4.94948
5.35495
5.38933
5.38184
5.33743
5.31266
5.33657
5.39766
5.40342
5.34737
5.23918
5.08619
4.97326
4.85246
4.62255
4.16446
3.3867
1.39997
1.39997
1.39997
1.39997
1.39997
1.39997
1.39997
1.39997
1.39997
1.39997
1.39997
1.39997
1.39997
1.39997
1.39997
1.39997
1.39997
1.39997
1.39997
1.39997
1.39997
1.39997
1.62342
4.50647
5.40484
5.34008
5.31522
5.3089
5.3206
5.33114
5.30929
5.26185
5.19051
5.12292
5.05909
4.97039
4.80197
4.53101
4.10598
3.48259
1.39997
1.39997
1.39997
1.39997
1.39997
1.39997
1.39997
1.39997
1.39997
1.39997
1.39997
1.39997
1.39997
1.39997
1.39997
1.39997
1.39997
1.39997
1.39997
1.39997
1.39997
1.39997
1.40543
3.5921
5.19045
5.24324
5.26445
5.26337
5.24368
5.20829
5.17613
5.15927
5.13918
5.07667
4.96332
4.80694
4.60923
4.36125
4.03845
3.55856
1.39997
1.39997
1.39997
1.39997
1.39997
1.39997
1.39997
1.39997
1.39997
1.39997
1.39997
1.39997
1.39997
1.39997
1.39997
1.39997
1.39997
1.39997
1.39997
1.39997
1.39997
1.39997
1.39993
2.38922
4.92353
5.25844
5.23893
5.20678
5.17532
5.14381
5.12031
5.09163
5.04231
4.95424
4.82802
4.66546
4.46711
4.2437
3.93855
3.56359
1.39997
1.39997
1.39997
1.39997
1.39997
1.39997
1.39997
1.39997
1.39997
1.39997
1.39997
1.39997
1.39997
1.39997
1.39997
1.39997
1.39997
1.39997
1.39997
1.39997
1.39997
1.39997
1.39996
1.52676
4.20504
5.27224
5.226
5.18316
5.14891
5.10534
5.05109
4.98822
4.92482
4.85234
4.74169
4.59054
4.38423
4.16148
3.90085
3.58519
1.39997
1.39997
1.39997
1.39997
1.39997
1.39997
1.39997
1.39997
1.39997
1.39997
1.39997
1.39997
1.39997
1.39997
1.39997
1.39997
1.39997
1.39997
1.39997
1.39997
1.39997
1.39997
1.39997
1.40106
2.91999
5.02995
5.18094
5.15921
5.11776
5.05162
4.9801
4.916
4.85165
4.76519
4.64818
4.50043
4.31141
4.10977
3.88418
3.62067
1.39997
1.39997
1.39997
1.39997
1.39997
1.39997
1.39997
1.39997
1.39997
1.39997
1.39997
1.39997
1.39997
1.39997
1.39997
1.39997
1.39997
1.39997
1.39997
1.39997
1.39997
1.39997
1.39997
1.39996
1.65159
4.50081
5.23871
5.17181
5.10398
5.02386
4.95051
4.88196
4.7971
4.68493
4.5642
4.41848
4.25225
4.06352
3.85854
3.63332
1.39997
1.39997
1.39997
1.39997
1.39997
1.39997
1.39997
1.39997
1.39997
1.39997
1.39997
1.39997
1.39997
1.39997
1.39997
1.39997
1.39997
1.39997
1.39997
1.39997
1.39997
1.39997
1.39997
1.39997
1.40559
3.17778
4.99012
5.09409
5.06108
5.00332
4.92699
4.84216
4.74096
4.62676
4.51086
4.37349
4.21505
4.03709
3.84298
3.62933
1.39997
1.39997
1.39997
1.39997
1.39997
1.39997
1.39997
1.39997
1.39997
1.39997
1.39997
1.39997
1.39997
1.39997
1.39997
1.39997
1.39997
1.39997
1.39997
1.39997
1.39997
1.39997
1.39997
1.39997
1.39995
1.72841
4.47568
5.14424
5.06281
4.99639
4.90994
4.81363
4.7089
4.60297
4.48857
4.35803
4.20503
4.03582
3.84852
3.64306
1.39997
1.39997
1.39997
1.39997
1.39997
1.39997
1.39997
1.39997
1.39997
1.39997
1.39997
1.39997
1.39997
1.39997
1.39997
1.39997
1.39997
1.39997
1.39997
1.39997
1.39997
1.39997
1.39997
1.39997
1.39997
1.40975
3.10227
4.92136
4.97075
4.94197
4.87882
4.79561
4.6967
4.58902
4.47128
4.34251
4.20032
4.04659
3.87456
3.68226
1.39997
1.39997
1.39997
1.39997
1.39997
1.39997
1.39997
1.39997
1.39997
1.39997
1.39997
1.39997
1.39997
1.39997
1.39997
1.39997
1.39997
1.39997
1.39997
1.39997
1.39997
1.39997
1.39997
1.39997
1.39997
1.39997
1.69647
4.20191
5.00484
4.91941
4.86201
4.78304
4.69365
4.58503
4.46379
4.33531
4.20323
4.06546
3.91152
3.73295
1.39997
1.39997
1.39997
1.39997
1.39997
1.39997
1.39997
1.39997
1.39997
1.39997
1.39997
1.39997
1.39997
1.39997
1.39997
1.39997
1.39997
1.39997
1.39997
1.39997
1.39997
1.39997
1.39997
1.39997
1.39997
1.39997
1.40771
2.60625
4.77027
4.87106
4.82089
4.75973
4.68289
4.58132
4.4613
4.33107
4.20486
4.08102
3.94261
3.7783
1.39997
1.39997
1.39997
1.39997
1.39997
1.39997
1.39997
1.39997
1.39997
1.39997
1.39997
1.39997
1.39997
1.39997
1.39997
1.39997
1.39997
1.39997
1.39997
1.39997
1.39997
1.39997
1.39997
1.39997
1.39997
1.39997
1.39999
1.54503
3.67485
4.85522
4.81955
4.76161
4.6845
4.58581
4.46763
4.3386
4.21593
4.09629
3.96434
3.81376
1.39997
1.39997
1.39997
1.39997
1.39997
1.39997
1.39997
1.39997
1.39997
1.39997
1.39997
1.39997
1.39997
1.39997
1.39997
1.39997
1.39997
1.39997
1.39997
1.39997
1.39997
1.39997
1.39997
1.39997
1.39997
1.39997
1.39997
1.40178
1.97191
4.27005
4.80665
4.75697
4.68615
4.59217
4.48054
4.35863
4.24001
4.11702
3.98369
3.84455
1.39997
1.39997
1.39997
1.39997
1.39997
1.39997
1.39997
1.39997
1.39997
1.39997
1.39997
1.39997
1.39997
1.39997
1.39997
1.39997
1.39997
1.39997
1.39997
1.39997
1.39997
1.39997
1.39997
1.39997
1.39997
1.39997
1.39997
1.39997
1.43003
2.59128
4.66195
4.7957
4.71213
4.62328
4.51739
4.40097
4.28277
4.15322
4.0157
3.8839
1.39997
1.39997
1.39997
1.39997
1.39997
1.39997
1.39997
1.39997
1.39997
1.39997
1.39997
1.39997
1.39997
1.39997
1.39997
1.39997
1.39997
1.39997
1.39997
1.39997
1.39997
1.39997
1.39997
1.39997
1.39997
1.39997
1.39997
1.39997
1.40017
1.53847
3.43237
4.73195
4.70413
4.62697
4.53516
4.43065
4.31807
4.18918
4.05563
3.93197
1.39997
1.39997
1.39997
1.39997
1.39997
1.39997
1.39997
1.39997
1.39997
1.39997
1.39997
1.39997
1.39997
1.39997
1.39997
1.39997
1.39997
1.39997
1.39997
1.39997
1.39997
1.39997
1.39997
1.39997
1.39997
1.39997
1.39997
1.39997
1.39997
1.40188
1.8329
3.92375
4.68934
4.63827
4.55453
4.45782
4.35182
4.23098
4.10827
3.99101
1.39997
1.39997
1.39997
1.39997
1.39997
1.39997
1.39997
1.39997
1.39997
1.39997
1.39997
1.39997
1.39997
1.39997
1.39997
1.39997
1.39997
1.39997
1.39997
1.39997
1.39997
1.39997
1.39997
1.39997
1.39997
1.39997
1.39997
1.39997
1.39997
1.39997
1.41674
2.19041
4.22306
4.66344
4.58325
4.49339
4.39014
4.27543
4.16224
4.04841
1.39997
1.39997
1.39997
1.39997
1.39997
1.39997
1.39997
1.39997
1.39997
1.39997
1.39997
1.39997
1.39997
1.39997
1.39997
1.39997
1.39997
1.39997
1.39997
1.39997
1.39997
1.39997
1.39997
1.39997
1.39997
1.39997
1.39997
1.39997
1.39997
1.39997
1.40007
1.45679
2.58438
4.40956
4.61509
4.51695
4.42575
4.32018
4.21189
4.09996
1.39997
1.39997
1.39997
1.39997
1.39997
1.39997
1.39997
1.39997
1.39997
1.39997
1.39997
1.39997
1.39997
1.39997
1.39997
1.39997
1.39997
1.39997
1.39997
1.39997
1.39997
1.39997
1.39997
1.39997
1.39997
1.39997
1.39997
1.39997
1.39997
1.39997
1.39997
1.40055
1.5331
2.9883
4.47585
4.54184
4.44571
4.35194
4.25373
4.14518
1.39997
1.39997
1.39997
1.39997
1.39997
1.39997
1.39997
1.39997
1.39997
1.39997
1.39997
1.39997
1.39997
1.39997
1.39997
1.39997
1.39997
1.39997
1.39997
1.39997
1.39997
1.39997
1.39997
1.39997
1.39997
1.39997
1.39997
1.39997
1.39997
1.39997
1.39997
1.39997
1.40215
1.655
3.31631
4.47007
4.46726
4.37447
4.28081
4.18117
1.39997
1.39997
1.39997
1.39997
1.39997
1.39997
1.39997
1.39997
1.39997
1.39997
1.39997
1.39997
1.39997
1.39997
1.39997
1.39997
1.39997
1.39997
1.39997
1.39997
1.39997
1.39997
1.39997
1.39997
1.39997
1.39997
1.39997
1.39997
1.39997
1.39997
1.39997
1.39997
1.39998
1.4067
1.80615
3.53836
4.42534
4.40867
4.31017
4.20912
1.39997
1.39997
1.39997
1.39997
1.39997
1.39997
1.39997
1.39997
1.39997
1.39997
1.39997
1.39997
1.39997
1.39997
1.39997
1.39997
1.39997
1.39997
1.39997
1.39997
1.39997
1.39997
1.39997
1.39997
1.39997
1.39997
1.39997
1.39997
1.39997
1.39997
1.39997
1.39997
1.39997
1.4
1.41604
1.95079
3.66665
4.38664
4.35891
4.25478
1.39997
1.39997
1.39997
1.39997
1.39997
1.39997
1.39997
1.39997
1.39997
1.39997
1.39997
1.39997
1.39997
1.39997
1.39997
1.39997
1.39997
1.39997
1.39997
1.39997
1.39997
1.39997
1.39997
1.39997
1.39997
1.39997
1.39997
1.39997
1.39997
1.39997
1.39997
1.39997
1.39997
1.39997
1.40008
1.42896
2.06813
3.74081
4.34418
4.31963
1.39997
1.39997
1.39997
1.39997
1.39997
1.39997
1.39997
1.39997
1.39997
1.39997
1.39997
1.39997
1.39997
1.39997
1.39997
1.39997
1.39997
1.39997
1.39997
1.39997
1.39997
1.39997
1.39997
1.39997
1.39997
1.39997
1.39997
1.39997
1.39997
1.39997
1.39997
1.39997
1.39997
1.39997
1.39997
1.40022
1.44276
2.1531
3.77344
4.2999
1.39997
1.39997
1.39997
1.39997
1.39997
1.39997
1.39997
1.39997
1.39997
1.39997
1.39997
1.39997
1.39997
1.39997
1.39997
1.39997
1.39997
1.39997
1.39997
1.39997
1.39997
1.39997
1.39997
1.39997
1.39997
1.39997
1.39997
1.39997
1.39997
1.39997
1.39997
1.39997
1.39997
1.39997
1.39997
1.39997
1.40041
1.45524
2.20734
3.78878
1.39997
1.39997
1.39997
1.39997
1.39997
1.39997
1.39997
1.39997
1.39997
1.39997
1.39997
1.39997
1.39997
1.39997
1.39997
1.39997
1.39997
1.39997
1.39997
1.39997
1.39997
1.39997
1.39997
1.39997
1.39997
1.39997
1.39997
1.39997
1.39997
1.39997
1.39997
1.39997
1.39997
1.39997
1.39997
1.39997
1.39997
1.40068
1.46054
2.35319
1.39997
1.39997
1.39997
1.39997
1.39997
1.39997
1.39997
1.39997
1.39997
1.39997
1.39997
1.39997
1.39997
1.39997
1.39997
1.39997
1.39997
1.39997
1.39997
1.39997
1.39997
1.39997
1.39997
1.39997
1.39997
1.39997
1.39997
1.39997
1.39997
1.39997
1.39997
1.39997
1.39997
1.39997
1.39997
1.39997
1.39997
1.39997
1.40066
1.49645
1.39997
1.39997
1.39997
1.39997
1.39997
1.39997
1.39997
1.39997
1.39997
1.39997
1.39997
1.39997
1.39997
1.39997
1.39997
1.39997
1.39997
1.39997
1.39997
1.39997
1.39997
1.39997
1.39997
1.39997
1.39997
1.39997
1.39997
1.39997
1.39997
1.39997
1.39997
1.39997
1.39997
1.39997
1.39997
1.39997
1.39997
1.39997
1.39997
1.40099
1.39997
1.39997
1.39997
1.39997
1.39997
1.39997
1.39997
1.39997
1.39997
1.39997
1.39997
1.39997
1.39997
1.39997
1.39997
1.39997
1.39997
1.39997
1.39997
1.39997
1.39997
1.39997
1.39997
1.39997
1.39997
1.39997
1.39997
1.39997
1.39997
1.39997
1.39997
1.39997
1.39997
1.39997
1.39997
1.39997
1.39997
1.39997
1.39997
1.39997
1.39997
1.39997
1.39997
1.39997
1.39997
1.39997
1.39997
1.39997
1.39997
1.39997
1.39997
1.39997
1.39997
1.39997
1.39997
1.39997
1.39997
1.39997
1.39997
1.39997
1.39997
1.39997
1.39997
1.39997
1.39997
1.39997
1.39997
1.39997
1.39997
1.39997
1.39997
1.39997
1.39997
1.39997
1.39997
1.39997
1.39997
1.39997
1.39997
1.39997
1.39997
1.39997
1.39997
1.39997
1.39997
1.39997
1.39997
1.39997
1.39997
1.39997
1.39997
1.39997
1.39997
1.39997
1.39997
1.39997
1.39997
1.39997
1.39997
1.39997
1.39997
1.39997
1.39997
1.39997
1.39997
1.39997
1.39997
1.39997
1.39997
1.39997
1.39997
1.39997
1.39997
1.39997
1.39997
1.39997
1.39997
1.39997
1.39997
1.39997
1.39997
1.39997
1.39997
1.39997
1.39997
1.39997
1.39997
1.39997
1.39997
1.39997
1.39997
1.39997
1.39997
1.39997
1.39997
1.39997
1.39997
1.39997
1.39997
1.39997
1.39997
1.39997
1.39997
1.39997
1.39997
1.39997
1.39997
1.39997
1.39997
1.39997
1.39997
1.39997
1.39997
1.39997
1.39997
1.39997
1.39997
1.39997
1.39997
1.39997
1.39997
1.39997
1.39997
1.39997
1.39997
1.39997
1.39997
1.39997
1.39997
1.39997
1.39997
1.39997
1.39997
1.39997
1.39997
1.39997
1.39997
1.39997
1.39997
1.39997
1.39997
1.39997
1.39997
1.39997
1.39997
1.39997
1.39997
1.39997
1.39997
1.39997
1.39997
1.39997
1.39997
1.39997
1.39997
1.39997
1.39997
1.39997
1.39997
1.39997
1.39997
1.39997
1.39997
1.39997
1.39997
1.39997
1.39997
1.39997
1.39997
1.39997
1.39997
1.39997
1.39997
1.39997
1.39997
1.39997
1.39997
1.39997
1.39997
1.39997
1.39997
1.39997
1.39997
1.39997
1.39997
1.39997
1.39997
1.39997
1.39997
1.39997
1.39997
1.39997
1.39997
1.39997
1.39997
1.39997
1.39997
1.39997
1.39997
1.39997
1.39997
1.39997
1.39997
1.39997
1.39997
1.39997
1.39997
1.39997
1.39997
1.39997
1.39997
1.39997
1.39997
1.39997
1.39997
1.39997
1.39997
1.39997
1.39997
1.39997
1.39997
1.39997
1.39997
1.39997
1.39997
1.39997
1.39997
1.39997
1.39997
1.39997
1.39997
1.39997
1.39997
1.39997
1.39997
1.39997
1.39997
1.39997
1.39997
1.39997
1.39997
1.39997
1.39997
1.39997
1.39997
1.39997
1.39997
1.39997
1.39997
1.39997
1.39997
1.39997
1.39997
1.39997
1.39997
1.39997
1.39997
1.39997
1.39997
1.39997
1.39997
1.39997
1.39997
1.39997
1.39997
1.39997
1.39997
1.39997
1.39997
1.39997
1.39997
1.39997
1.39997
1.39997
1.39997
1.39997
1.39997
1.39997
1.39997
1.39997
1.39997
1.39997
1.39997
1.39997
1.39997
1.39997
1.39997
1.39997
1.39997
1.39997
1.39997
1.39997
1.39997
1.39997
1.39997
1.39997
1.39997
1.39997
1.39997
1.39997
1.39997
1.39997
1.39997
1.39997
1.39997
1.39997
1.39997
1.39997
1.39997
1.39997
1.39997
1.39997
1.39997
1.39997
1.39997
1.39997
1.39997
1.39997
1.39997
1.39997
1.39997
1.39997
1.39997
1.39997
1.39997
1.39997
1.39997
1.39997
1.39997
1.39997
1.39997
1.39997
1.39997
1.39997
1.39997
1.39997
1.39997
1.39997
1.39997
1.39997
1.39997
1.39997
1.39997
1.39997
1.39997
1.39997
1.39997
1.39997
1.39997
1.39997
1.39997
1.39997
1.39997
1.39997
1.39997
1.39997
1.39997
1.39997
1.39997
1.39997
0.825559
0.382343
0.519811
0.698893
0.785549
0.841301
0.905789
0.929619
0.946222
0.959008
0.968149
0.98513
1.00484
1.0054
1.04741
2.11614
2.98899
3.06928
3.04825
2.96682
2.87056
2.79455
2.71478
2.62386
2.53492
2.44486
2.35714
2.28071
2.2195
2.17006
2.12893
2.09052
2.04721
1.99709
1.92448
1.81549
1.71427
1.65971
1.63361
1.58574
1.59406
0.698194
0.635096
0.69059
0.789047
0.872182
0.927893
0.948609
0.965879
0.980022
0.990291
1.00549
1.01622
1.0245
1.11096
2.11295
3.0071
3.09285
3.06342
2.99156
2.90497
2.82022
2.72348
2.62897
2.54093
2.45646
2.37844
2.30872
2.24468
2.18865
2.14103
2.09525
2.04726
1.98999
1.9181
1.82988
1.73864
1.67002
1.63857
1.58864
2.11132
1.04161
0.743047
0.734019
0.815084
0.920091
1.00698
1.02153
1.02844
1.02991
1.03908
1.05091
1.05902
1.07181
1.22643
2.13561
3.16261
3.23174
3.17445
3.09074
2.99773
2.89657
2.78877
2.68559
2.58662
2.49528
2.41616
2.34835
2.28793
2.23227
2.17755
2.12174
2.06219
1.99338
1.91561
1.84422
1.77671
1.70304
1.65571
1.59917
2.40542
1.41652
1.00094
0.800879
0.834166
0.915484
1.01719
1.08664
1.11284
1.09471
1.10057
1.11226
1.11776
1.14621
1.44007
2.08104
3.14105
3.39894
3.28404
3.1818
3.08735
2.97755
2.86993
2.76985
2.67432
2.58452
2.50261
2.42746
2.35773
2.29167
2.22514
2.15779
2.08846
2.01341
1.93852
1.87679
1.82016
1.75325
1.6916
1.61897
2.61639
1.74821
1.21195
0.901853
0.89537
0.911251
0.981979
1.07892
1.1409
1.14777
1.16383
1.16748
1.16909
1.24054
1.73401
2.06441
2.84804
3.42809
3.36489
3.24365
3.14493
3.04214
2.93293
2.82981
2.73588
2.65183
2.57629
2.50447
2.4327
2.35872
2.28062
2.1979
2.11342
2.03465
1.96946
1.91579
1.8647
1.806
1.74202
1.64874
2.79508
1.99839
1.42761
1.11894
0.984258
0.921407
0.94444
1.03392
1.12137
1.15159
1.18418
1.18425
1.1881
1.37218
2.01357
2.10714
2.42765
3.22442
3.38942
3.27246
3.1527
3.06094
2.97305
2.88147
2.79441
2.71477
2.63893
2.56095
2.47974
2.39533
2.31054
2.22642
2.14362
2.06909
2.00751
1.95398
1.90442
1.85105
1.78942
1.68112
2.94045
2.20338
1.6354
1.29627
1.07955
0.948897
0.967329
0.993828
1.06168
1.13318
1.18322
1.1797
1.19991
1.56934
2.21088
2.19297
2.21249
2.78041
3.3107
3.27146
3.15407
3.06339
2.98377
2.90408
2.8249
2.74512
2.66137
2.57343
2.48241
2.39557
2.31497
2.23888
2.16748
2.10178
2.04047
1.98306
1.93015
1.87754
1.81827
1.70538
3.02326
2.36225
1.80794
1.46474
1.21369
1.04739
1.00772
0.986738
1.00857
1.0845
1.157
1.16165
1.24431
1.76897
2.29512
2.27115
2.21973
2.37771
3.07418
3.2488
3.16567
3.06664
2.98196
2.90589
2.82755
2.74661
2.66169
2.56934
2.47424
2.38802
2.31497
2.25129
2.19185
2.13141
2.06736
2.00501
1.95162
1.89257
1.82943
1.72362
3.09172
2.47437
1.96171
1.62378
1.33985
1.1587
1.05138
0.987305
0.997382
1.0389
1.10306
1.13334
1.37639
1.95234
2.31427
2.30572
2.23132
2.20843
2.69031
3.17217
3.18628
3.07931
2.98195
2.89017
2.80731
2.735
2.65649
2.56579
2.47016
2.38592
2.31817
2.26395
2.2126
2.15654
2.09209
2.01934
1.94491
1.87811
1.82165
1.73585
3.1633
2.57239
2.10372
1.75931
1.46102
1.28249
1.13145
1.01896
1.01351
1.02132
1.05538
1.13229
1.56766
2.11428
2.31703
2.30519
2.23709
2.16986
2.33287
2.95008
3.1793
3.10146
2.9887
2.87954
2.78958
2.71646
2.64606
2.56728
2.48181
2.39977
2.33011
2.27403
2.22393
2.16909
2.1032
2.02273
1.93931
1.86784
1.81754
1.74402
3.23855
2.67408
2.23348
1.88348
1.57713
1.39682
1.20874
1.08395
1.03516
1.02412
1.03808
1.15924
1.73948
2.18271
2.30273
2.28416
2.22049
2.14497
2.15491
2.58387
3.09072
3.13285
3.02321
2.88999
2.7843
2.70585
2.63955
2.57345
2.50312
2.42618
2.34919
2.2814
2.22417
2.17173
2.10593
2.02305
1.93645
1.86079
1.8151
1.7521
3.32452
2.77155
2.35155
1.98798
1.68929
1.4954
1.29621
1.17518
1.08601
1.03982
1.05224
1.25949
1.86727
2.16238
2.25053
2.22998
2.18001
2.12706
2.10701
2.26168
2.84748
3.11984
3.05055
2.92618
2.7957
2.70424
2.63812
2.58045
2.52145
2.45148
2.36857
2.28857
2.22211
2.1596
2.09478
2.02122