/*--------------------------------*- C++ -*----------------------------------*\
  =========                 |
  \\      /  F ield         | OpenFOAM: The Open Source CFD Toolbox
   \\    /   O peration     | Website:  https://openfoam.org
    \\  /    A nd           | Version:  6.0
     \\/     M anipulation  |
\*---------------------------------------------------------------------------*/
FoamFile
{
    version     2.0;
    format      ascii;
    class       volScalarField;
    location    "2.50067029";
    object      T;
}
// * * * * * * * * * * * * * * * * * * * * * * * * * * * * * * * * * * * * * //

dimensions      [0 0 0 1 0 0 0];

internalField   nonuniform List<scalar> 
4800
(
1
1
1
1
1
1
1
1
1
1
1
1
1
1
1
1
1
1
1
1
1.22637
2.45153
2.71509
2.71175
2.70492
2.69546
2.71451
2.77877
2.84124
2.85826
2.82448
2.75068
2.70526
2.70556
2.7409
2.79696
2.831
2.8018
2.71221
2.65099
1
1
1
1
1
1
1
1
1
1
1
1
1
1
1
1
1
1
1
1
1.22344
2.44999
2.71443
2.71421
2.71313
2.71516
2.73044
2.74451
2.76452
2.78512
2.77627
2.78487
2.78907
2.7911
2.80756
2.80702
2.79454
2.76862
2.74897
2.74625
1
1
1
1
1
1
1
1
1
1
1
1
1
1
1
1
1
1
1
1
1.21961
2.44767
2.71109
2.70982
2.71718
2.73603
2.7411
2.7269
2.70696
2.69475
2.72238
2.78093
2.82705
2.8427
2.8394
2.80153
2.74908
2.73529
2.75657
2.79095
1
1
1
1
1
1
1
1
1
1
1
1
1
1
1
1
1
1
1
1
1.21643
2.44331
2.70521
2.70209
2.72595
2.74911
2.75477
2.73442
2.68849
2.67284
2.71812
2.76496
2.82424
2.8472
2.82085
2.75009
2.70224
2.72355
2.74828
2.78382
1
1
1
1
1
1
1
1
1
1
1
1
1
1
1
1
1
1
1
1
1.20933
2.43776
2.70556
2.70329
2.72042
2.74538
2.75431
2.73994
2.71714
2.71462
2.75497
2.8136
2.82601
2.79575
2.74602
2.70316
2.69821
2.73224
2.77977
2.79164
1
1
1
1
1
1
1
1
1
1
1
1
1
1
1
1
1
1
1
1
1.20038
2.43165
2.70812
2.71182
2.71772
2.72533
2.73828
2.74954
2.76883
2.80248
2.80606
2.80259
2.79183
2.74023
2.70582
2.72228
2.74381
2.77273
2.75799
2.7457
1
1
1
1
1
1
1
1
1
1
1
1
1
1
1
1
1
1
1
1
1.18863
2.42698
2.71569
2.72023
2.71849
2.71201
2.70843
2.73922
2.80537
2.84914
2.86812
2.82297
2.72839
2.70264
2.74009
2.79085
2.81731
2.79849
2.73803
2.65495
1
1
1
1
1
1
1
1
1
1
1
1
1
1
1
1
1
1
1
1
1.17823
2.42201
2.72207
2.7237
2.72204
2.70528
2.70405
2.74448
2.79937
2.83001
2.80654
2.73403
2.71335
2.74008
2.79718
2.85039
2.85495
2.79838
2.66443
2.62729
1
1
1
1
1
1
1
1
1
1
1
1
1
1
1
1
1
1
1
1
1.16549
2.41246
2.71949
2.72051
2.71651
2.71102
2.72464
2.74856
2.76531
2.76158
2.72389
2.72381
2.7403
2.76877
2.80275
2.84421
2.82569
2.7357
2.66214
2.64656
1
1
1
1
1
1
1
1
1
1
1
1
1
1
1
1
1
1
1
1
1.14427
2.39542
2.71438
2.70861
2.70827
2.72017
2.74518
2.75651
2.74286
2.69803
2.66297
2.68149
2.74063
2.79898
2.82733
2.78836
2.72129
2.6923
2.65382
2.6487
1
1
1
1
1
1
1
1
1
1
1
1
1
1
1
1
1
1
1
1
1.11972
2.3741
2.70961
2.69817
2.69974
2.72726
2.75529
2.76366
2.74002
2.68543
2.66202
2.68359
2.76131
2.82502
2.79354
2.71629
2.65608
2.68354
2.74125
2.79168
1
1
1
1
1
1
1
1
1
1
1
1
1
1
1
1
1
1
1
1
1.09833
2.35548
2.70346
2.69661
2.70773
2.72769
2.74747
2.75275
2.73313
2.71498
2.72528
2.79068
2.82395
2.81972
2.76027
2.6462
2.64928
2.72546
2.81508
2.86325
1
1
1
1
1
1
1
1
1
1
1
1
1
1
1
1
1
1
1
1
1.07944
2.33992
2.69455
2.70231
2.72046
2.73203
2.73458
2.72027
2.7174
2.76479
2.84112
2.86157
2.87497
2.80718
2.67836
2.6813
2.7041
2.78244
2.83814
2.86815
1
1
1
1
1
1
1
1
1
1
1
1
1
1
1
1
1
1
1
1
1.05811
2.32627
2.68641
2.70647
2.72829
2.73744
2.72744
2.70483
2.7278
2.80673
2.86912
2.90408
2.85278
2.70969
2.70102
2.72967
2.79554
2.80424
2.75521
2.68854
1
1
1
1
1
1
1
1
1
1
1
1
1
1
1
1
1
1
1
1
1.02799
2.31643
2.6962
2.70551
2.71835
2.7306
2.7291
2.72157
2.75454
2.79636
2.83454
2.80664
2.6968
2.69867
2.72452
2.79267
2.83011
2.78482
2.66092
2.61534
1
1
1
1
1
1
1
1
1
1
1
1
1
1
1
1
1
1
1
1
1.00306
2.30386
2.70802
2.70854
2.70802
2.70696
2.71298
2.74298
2.77603
2.78869
2.75261
2.64755
2.64283
2.68593
2.79199
2.83617
2.80222
2.70408
2.64112
2.66412
1
1
1
1
1
1
1
1
1
1
1
1
1
1
1
1
1
1
1
1
1.00007
2.28379
2.70999
2.70977
2.70207
2.68342
2.68768
2.7379
2.78056
2.77481
2.67561
2.60994
2.63326
2.72419
2.8189
2.81742
2.75004
2.64016
2.65706
2.70766
1
1
1
1
1
1
1
1
1
1
1
1
1
1
1
1
1
1
1
1
0.999995
2.25871
2.70524
2.70488
2.68929
2.68079
2.70361
2.74635
2.76459
2.72768
2.6737
2.657
2.69129
2.81168
2.83394
2.7911
2.64538
2.62368
2.66707
2.71218
1
1
1
1
1
1
1
1
1
1
1
1
1
1
1
1
1
1
1
1
0.999998
2.22685
2.69552
2.6907
2.69601
2.71282
2.7394
2.74537
2.73488
2.69351
2.67977
2.74278
2.83646
2.8487
2.81067
2.65749
2.64524
2.64032
2.65196
2.66447
1
1
1
1
1
1
1
1
1
1
1
1
1
1
1
1
1
1
1
1
1
2.19293
2.68523
2.67917
2.70218
2.74082
2.75529
2.74917
2.71655
2.68403
2.72635
2.84018
2.88655
2.84522
2.68067
2.62805
2.67008
2.69792
2.65901
2.59644
1
1
1
1
1
1
1
1
1
1
1
1
1
1
1
1
1
1
1
1
1
2.16057
2.68128
2.69018
2.71167
2.72839
2.74339
2.74237
2.7097
2.72235
2.81577
2.85306
2.85062
2.75235
2.60759
2.60109
2.6891
2.79443
2.74266
2.66978
1
1
1
1
1
1
1
1
1
1
1
1
1
1
1
1
1
1
1
1
1
2.13444
2.68583
2.71123
2.71489
2.71551
2.71447
2.69953
2.71472
2.7795
2.82718
2.83195
2.78784
2.66051
2.62002
2.63644
2.75004
2.80602
2.81472
2.8213
1
1
1
1
1
1
1
1
1
1
1
1
1
1
1
1
1
1
1
1
1
2.1025
2.68848
2.71471
2.71789
2.7125
2.68622
2.67015
2.70342
2.78312
2.81417
2.77326
2.62865
2.66252
2.73967
2.82157
2.80485
2.76315
2.7962
2.8459
1
1
1
1
1
1
1
1
1
1
1
1
1
1
1
1
1
1
1
1
1
2.06144
2.68117
2.7105
2.71746
2.69553
2.6804
2.68731
2.74219
2.75918
2.74871
2.63881
2.63333
2.69167
2.84911
2.87059
2.8202
2.70505
2.69173
2.76961
1
1
1
1
1
1
1
1
1
1
1
1
1
1
1
1
1
1
1
1
1
2.01692
2.66671
2.68937
2.68635
2.6911
2.69717
2.74378
2.75217
2.74237
2.66826
2.611
2.63607
2.75824
2.85245
2.86737
2.80429
2.65029
2.58512
2.56752
1
1
1
1
1
1
1
1
1
1
1
1
1
1
1
1
1
1
1
1
1
1.96492
2.64943
2.66589
2.66242
2.68264
2.7369
2.75837
2.75921
2.72218
2.64688
2.62747
2.70396
2.80522
2.81869
2.76609
2.65284
2.63624
2.59061
2.54254
1
1
1
1
1
1
1
1
1
1
1
1
1
1
1
1
1
1
1
1
1
1.90128
2.62582
2.65377
2.66682
2.70451
2.73476
2.74869
2.74714
2.70209
2.67211
2.74008
2.81387
2.79337
2.73387
2.59108
2.60965
2.61645
2.59856
2.5461
1
1
1
1
1
1
1
1
1
1
1
1
1
1
1
1
1
1
1
1
1
1.83438
2.60183
2.66545
2.70456
2.72368
2.7261
2.72492
2.70273
2.68488
2.72632
2.81391
2.8157
2.78766
2.61187
2.57365
2.60093
2.60458
2.57313
2.52695
1
1
1
1
1
1
1
1
1
1
1
1
1
1
1
1
1
1
1
1
1
1.78025
2.58254
2.69733
2.72045
2.72818
2.72807
2.70604
2.67697
2.68486
2.77842
2.80881
2.81498
2.71038
2.59318
2.58685
2.63227
2.66487
2.59576
2.52272
1
1
1
1
1
1
1
1
1
1
1
1
1
1
1
1
1
1
1
1
1
1.73774
2.58177
2.697
2.71612
2.72624
2.7036
2.67113
2.68057
2.72851
2.77499
2.79604
2.75606
2.65058
2.59242
2.61755
2.72019
2.77731
2.72542
2.66823
1
1
1
1
1
1
1
1
1
1
1
1
1
1
1
1
1
1
1
1
1
1.6737
2.57206
2.68131
2.69372
2.67855
2.66608
2.67092
2.69268
2.76035
2.77339
2.75148
2.64411
2.64713
2.70459
2.7956
2.80438
2.76411
2.81071
2.86679
1
1
1
1
1
1
1
1
1
1
1
1
1
1
1
1
1
1
1
1
1
1.59705
2.54076
2.66828
2.64842
2.64169
2.6455
2.66719
2.74254
2.76251
2.75933
2.66162
2.63456
2.6676
2.80539
2.81485
2.78818
2.72279
2.78268
2.85972
1
1
1
1
1
1
1
1
1
1
1
1
1
1
1
1
1
1
1
1
1
1.5143
2.50332
2.64185
2.62289
2.63477
2.66982
2.73682
2.75173
2.74902
2.68184
2.63941
2.63843
2.76519
2.81487
2.81524
2.76799
2.66795
2.66673
2.71562
1
1
1
1
1
1
1
1
1
1
1
1
1
1
1
1
1
1
1
1
1
1.40005
2.44746
2.6269
2.62365
2.66288
2.73338
2.75172
2.74715
2.70409
2.64958
2.64981
2.73441
2.77668
2.79206
2.71818
2.59058
2.53892
2.47447
2.42587
1
1
1
1
1
1
1
1
1
1
1
1
1
1
1
1
1
1
1
1
1
1.26437
2.38498
2.60748
2.6497
2.70591
2.73397
2.74497
2.71261
2.65174
2.65271
2.7096
2.7787
2.76988
2.68828
2.53055
2.53108
2.5224
2.45025
2.3846
1
1
1
1
1
1
1
1
1
1
1
1
1
1
1
1
1
1
1
1
1
1.14716
2.35348
2.62658
2.67244
2.69936
2.70869
2.68596
2.64195
2.64189
2.66369
2.76588
2.77223
2.74359
2.5595
2.50079
2.50815
2.50664
2.4393
2.37652
1
1
1
1
1
1
1
1
1
1
1
1
1
1
1
1
1
1
1
1
1
1.0494
2.33912
2.64532
2.65475
2.66844
2.64525
2.60771
2.63332
2.6606
2.75251
2.76194
2.75778
2.65737
2.52822
2.48841
2.4878
2.48566
2.42822
2.35629
1
1
1
1
1
1
1
1
1
1
1
1
1
1
1
1
1
1
1
1
1
1.00325
2.32851
2.64021
2.63498
2.63301
2.57943
2.58245
2.62945
2.73442
2.76814
2.75359
2.70258
2.60573
2.54774
2.51358
2.54369
2.50397
2.42059
2.31277
1
1
1
1
1
1
1
1
1
1
1
1
1
1
1
1
1
1
1
1
1
1.00001
2.29259
2.63835
2.61355
2.57976
2.5618
2.58189
2.676
2.75733
2.76298
2.73686
2.61774
2.60024
2.62209
2.76961
2.78214
2.72158
2.41944
2.2371
1
1
1
1
1
1
1
1
1
1
1
1
1
1
1
1
1
1
1
1
1
0.999999
2.22121
2.61819
2.58971
2.5682
2.59402
2.67656
2.72607
2.73606
2.7216
2.63928
2.6162
2.66354
2.79773
2.81301
2.78088
2.75187
2.70799
2.58675
1
1
1
1
1
1
1
1
1
1
1
1
1
1
1
1
1
1
1
1
1
1
2.05274
2.61891
2.62345
2.63807
2.65802
2.67366
2.66521
2.64469
2.63559
2.66127
2.70685
2.73666
2.74156
2.70242
2.64697
2.59638
2.61865
2.62773
1
1
1
1
1
1
1
1
1
1
1
1
1
1
1
1
1
1
1
1
1
1
1.67066
2.53798
2.63023
2.6321
2.62932
2.62148
2.62126
2.63638
2.65963
2.67195
2.6777
2.67459
2.65481
2.63403
2.60291
2.53659
2.429
2.2962
1
1
1
1
1
1
1
1
1
1
1
1
1
1
1
1
1
1
1
1
1
1
1.14543
2.35045
2.62548
2.61748
2.61537
2.61581
2.62083
2.62795
2.63066
2.63079
2.6304
2.63282
2.63585
2.62959
2.59846
2.5324
2.43367
2.3067
1
1
1
1
1
1
1
1
1
1
1
1
1
1
1
1
1
1
1
1
1
1
1.00314
2.11404
2.57362
2.59042
2.60148
2.60457
2.60309
2.59882
2.59704
2.59997
2.60588
2.60499
2.59767
2.58124
2.55132
2.50335
2.43263
2.32596
1
1
1
1
1
1
1
1
1
1
1
1
1
1
1
1
1
1
1
1
1
1
0.999991
1.60776
2.45531
2.56309
2.58016
2.58485
2.58276
2.58055
2.58053
2.57955
2.57533
2.56569
2.55061
2.52922
2.50015
2.46378
2.40393
2.31932
1
1
1
1
1
1
1
1
1
1
1
1
1
1
1
1
1
1
1
1
1
1
0.999998
1.07083
2.2514
2.5473
2.55587
2.56314
2.56565
2.56522
2.56089
2.5528
2.54456
2.53513
2.51891
2.49578
2.46179
2.42344
2.37264
2.30644
1
1
1
1
1
1
1
1
1
1
1
1
1
1
1
1
1
1
1
1
1
1
1
1.00062
1.83728
2.47159
2.524
2.53707
2.5429
2.54122
2.53528
2.52898
2.52192
2.50923
2.48956
2.46387
2.42959
2.39197
2.34742
2.29285
1
1
1
1
1
1
1
1
1
1
1
1
1
1
1
1
1
1
1
1
1
1
1
0.999999
1.14937
2.28683
2.5159
2.51305
2.51663
2.51407
2.51108
2.50792
2.49941
2.4825
2.46227
2.43614
2.40498
2.36806
2.32587
2.27804
1
1
1
1
1
1
1
1
1
1
1
1
1
1
1
1
1
1
1
1
1
1
1
1
1.00294
1.92084
2.44697
2.48029
2.48931
2.48804
2.48552
2.4813
2.4712
2.45561
2.43809
2.41482
2.38589
2.35127
2.31084
2.26481
1
1
1
1
1
1
1
1
1
1
1
1
1
1
1
1
1
1
1
1
1
1
1
1
0.999998
1.19795
2.25727
2.47134
2.46588
2.46668
2.46255
2.45519
2.44452
2.43201
2.41648
2.39614
2.36967
2.33813
2.30115
2.25958
1
1
1
1
1
1
1
1
1
1
1
1
1
1
1
1
1
1
1
1
1
1
1
1
0.999999
1.0051
1.86837
2.39874
2.43714
2.4421
2.43877
2.432
2.42213
2.40968
2.39377
2.37433
2.35125
2.32496
2.29344
2.25642
1
1
1
1
1
1
1
1
1
1
1
1
1
1
1
1
1
1
1
1
1
1
1
1
1
1
1.17454
2.17202
2.42052
2.41471
2.41599
2.41124
2.40355
2.39073
2.37336
2.35308
2.33181
2.3096
2.28339
2.25109
1
1
1
1
1
1
1
1
1
1
1
1
1
1
1
1
1
1
1
1
1
1
1
1
1
1
1.00391
1.62929
2.29538
2.38897
2.38716
2.38655
2.38297
2.37271
2.3556
2.33426
2.31339
2.29345
2.27038
2.24194
1
1
1
1
1
1
1
1
1
1
1
1
1
1
1
1
1
1
1
1
1
1
1
1
1
1
1.00001
1.07831
2.0067
2.35761
2.3656
2.36413
2.36059
2.35252
2.33813
2.31881
2.2991
2.27922
2.25647
2.2302
1
1
1
1
1
1
1
1
1
1
1
1
1
1
1
1
1
1
1
1
1
1
1
1
1
1
1
1.00084
1.32033
2.13797
2.33171
2.33214
2.33139
2.32678
2.317
2.30247
2.28602
2.26659
2.24342
2.21877
1
1
1
1
1
1
1
1
1
1
1
1
1
1
1
1
1
1
1
1
1
1
1
1
1
1
1
1
1.01503
1.59162
2.20797
2.31329
2.30601
2.30302
2.29678
2.28661
2.27355
2.25539
2.23267
2.20981
1
1
1
1
1
1
1
1
1
1
1
1
1
1
1
1
1
1
1
1
1
1
1
1
1
1
1
1
1.00007
1.07308
1.88611
2.25589
2.28322
2.27873
2.27363
2.26649
2.25659
2.24091
2.221
2.20131
1
1
1
1
1
1
1
1
1
1
1
1
1
1
1
1
1
1
1
1
1
1
1
1
1
1
1
1
1
1.00083
1.2395
2.00739
2.2491
2.25131
2.2485
2.24383
2.23668
2.2246
2.20921
2.19286
1
1
1
1
1
1
1
1
1
1
1
1
1
1
1
1
1
1
1
1
1
1
1
1
1
1
1
1
1
1
1.00802
1.40561
2.06696
2.22662
2.22147
2.2189
2.21408
2.20548
2.19461
2.18141
1
1
1
1
1
1
1
1
1
1
1
1
1
1
1
1
1
1
1
1
1
1
1
1
1
1
1
1
1
1
1.00003
1.02802
1.56047
2.09952
2.20311
2.1924
2.18954
2.18386
2.176
2.16548
1
1
1
1
1
1
1
1
1
1
1
1
1
1
1
1
1
1
1
1
1
1
1
1
1
1
1
1
1
1
1
1.00021
1.0683
1.69874
2.11281
2.18059
2.16899
2.16267
2.15582
2.14652
1
1
1
1
1
1
1
1
1
1
1
1
1
1
1
1
1
1
1
1
1
1
1
1
1
1
1
1
1
1
1
1
1.00088
1.13465
1.79504
2.11021
2.1585
2.14731
2.13837
2.12897
1
1
1
1
1
1
1
1
1
1
1
1
1
1
1
1
1
1
1
1
1
1
1
1
1
1
1
1
1
1
1
1
1
1.0029
1.21323
1.84431
2.09677
2.13434
2.12372
2.11336
1
1
1
1
1
1
1
1
1
1
1
1
1
1
1
1
1
1
1
1
1
1
1
1
1
1
1
1
1
1
1
1
1
1.00001
1.0072
1.27975
1.86543
2.08033
2.10905
2.09935
1
1
1
1
1
1
1
1
1
1
1
1
1
1
1
1
1
1
1
1
1
1
1
1
1
1
1
1
1
1
1
1
1
1
1.00004
1.01321
1.32741
1.87576
2.05767
2.08614
1
1
1
1
1
1
1
1
1
1
1
1
1
1
1
1
1
1
1
1
1
1
1
1
1
1
1
1
1
1
1
1
1
1
1
1.00008
1.01964
1.36096
1.86598
2.05029
1
1
1
1
1
1
1
1
1
1
1
1
1
1
1
1
1
1
1
1
1
1
1
1
1
1
1
1
1
1
1
1
1
1
1
1
1.00015
1.0256
1.36988
1.89247
1
1
1
1
1
1
1
1
1
1
1
1
1
1
1
1
1
1
1
1
1
1
1
1
1
1
1
1
1
1
1
1
1
1
1
1
1
1.00024
1.02787
1.47142
1
1
1
1
1
1
1
1
1
1
1
1
1
1
1
1
1
1
1
1
1
1
1
1
1
1
1
1
1
1
1
1
1
1
1
1
1
1
1.00025
1.04955
1
1
1
1
1
1
1
1
1
1
1
1
1
1
1
1
1
1
1
1
1
1
1
1
1
1
1
1
1
1
1
1
1
1
1
1
1
1
1
1.00044
1
1
1
1
1
1
1
1
1
1
1
1
1
1
1
1
1
1
1
1
1
1
1
1
1
1
1
1
1
1
1
1
1
1
1
1
1
1
1
1
1
1
1
1
1
1
1
1
1
1
1
1
1
1
1
1
1
1
1
1
1
1
1
1
1
1
1
1
1
1
1
1
1
1
1
1
1
1
1
1
1
1
1
1
1
1
1
1
1
1
1
1
1
1
1
1
1
1
1
1
1
1
1
1
1
1
1
1
1
1
1
1
1
1
1
1
1
1
1
1
1
1
1
1
1
1
1
1
1
1
1
1
1
1
1
1
1
1
1
1
1
1
1
1
1
1
1
1
1
1
1
1
1
1
1
1
1
1
1
1
1
1
1
1
1
1
1
1
1
1
1
1
1
1
1
1
1
1
1
1
1
1
1
1
1
1
1
1
1
1
1
1
1
1
1
1
1
1
1
1
1
1
1
1
1
1
1
1
1
1
1
1
1
1
1
1
1
1
1
1
1
1
1
1
1
1
1
1
1
1
1
1
1
1
1
1
1
1
1
1
1
1
1
1
1
1
1
1
1
1
1
1
1
1
1
1
1
1
1
1
1
1
1
1
1
1
1
1
1
1
1
1
1
1
1
1
1
1
1
1
1
1
1
1
1
1
1
1
1
1
1
1
1
1
1
1
1
1
1
1
1
1
1
1
1
1
1
1
1
1
1
1
1
1
1
1
1
1
1
1
1
1
1
1
1
1
1
1
1
1
1
1
1
1
1
1
1
1
1
1
1
1
1
1
1
1
1
1
1
1
1
1
1
1
1
1
1
1
1
1
1
1
1
1
1
1
1
1
1
1
1
1
1
1
1
1
1
1
1
1
1
1
1
1
1
1
1
1
1
1
1
1
1
1
1
1
1
1
1
1
1.60966
1.35263
1.51087
1.65724
1.74384
1.81041
1.87608
1.88819
1.89032
1.88363
1.86331
1.83741
1.81248
1.79713
1.8231
2.52928
2.85381
2.78958
2.70102
2.61708
2.56307
2.53433
2.50802
2.47782
2.44674
2.41226
2.37506
2.33924
2.30681
2.27639
2.24736
2.21903
2.19076
2.16362
2.13131
2.08761
2.04808
2.02777
2.01825
1.99767
1.93076
1.54236
1.46455
1.51669
1.62464
1.72161
1.78548
1.81767
1.83737
1.83819
1.82855
1.80849
1.7817
1.7758
1.82425
2.43078
2.76705
2.71659
2.64224
2.57828
2.53738
2.50992
2.48013
2.45039
2.42131
2.39112
2.36053
2.33025
2.29917
2.26827
2.23833
2.20802
2.17807
2.14824
2.11817
2.08537
2.05117
2.02542
2.01369
1.99257
1.98328
1.59297
1.40469
1.40373
1.47017
1.56727
1.65206
1.69064
1.7223
1.73282
1.73424
1.72535
1.70831
1.70876
1.79211
2.20719
2.61546
2.58628
2.53579
2.49734
2.47177
2.44771
2.42011
2.39178
2.3627
2.33438
2.30882
2.2854
2.2622
2.23774
2.21006
2.17923
2.14689
2.1148
2.0854
2.06267
2.04183
2.01663
1.99862
1.97566
2.00731
1.66392
1.47159
1.372
1.3892
1.43963
1.50828
1.56901
1.61764
1.62088
1.62739
1.62569
1.61826
1.62887
1.78089
2.00683
2.39107
2.46926
2.43159
2.40476
2.3861
2.36433
2.34145
2.31791
2.29299
2.2682
2.2456
2.22519
2.20578
2.185
2.1597
2.12998
2.09836
2.06758
2.04179
2.02565
2.01344
1.99485
1.97289
1.94461
2.04079
1.75059
1.53367
1.39603
1.37361
1.37718
1.41267
1.47554
1.52949
1.55343
1.56268
1.55882
1.55181
1.58899
1.83068
1.93308
2.18504
2.36852
2.37467
2.34803
2.32436
2.30244
2.27895
2.25499
2.23047
2.20703
2.18652
2.16844
2.15089
2.13132
2.10691
2.07671
2.04359
2.01389
1.99376
1.98249
1.9738
1.96096
1.94075
1.90595
2.08232
1.82626
1.61197
1.47628
1.39266
1.35362
1.36616
1.41693
1.47125
1.5022
1.5203
1.51656
1.51272
1.60192
1.89776
1.91651
2.02251
2.27282
2.34893
2.32057
2.28886
2.2664
2.24652
2.22463
2.20118
2.17769
2.15521
2.1331
2.11061
2.08645
2.06036
2.0321
2.00261
1.9765
1.958
1.94583
1.93666
1.92536
1.90692
1.86773
2.11285
1.88938
1.68786
1.54331
1.4297
1.35152
1.36272
1.38198
1.42377
1.46725
1.49393
1.48941
1.49795
1.6732
1.94689
1.93764
1.94596
2.14549
2.3152
2.30618
2.2738
2.24891
2.22928
2.20953
2.18763
2.16315
2.13625
2.108
2.07927
2.05195
2.02623
2.00122
1.97693
1.95455
1.93523
1.91952
1.90693
1.89418
1.87586
1.83544
2.12427
1.93506
1.74731
1.60797
1.4886
1.3942
1.37254
1.37366
1.38933
1.43399
1.47123
1.47052
1.50792
1.75991
1.97292
1.96441
1.94863
2.00505
2.24506
2.29272
2.26758
2.23899
2.21661
2.19713
2.17526
2.15038
2.12225
2.09058
2.05828
2.03
2.0064
1.98532
1.9651
1.94429
1.9229
1.90353
1.88844
1.87135
1.85101
1.81339
2.13468
1.96424
1.79641
1.66643
1.54116
1.44981
1.39542
1.3719
1.38045
1.40572
1.43941
1.45185
1.56681
1.8372
1.9781
1.97573
1.95156
1.93514
2.10808
2.26193
2.26246
2.23081
2.20407
2.18032
2.15763
2.1361
2.11067
2.07996
2.04728
2.01864
1.99578
1.97722
1.95938
1.94008
1.91803
1.8935
1.86856
1.84685
1.82859
1.79852
2.14655
1.98777
1.83925
1.71372
1.58939
1.50846
1.43752
1.38686
1.38776
1.39249
1.40981
1.44771
1.66561
1.90984
1.97679
1.9707
1.94413
1.91269
1.96402
2.1753
2.24383
2.22054
2.19043
2.16225
2.13903
2.11838
2.09631
2.07031
2.04158
2.01364
1.9899
1.97109
1.95421
1.9355
1.91242
1.88393
1.85471
1.83036
1.81338
1.78755
2.15707
2.01107
1.87662
1.7556
1.63456
1.55952
1.47559
1.4189
1.39695
1.38993
1.3969
1.45632
1.75503
1.94095
1.96324
1.95345
1.92514
1.89383
1.8826
2.03262
2.19317
2.21095
2.1804
2.14597
2.11937
2.09825
2.07873
2.05782
2.03479
2.0096
1.98453
1.96276
1.94448
1.92703
1.90407
1.87471
1.84382
1.81696
1.80148
1.7795
2.16625
2.03063
1.90877
1.78928
1.6771
1.60103
1.51579
1.46179
1.41926
1.39366
1.39981
1.50345
1.81343
1.92433
1.9342
1.9218
1.89719
1.87188
1.85425
1.90252
2.09613
2.18093
2.16302
2.13311
2.10087
2.07658
2.05812
2.04113
2.02312
2.00156
1.97578
1.95062
1.92992
1.90981
1.88836
1.86339
1.83438
1.80681
1.79183
1.77158
2.16779
2.04399
1.93394
1.81668
1.71697
1.63663
1.55465
1.49665
1.44224
1.40465
1.41287
1.59962
1.85699
1.88994
1.88619
1.8798
1.86841
1.85249
1.83795
1.83588
1.962
2.11696
2.14434
2.11931
2.08629
2.057
2.0362
2.02028
2.00487
1.98653
1.96319
1.93661
1.91188
1.89066
1.87041
1.84814
1.82441
1.79933
1.78371
1.76295
2.16523
2.05104
1.95113
1.83908
1.75149
1.66717
1.5865
1.53208
1.47309
1.42722
1.4475
1.71473
1.87412
1.86007
1.83781
1.83155
1.83745
1.83286
1.82475
1.80686
1.84074
2.01047
2.10376
2.09608
2.07155
2.04017
2.01365
1.99519
1.98004
1.96395
1.94438
1.92036
1.89369
1.87021
1.85007
1.83108
1.81197
1.79137
1.77559
1.75304
2.15857
2.05385
1.96236
1.85829
1.781
1.69088
1.61786
1.56385
1.49993
1.45134
1.51811
1.80792
1.86951
1.85096
1.82155
1.80183
1.80488
1.80781
1.80536
1.78731
1.76766
1.86824
2.02336
2.06659
2.04988
2.02485
1.99473
1.97026
1.95203
1.93622
1.91986
1.90006
1.87589
1.85096
1.82985
1.8129
1.79767
1.78149
1.76608
1.74068
2.15124
2.05524
1.9703
1.87555
1.80374
1.70996
1.64793
1.58949
1.52574
1.4812
1.63749
1.88037
1.87156
1.84529
1.8139
1.78676
1.76832
1.77025
1.77303
1.75892
1.73193
1.74779
1.89465
2.01083
2.02852
2.0091
1.97804
1.94703
1.92455
1.90823
1.89382
1.8778
1.85735
1.83339
1.81171
1.79539
1.78211
1.7687
1.75397
1.72607
2.14447
2.05755
1.97598
1.89184
1.81854
1.72847
1.67543
1.61006
1.5516
1.52997
1.77602
1.91709
1.8911
1.85221
1.81331
1.77629
1.7427
1.72282
1.71906
1.71861
1.70301
1.68425
1.75051
1.91039
1.99058
1.98298
1.95951
1.92848
1.90087
1.88199
1.86904
1.85565
1.83843
1.81718
1.79585
1.77882
1.76524
1.75229
1.73816
1.7095
2.13887
2.06035
1.98025
1.90563
1.82739
1.74686
1.69962
1.62734
1.57778
1.618
1.88973
1.93066
1.90371
1.86057
1.81363
1.76775
1.72741
1.69229
1.66816
1.66592
1.66515
1.65052
1.6561
1.77498
1.92064
1.95505
1.93857
1.915
1.88636
1.86154
1.84549
1.83287
1.81834
1.8003
1.78063
1.76245
1.74688
1.73281
1.71887
1.69096
2.13231
2.06043
1.9816
1.91492
1.83272
1.76757
1.71817
1.64415
1.60251
1.75008
1.97679
1.94834
1.90979
1.86503
1.81549
1.7642
1.71519
1.67507
1.64523
1.62281
1.62404
1.62178
1.61035
1.64886
1.80421
1.90888
1.91916
1.90307
1.87575
1.84511
1.82477
1.81031
1.79629
1.7811
1.7642
1.74629
1.72884
1.71252
1.69773
1.67129
2.12423
2.05864
1.983
1.92028
1.83976
1.79052
1.73186
1.66179
1.63893
1.90015
2.02032
1.97435
1.91967
1.86899
1.81714
1.76263
1.70963
1.66339
1.62948
1.6044
1.58722
1.58569
1.57988
1.58034
1.66816
1.82151
1.88996
1.88507
1.86199
1.83062
1.80581
1.79139
1.77603
1.76054
1.74559
1.72931
1.71186
1.69428
1.6785
1.65296
2.11275
2.05212
1.98369
1.92259
1.85144
1.81109
1.74046
1.67898
1.72467
2.01697
2.03207
1.98976
1.92953
1.87147
1.81672
1.76125
1.7069
1.65898
1.61939
1.59025
1.56799
1.55272
1.54685
1.54037
1.56146
1.69712
1.83822
1.8608
1.84686
1.81943
1.79104
1.76813
1.75212
1.73908
1.72648
1.71203
1.69507
1.67743
1.6617
1.63737
2.09939
2.04156
1.98348
1.92408
1.86743
1.82313
1.74454
1.69395
1.86924
2.0878
2.04518
1.99556
1.93864
1.8785
1.81913
1.76164
1.70639
1.65683
1.61495
1.58093
1.55484
1.53462
1.51695
1.50955
1.50688
1.5619
1.72419
1.82601
1.82782
1.80974
1.77873
1.75196
1.73558
1.72314
1.7099
1.6954
1.67843
1.66127
1.64646
1.62436
2.08507
2.02983
1.98219
1.92562
1.88308
1.82409
1.75047
1.72531
2.02589
2.11897
2.06142
2.00051
1.94193
1.88055
1.8189
1.76017
1.70607
1.65751
1.61505
1.57828
1.54717
1.52217
1.50295
1.4834
1.47338
1.47946
1.57747
1.74159
1.80031
1.79299
1.76734
1.74124
1.72261
1.70967
1.69884
1.6832
1.66559
1.64891
1.6349
1.61407
2.07088
2.01984
1.97897
1.92615
1.88602
1.81663
1.75235
1.82246
2.13484
2.12564
2.07021
2.0041
1.94189
1.88029
1.81916
1.76092
1.70701
1.65875
1.61591
1.57836
1.54426
1.5152
1.4917
1.47268
1.45241
1.44259
1.46257
1.60415
1.75661
1.77387
1.76041
1.73726
1.71524
1.69813
1.68194
1.6706
1.6599
1.64271
1.62727
1.60537
2.05798
2.01462
1.97397
1.9251
1.8799
1.80093
1.75676
1.98571
2.18462
2.13143
2.07219
2.00641
1.94022
1.87689
1.81635
1.75946
1.70755
1.6609
1.6188
1.58019
1.54498
1.51286
1.48523
1.46328
1.4435
1.42326
1.4168
1.46433
1.63619
1.75357
1.75368
1.73728
1.71019
1.68749
1.67015
1.65863
1.64697
1.63171
1.6182
1.59681
2.04672
2.0121
1.96548
1.91927
1.86484
1.79001
1.79685
2.14113
2.20853
2.14079
2.06908
2.00048
1.93306
1.87023
1.81231
1.75847
1.70943
1.6654
1.62467
1.58549
1.54835
1.51412
1.48325
1.45684
1.43623
1.41527
1.39494
1.39339
1.48152
1.66435
1.73262
1.725
1.70186
1.67816
1.66075
1.6487
1.63681
1.62274
1.60944
1.58579
2.03423
2.00407
1.95109
1.9079
1.84146
1.79195
1.92007
2.22007
2.20513
2.13991
2.06417
1.99217
1.92547
1.86472
1.80892
1.7573
1.71047
1.66889
1.63046
1.59237
1.55413
1.51754
1.48459
1.45552
1.43169
1.41028
1.38754
1.36684
1.37697
1.52135
1.68206
1.70491
1.69472
1.67486
1.65558
1.63901
1.62679
1.61658
1.60285
1.57681
2.01444
1.99699
1.93412
1.89063
1.82037
1.80215
2.10863
2.26134
2.194
2.12989
2.05703
1.98553
1.92062
1.86099
1.80535
1.75468
1.71068
1.67224
1.63611
1.59898
1.55948
1.52013
1.48521
1.45541
1.42947
1.40701
1.38264
1.3594
1.34074
1.37635
1.55366
1.67911
1.6867
1.67276
1.65024
1.6319
1.61824
1.60422
1.59016
1.56658
1.99148
1.97705
1.91799
1.86869
1.82084
1.86756
2.24359
2.26281
2.19264
2.11859
2.04817
1.98132
1.91921
1.86068
1.80471
1.75384
1.71058
1.67329
1.63813
1.6019
1.56306
1.52338
1.48679
1.45466
1.42598
1.39957
1.37406
1.34824
1.32692
1.31399
1.38637
1.57234
1.65883
1.65549
1.64288
1.62468
1.60851
1.59407
1.58079
1.55796
1.8607
1.9846
1.93477
1.86887
1.83527
2.02517
2.30606
2.26068
2.18712
2.11201
2.04403
1.98158
1.92216
1.86348
1.80651
1.75536
1.71201
1.67411
1.63866
1.60265
1.5646
1.5258
1.48879
1.45534
1.42453
1.39555
1.36788
1.33975
1.31327
1.29374
1.29443
1.4167
1.58407
1.62564
1.62227
1.61068
1.59548
1.58245
1.57125
1.54923
1.66353
1.98377
1.95826
1.88073
1.86811
2.20684
2.33254
2.2564
2.18345
2.11166
2.04647
1.98584
1.92664
1.86704
1.81003
1.75933
1.71497
1.67477
1.63735
1.60107
1.5638
1.52564
1.48829
1.453
1.41961
1.38878
1.36017
1.33316
1.30476
1.2807
1.26269
1.2864
1.44633
1.58637
1.60472
1.59501
1.58213
1.56926
1.55787
1.53739
1.29979
1.92001
1.96645
1.90166
1.98202
2.33532
2.34628
2.25865
2.18392
2.11511
2.05214
1.99122
1.92987
1.86983
1.81481
1.76552
1.71988
1.6763
1.63463
1.59556
1.5592
1.52347
1.48693
1.45017
1.41472
1.38165
1.35045
1.32377
1.29794
1.27129
1.24989
1.23631
1.29361
1.47659
1.56689
1.57706
1.56716
1.55369
1.54336
1.5253
1.07262
1.78778
1.95762
1.9124
2.17407
2.41562
2.35368
2.26531
2.18992
2.12258
2.05784
1.99401
1.93006
1.86989
1.81708
1.76962
1.7235
1.67723
1.63159
1.58922
1.55166
1.51722
1.48231
1.44526
1.40792
1.37351
1.34209
1.31383
1.2883
1.26342
1.2379
1.22096
1.21897
1.32228
1.48352
1.53679
1.54589
1.53924
1.52983
1.51185
1.00397
1.66533
1.9057
1.92599
2.37285
2.4494
2.36026
2.27207
2.19556
2.12706
2.0594
1.99129
1.92547
1.86673
1.81631
1.77014
1.72428
1.67675
1.62848
1.58343
1.54442
1.50983
1.47571
1.43939
1.40155
1.36534
1.33328
1.30532
1.27987
1.25662
1.23137
1.20917
1.19515
1.21275
1.35298
1.48771
1.51355
1.51216
1.50545
1.49493
0.999887
1.4642
1.80978
2.05031
2.47581
2.44897
2.35707
2.27232
2.19606
2.12424
2.05292
1.98185
1.91637
1.8605
1.81241
1.76712
1.72143
1.67367
1.62499
1.57917
1.53901
1.50347
1.46935
1.43408
1.39728
1.36083
1.32769
1.29872
1.2732
1.2508
1.22722
1.20309
1.1861
1.17645
1.21924
1.37337
1.47418
1.4921
1.48782
1.47721
0.999943
1.21516
1.66819
2.15999
2.52338
2.44098
2.34971
2.26564
2.1884
2.11388
2.04064
1.97012
1.9071
1.85301
1.80509
1.75997
1.71396
1.66718
1.62065
1.57678
1.53677
1.50009
1.46477
1.42895
1.39247
1.35678
1.32381
1.29447
1.26863
1.245
1.22616
1.20497
1.18133
1.16578
1.16422
1.23412
1.3858
1.45302
1.46942
1.46042
0.999971
1.05876
1.49557
2.27814
2.53718
2.42914
2.33333
2.24992
2.17219
2.0979
2.02718
1.96124
1.90152
1.84745
1.79718
1.75144
1.70518
1.65985
1.61627
1.57549
1.53625
1.49878
1.46238
1.42585
1.38922
1.3535
1.32047
1.29117
1.26554
1.24215
1.22143
1.20114
1.18018
1.16139
1.14836
1.15448
1.25447
1.38979
1.43133
1.44186
0.999987
1.00563
1.38983
2.45204
2.5652
2.42378
2.31364
2.22994
2.15348
2.08188
2.01539
1.95487
1.89802
1.84421
1.79269
1.74318
1.70098
1.65615
1.61219
1.57356
1.53636
1.49907
1.46157
1.42414
1.38746
1.35247
1.32007
1.29057
1.26444
1.24098
1.21961
1.20055
1.18131
1.16252
1.14444
1.13298
1.14884
1.274
1.37189
1.43703
0.999995
1.00013
1.47625
2.55566
2.56265
2.40922
2.29703
2.21518
2.141
2.07224
2.00918
1.95153
1.90036
1.8518
1.79899
1.7453
1.69282
1.6493
1.61848
1.58461
1.54781
1.50874
1.46928
1.43132
1.39536
1.36103
1.32815
1.29732
1.27018
1.24671
1.22594
1.20734
1.18942
1.17075
1.15114
1.13302
1.1185
1.15468
1.28615
1.47833
0.999998
0.999998
1.51744
2.62695
2.58791
2.40092
2.28932
2.20761
2.13439
2.06813
2.00926
1.95637
1.90356
1.84663
1.7905
1.73572
1.68631
1.64857
1.61267
1.57783
1.54083
1.50088
1.46021
1.42191
1.38653
1.35287
1.32013
1.28901
1.26182
1.23852
1.21834
1.20017
1.18273
1.16382
1.14509
1.12373
1.10347
1.09986
1.19855
1.53033
)
;

boundaryField
{
    inlet
    {
        type            fixedValue;
        value           uniform 1;
    }
    outlet
    {
        type            inletOutlet;
        inletValue      uniform 1;
        value           nonuniform List<scalar> 
40
(
1.99889
1.99372
1.9766
1.94499
1.90545
1.86656
1.83411
1.81255
1.79843
1.78792
1.78021
1.77249
1.76381
1.75357
1.7407
1.72561
1.70881
1.69029
1.67078
1.65258
1.63717
1.62456
1.61446
1.60558
1.59668
1.58544
1.57639
1.56631
1.55774
1.54907
1.53735
1.52526
1.51175
1.49535
1.47694
1.45997
1.44149
1.43538
1.47612
1.52796
)
;
    }
    top
    {
        type            symmetryPlane;
    }
    bottom
    {
        type            symmetryPlane;
    }
    step
    {
        type            zeroGradient;
    }
    defaultFaces
    {
        type            empty;
    }
}


// ************************************************************************* //
