/*--------------------------------*- C++ -*----------------------------------*\
  =========                 |
  \\      /  F ield         | OpenFOAM: The Open Source CFD Toolbox
   \\    /   O peration     | Website:  https://openfoam.org
    \\  /    A nd           | Version:  6.0
     \\/     M anipulation  |
\*---------------------------------------------------------------------------*/
FoamFile
{
    version     2.0;
    format      ascii;
    class       volVectorField;
    location    "2.50067029";
    object      U;
}
// * * * * * * * * * * * * * * * * * * * * * * * * * * * * * * * * * * * * * //

dimensions      [0 1 -1 0 0 0 0];

internalField   nonuniform List<vector> 
4800
(
(3 1.42191e-16 0)
(3 1.21249e-16 0)
(3 -4.193e-16 0)
(3 -5.01806e-17 0)
(3 1.26941e-16 0)
(3 3.42632e-16 0)
(3 7.36535e-16 0)
(3 4.73972e-16 0)
(3 -3.55369e-17 0)
(3 -4.17426e-16 0)
(3 -4.30338e-16 0)
(3 -6.89958e-16 0)
(3 -1.66147e-16 0)
(3 -2.05047e-16 0)
(3 -3.18961e-16 0)
(3 4.22768e-16 0)
(3 1.8638e-16 0)
(3 4.80558e-16 0)
(3 -2.10598e-16 0)
(3 -4.02904e-16 0)
(2.84876 0.00181856 0)
(0.961663 0.00591683 0)
(0.721356 0.00460858 0)
(0.687272 0.0038719 0)
(0.642775 0.00406405 0)
(0.589563 0.0156999 0)
(0.543398 0.0338644 0)
(0.521977 0.0335782 0)
(0.510332 -0.0145075 0)
(0.486236 -0.0618315 0)
(0.425663 -0.100242 0)
(0.343306 -0.0905892 0)
(0.294075 -0.0391171 0)
(0.259475 0.00112291 0)
(0.219378 0.0128344 0)
(0.183395 0.00594765 0)
(0.147482 -0.0151075 0)
(0.128119 -0.0400224 0)
(0.0961066 -0.0794565 0)
(0.0269227 -0.106844 0)
(3 1.6724e-16 0)
(3 1.71988e-16 0)
(3 -2.8461e-16 0)
(3 2.25322e-16 0)
(3 4.12508e-16 0)
(3 -2.37452e-17 0)
(3 1.85737e-16 0)
(3 4.95296e-16 0)
(3 -4.2438e-16 0)
(3 -5.29598e-16 0)
(3 -4.57624e-16 0)
(3 -5.4975e-16 0)
(3 5.1641e-17 0)
(3 -4.56593e-16 0)
(3 -3.90913e-16 0)
(3 1.08893e-15 0)
(3 8.24846e-16 0)
(3 -1.06621e-16 0)
(3 4.10774e-16 0)
(3 5.16678e-16 0)
(2.85233 0.00688504 0)
(0.964348 0.019406 0)
(0.718398 0.0183763 0)
(0.684361 0.00332588 0)
(0.642073 -0.008253 0)
(0.602405 0.00895925 0)
(0.561144 0.0673416 0)
(0.528912 0.107022 0)
(0.493814 0.0880518 0)
(0.442126 -0.038197 0)
(0.38969 -0.17902 0)
(0.342735 -0.226496 0)
(0.305832 -0.171246 0)
(0.272075 -0.102436 0)
(0.234285 -0.0581477 0)
(0.195283 0.00122887 0)
(0.139078 0.0194696 0)
(0.0873887 -0.0512662 0)
(0.0550857 -0.21555 0)
(0.0244668 -0.309544 0)
(3 -2.03212e-17 0)
(3 1.87742e-16 0)
(3 8.27657e-16 0)
(3 9.55103e-16 0)
(3 1.32819e-15 0)
(3 3.06055e-16 0)
(3 -5.25124e-16 0)
(3 1.58985e-16 0)
(3 -8.14204e-16 0)
(3 -3.56741e-16 0)
(3 -2.39194e-16 0)
(3 -4.70775e-16 0)
(3 -1.87438e-16 0)
(3 7.52411e-16 0)
(3 -3.35644e-16 0)
(3 -2.6179e-16 0)
(3 -3.78772e-16 0)
(3 -5.74796e-16 0)
(3 2.94338e-16 0)
(3 8.60539e-16 0)
(2.85594 0.0080745 0)
(0.970575 0.0295005 0)
(0.712406 0.0335593 0)
(0.67777 0.0104143 0)
(0.640657 0.00153966 0)
(0.613238 0.0211669 0)
(0.578152 0.0600426 0)
(0.52965 0.0902316 0)
(0.464113 0.0679242 0)
(0.403096 -0.0163174 0)
(0.371768 -0.0810724 0)
(0.362856 -0.0778423 0)
(0.335425 -0.0431844 0)
(0.290678 0.0189075 0)
(0.243604 0.0287454 0)
(0.204947 0.00876165 0)
(0.134117 0.00795002 0)
(0.0605317 -0.032862 0)
(0.0130138 -0.0844528 0)
(0.0250404 -0.11288 0)
(3 -9.48488e-17 0)
(3 3.30791e-16 0)
(3 6.77353e-16 0)
(3 3.59347e-16 0)
(3 8.60997e-16 0)
(3 9.04607e-16 0)
(3 -2.44478e-16 0)
(3 -1.31698e-16 0)
(3 -4.02971e-16 0)
(3 -4.01411e-16 0)
(3 -6.76155e-16 0)
(3 -4.30063e-16 0)
(3 2.20567e-16 0)
(3 6.23395e-16 0)
(3 2.6786e-16 0)
(3 -9.78658e-16 0)
(3 -1.07912e-15 0)
(3 -1.0803e-15 0)
(3 -7.32933e-16 0)
(3 7.15998e-16 0)
(2.85827 0.0099162 0)
(0.977282 0.0376141 0)
(0.705922 0.0399797 0)
(0.674567 0.0330745 0)
(0.645828 0.0326278 0)
(0.618053 0.0392467 0)
(0.586227 0.0386395 0)
(0.532223 0.0428465 0)
(0.45295 0.041474 0)
(0.389027 0.0467838 0)
(0.365729 0.0639956 0)
(0.364064 0.10294 0)
(0.344148 0.118827 0)
(0.295985 0.123083 0)
(0.239522 0.124675 0)
(0.188765 0.0674541 0)
(0.134438 0.00940509 0)
(0.0590595 0.0370027 0)
(0.0148696 0.102621 0)
(0.0266634 0.13259 0)
(3 5.62393e-17 0)
(3 7.35151e-16 0)
(3 3.49454e-16 0)
(3 -6.59105e-17 0)
(3 -2.68976e-16 0)
(3 -1.16767e-16 0)
(3 5.07884e-16 0)
(3 3.03822e-16 0)
(3 -2.55744e-16 0)
(3 -9.84192e-16 0)
(3 -5.66585e-16 0)
(3 2.56933e-16 0)
(3 7.30534e-16 0)
(3 1.09424e-15 0)
(3 6.76239e-16 0)
(3 -1.28611e-15 0)
(3 -1.03252e-15 0)
(3 -8.25974e-16 0)
(3 -2.4757e-16 0)
(3 4.51919e-16 0)
(2.8653 0.0148483 0)
(0.982978 0.0435723 0)
(0.706092 0.0416528 0)
(0.672184 0.0597174 0)
(0.640257 0.0681152 0)
(0.614935 0.0495817 0)
(0.579774 0.0239132 0)
(0.528907 -0.0163884 0)
(0.466294 -0.00311162 0)
(0.418253 0.0860259 0)
(0.408617 0.192261 0)
(0.387537 0.243058 0)
(0.345979 0.264434 0)
(0.286717 0.21724 0)
(0.218727 0.144303 0)
(0.166298 0.0737424 0)
(0.125957 0.0584967 0)
(0.0956619 0.117832 0)
(0.0694926 0.260417 0)
(0.0338202 0.36725 0)
(3 4.62108e-16 0)
(3 4.56287e-16 0)
(3 -1.77183e-16 0)
(3 -8.12016e-17 0)
(3 -6.22588e-16 0)
(3 -5.77503e-16 0)
(3 8.70028e-16 0)
(3 5.8801e-16 0)
(3 4.82396e-16 0)
(3 -4.9389e-17 0)
(3 6.21934e-16 0)
(3 4.22503e-16 0)
(3 4.54196e-16 0)
(3 8.92639e-16 0)
(3 4.67136e-16 0)
(3 -6.86568e-16 0)
(3 -6.02902e-16 0)
(3 -3.90528e-16 0)
(3 3.09873e-16 0)
(3 6.79925e-16 0)
(2.87391 0.0194705 0)
(0.98393 0.0528517 0)
(0.711761 0.0412017 0)
(0.678387 0.0728459 0)
(0.641699 0.0900769 0)
(0.605869 0.082388 0)
(0.562589 0.0345815 0)
(0.521056 -0.0163708 0)
(0.492702 -0.00543441 0)
(0.46739 0.11198 0)
(0.435922 0.254074 0)
(0.389027 0.307926 0)
(0.341497 0.241855 0)
(0.265053 0.110468 0)
(0.202969 0.0663021 0)
(0.155233 0.075295 0)
(0.144264 0.0988245 0)
(0.132964 0.170434 0)
(0.12062 0.269222 0)
(0.0450908 0.316335 0)
(3 -5.73461e-17 0)
(3 -2.5666e-16 0)
(3 -3.99604e-16 0)
(3 -4.92604e-16 0)
(3 -1.32519e-16 0)
(3 2.75058e-18 0)
(3 -4.36033e-17 0)
(3 2.46287e-18 0)
(3 5.89026e-16 0)
(3 9.93312e-16 0)
(3 5.41021e-16 0)
(3 1.03021e-16 0)
(3 1.29916e-16 0)
(3 -3.64665e-16 0)
(3 -4.59185e-17 0)
(3 7.26238e-17 0)
(3 -1.0044e-16 0)
(3 -2.15448e-16 0)
(3 6.98973e-16 0)
(3 1.31922e-15 0)
(2.88299 0.0223665 0)
(0.982253 0.0676842 0)
(0.715108 0.0584228 0)
(0.684135 0.077886 0)
(0.645357 0.0886648 0)
(0.599931 0.0899553 0)
(0.548668 0.0606863 0)
(0.514444 0.0495186 0)
(0.506834 0.0814622 0)
(0.494222 0.125331 0)
(0.464648 0.151628 0)
(0.384971 0.123906 0)
(0.282335 0.0314254 0)
(0.236556 -0.00351866 0)
(0.202506 -0.0161306 0)
(0.186469 0.0456047 0)
(0.162826 0.126801 0)
(0.149121 0.153053 0)
(0.11413 0.0807274 0)
(0.0309255 -0.0352164 0)
(3 4.68112e-17 0)
(3 -1.83494e-16 0)
(3 4.47063e-17 0)
(3 1.38532e-16 0)
(3 3.76011e-16 0)
(3 5.11315e-16 0)
(3 -1.56178e-16 0)
(3 -3.37752e-16 0)
(3 -6.026e-17 0)
(3 1.92837e-17 0)
(3 2.87177e-16 0)
(3 -4.31094e-17 0)
(3 -8.41221e-16 0)
(3 -1.03169e-15 0)
(3 -1.16551e-15 0)
(3 -1.10326e-15 0)
(3 -7.35191e-17 0)
(3 9.43548e-16 0)
(3 1.28782e-15 0)
(3 1.09588e-15 0)
(2.88883 0.0263588 0)
(0.982773 0.0846292 0)
(0.716145 0.0787759 0)
(0.686578 0.0788553 0)
(0.64798 0.0787598 0)
(0.60023 0.0780024 0)
(0.549805 0.0935023 0)
(0.527655 0.126735 0)
(0.517591 0.142799 0)
(0.497686 0.116704 0)
(0.44525 0.0266579 0)
(0.349663 -0.0852005 0)
(0.282589 -0.106173 0)
(0.246337 -0.0766618 0)
(0.235148 -0.00180865 0)
(0.223037 0.114267 0)
(0.172774 0.144703 0)
(0.138268 0.0945418 0)
(0.0494484 -0.0797927 0)
(0.0252413 -0.23166 0)
(3 3.78836e-17 0)
(3 4.68584e-17 0)
(3 5.11274e-16 0)
(3 5.28415e-16 0)
(3 4.3418e-16 0)
(3 7.99732e-16 0)
(3 6.25627e-16 0)
(3 4.07517e-16 0)
(3 -1.56583e-16 0)
(3 1.29535e-16 0)
(3 6.60056e-16 0)
(3 5.01935e-16 0)
(3 -6.0999e-16 0)
(3 -1.1285e-15 0)
(3 -1.24171e-15 0)
(3 -7.89114e-16 0)
(3 3.57508e-16 0)
(3 6.62103e-16 0)
(3 2.07076e-15 0)
(3 9.2709e-16 0)
(2.89927 0.0322969 0)
(0.992504 0.101015 0)
(0.718187 0.0927005 0)
(0.687496 0.0815576 0)
(0.647167 0.0690247 0)
(0.603775 0.0650876 0)
(0.56642 0.107655 0)
(0.541039 0.163837 0)
(0.514971 0.180147 0)
(0.466455 0.112155 0)
(0.39813 -0.0172585 0)
(0.341853 -0.0821708 0)
(0.305687 -0.0543492 0)
(0.272729 0.0335746 0)
(0.262962 0.134614 0)
(0.234057 0.1553 0)
(0.171851 0.167478 0)
(0.0771492 0.0451892 0)
(0.00841967 -0.0840628 0)
(0.0212321 -0.115581 0)
(3 -1.55323e-16 0)
(3 3.23559e-17 0)
(3 -8.48693e-17 0)
(3 -1.25749e-16 0)
(3 -2.19558e-16 0)
(3 4.9937e-16 0)
(3 6.86917e-16 0)
(3 6.02014e-16 0)
(3 4.59647e-17 0)
(3 2.72524e-16 0)
(3 -1.3573e-16 0)
(3 3.41339e-16 0)
(3 -6.58757e-16 0)
(3 -1.37584e-15 0)
(3 -8.1185e-16 0)
(3 4.8709e-16 0)
(3 4.81929e-16 0)
(3 -2.72809e-16 0)
(3 4.69381e-16 0)
(3 5.12319e-16 0)
(2.92366 0.0386727 0)
(1.01351 0.112592 0)
(0.725818 0.101252 0)
(0.690745 0.0929194 0)
(0.648334 0.0757153 0)
(0.614615 0.0771051 0)
(0.588588 0.110395 0)
(0.554287 0.141824 0)
(0.508278 0.140578 0)
(0.429991 0.07875 0)
(0.370088 0.0122986 0)
(0.32927 0.0202746 0)
(0.318511 0.0749172 0)
(0.316051 0.196196 0)
(0.278394 0.251198 0)
(0.235754 0.250771 0)
(0.14217 0.142571 0)
(0.0466137 0.0608535 0)
(-0.00112498 0.0495161 0)
(0.0242779 0.088579 0)
(3 -9.55371e-17 0)
(3 6.49244e-17 0)
(3 -6.6473e-16 0)
(3 -5.51237e-16 0)
(3 -6.18083e-16 0)
(3 -3.92902e-17 0)
(3 2.28475e-16 0)
(3 3.06999e-16 0)
(3 2.73402e-16 0)
(3 -3.11031e-16 0)
(3 -1.0124e-16 0)
(3 -3.55972e-18 0)
(3 -3.74871e-16 0)
(3 -9.95806e-16 0)
(3 -4.1047e-16 0)
(3 4.8683e-16 0)
(3 3.12114e-17 0)
(3 -6.09922e-16 0)
(3 -3.35796e-16 0)
(3 -6.08475e-17 0)
(2.95115 0.035019 0)
(1.03516 0.117892 0)
(0.735699 0.103138 0)
(0.695339 0.100437 0)
(0.652143 0.103059 0)
(0.626446 0.119331 0)
(0.598407 0.128851 0)
(0.558945 0.118732 0)
(0.503073 0.0944167 0)
(0.422568 0.077404 0)
(0.364608 0.101574 0)
(0.347459 0.154841 0)
(0.357764 0.232009 0)
(0.337964 0.295282 0)
(0.287566 0.322548 0)
(0.198873 0.215418 0)
(0.116356 0.0965978 0)
(0.0529506 0.13573 0)
(0.0299039 0.247482 0)
(0.0366407 0.315651 0)
(3 6.95126e-17 0)
(3 -3.37188e-17 0)
(3 -2.10875e-16 0)
(3 -2.98313e-16 0)
(3 1.60151e-16 0)
(3 -2.33783e-16 0)
(3 -2.91435e-16 0)
(3 -5.2314e-16 0)
(3 -4.70175e-16 0)
(3 3.30571e-16 0)
(3 4.94015e-16 0)
(3 -9.87958e-17 0)
(3 -3.49517e-16 0)
(3 7.85918e-16 0)
(3 -2.11485e-16 0)
(3 -1.56879e-16 0)
(3 -1.01593e-16 0)
(3 -2.48285e-16 0)
(3 1.29104e-17 0)
(3 7.59299e-16 0)
(2.96978 0.0234981 0)
(1.04792 0.123226 0)
(0.740175 0.101028 0)
(0.702381 0.11024 0)
(0.664618 0.130078 0)
(0.634075 0.154638 0)
(0.597576 0.152849 0)
(0.551447 0.126321 0)
(0.489238 0.0689664 0)
(0.442602 0.0508049 0)
(0.409135 0.134611 0)
(0.395711 0.261812 0)
(0.367438 0.34576 0)
(0.340208 0.324482 0)
(0.260676 0.189451 0)
(0.164158 0.0949413 0)
(0.112006 0.11433 0)
(0.10838 0.222134 0)
(0.0827442 0.359605 0)
(0.0439169 0.402887 0)
(3 2.4704e-16 0)
(3 -3.4116e-16 0)
(3 1.01301e-16 0)
(3 -2.58929e-16 0)
(3 2.97314e-16 0)
(3 -1.73561e-16 0)
(3 -1.23761e-15 0)
(3 -1.85391e-15 0)
(3 -1.39332e-15 0)
(3 5.37987e-16 0)
(3 8.55589e-16 0)
(3 -1.39861e-16 0)
(3 -2.43519e-16 0)
(3 2.03104e-16 0)
(3 3.02927e-16 0)
(3 4.48707e-16 0)
(3 1.06335e-16 0)
(3 1.61971e-17 0)
(3 6.27436e-16 0)
(3 9.94544e-16 0)
(2.96995 0.0192213 0)
(1.05431 0.127085 0)
(0.738878 0.104833 0)
(0.712825 0.110834 0)
(0.680178 0.1384 0)
(0.645136 0.165983 0)
(0.598 0.176705 0)
(0.541769 0.146505 0)
(0.47496 0.115448 0)
(0.451916 0.140517 0)
(0.455344 0.233039 0)
(0.424819 0.303123 0)
(0.380069 0.306127 0)
(0.30213 0.206833 0)
(0.210114 0.0374666 0)
(0.171004 0.0178509 0)
(0.163545 0.120334 0)
(0.149318 0.266491 0)
(0.105524 0.311952 0)
(0.0500754 0.321116 0)
(3 -6.49247e-17 0)
(3 9.68051e-17 0)
(3 -8.47042e-18 0)
(3 -6.91779e-17 0)
(3 -4.6192e-16 0)
(3 -5.72615e-16 0)
(3 -7.82553e-16 0)
(3 -1.16579e-15 0)
(3 -1.38817e-15 0)
(3 -6.10517e-16 0)
(3 3.57922e-17 0)
(3 -7.90712e-16 0)
(3 -7.86913e-16 0)
(3 -6.67529e-16 0)
(3 1.87452e-16 0)
(3 3.02642e-16 0)
(3 -6.03573e-17 0)
(3 1.52526e-16 0)
(3 6.46886e-16 0)
(3 3.58449e-16 0)
(2.96986 0.0169574 0)
(1.06356 0.138404 0)
(0.734391 0.118574 0)
(0.717039 0.136817 0)
(0.689522 0.149282 0)
(0.653431 0.159361 0)
(0.601484 0.162191 0)
(0.535529 0.162413 0)
(0.489942 0.187557 0)
(0.480721 0.242512 0)
(0.468868 0.262154 0)
(0.434691 0.259295 0)
(0.358795 0.19464 0)
(0.239299 0.0400865 0)
(0.209836 0.00470121 0)
(0.201396 0.0569757 0)
(0.208126 0.203594 0)
(0.173983 0.257413 0)
(0.0927337 0.251169 0)
(0.0382952 0.139835 0)
(3 -3.98908e-17 0)
(3 4.00408e-16 0)
(3 3.73608e-16 0)
(3 1.59498e-16 0)
(3 2.15509e-17 0)
(3 -1.06873e-16 0)
(3 -9.72316e-16 0)
(3 -6.40652e-16 0)
(3 -8.04586e-16 0)
(3 1.98321e-16 0)
(3 -3.9017e-16 0)
(3 -7.61176e-16 0)
(3 -8.09358e-16 0)
(3 -8.81196e-17 0)
(3 2.00872e-16 0)
(3 -3.70266e-16 0)
(3 4.33673e-16 0)
(3 9.77539e-16 0)
(3 1.3742e-15 0)
(3 -1.42624e-16 0)
(2.98528 0.0146217 0)
(1.08086 0.153004 0)
(0.740798 0.13287 0)
(0.71431 0.163856 0)
(0.685803 0.1669 0)
(0.655695 0.153746 0)
(0.60558 0.145119 0)
(0.553402 0.163868 0)
(0.514826 0.232563 0)
(0.497201 0.296037 0)
(0.468816 0.306555 0)
(0.407997 0.217033 0)
(0.301639 0.0472047 0)
(0.243351 0.0457989 0)
(0.218275 0.129 0)
(0.239382 0.254472 0)
(0.225134 0.276242 0)
(0.169854 0.265217 0)
(0.0618336 0.163666 0)
(0.0392677 0.142957 0)
(3 4.29658e-16 0)
(3 2.55048e-16 0)
(3 3.86626e-16 0)
(3 6.08699e-16 0)
(3 6.02755e-16 0)
(3 1.04768e-16 0)
(3 -3.45304e-16 0)
(3 -7.58133e-16 0)
(3 1.38366e-16 0)
(3 1.43677e-15 0)
(3 4.40391e-16 0)
(3 6.34458e-16 0)
(3 -3.3444e-16 0)
(3 9.08178e-19 0)
(3 4.47721e-16 0)
(3 5.7143e-16 0)
(3 9.8458e-16 0)
(3 1.67709e-15 0)
(3 7.14914e-16 0)
(3 -4.46064e-16 0)
(3.00107 0.00383615 0)
(1.10129 0.1654 0)
(0.749335 0.147758 0)
(0.71867 0.176466 0)
(0.685184 0.190129 0)
(0.648278 0.18475 0)
(0.602593 0.143026 0)
(0.571143 0.15054 0)
(0.547395 0.21672 0)
(0.514675 0.264333 0)
(0.459897 0.230961 0)
(0.358941 0.0788086 0)
(0.296569 0.0519652 0)
(0.267328 0.141732 0)
(0.285241 0.307912 0)
(0.252401 0.369894 0)
(0.220055 0.347788 0)
(0.139625 0.225838 0)
(0.054374 0.16859 0)
(0.041883 0.183785 0)
(3 1.37142e-17 0)
(3 -2.40275e-16 0)
(3 1.93252e-16 0)
(3 7.52007e-16 0)
(3 -2.67355e-16 0)
(3 -8.60124e-16 0)
(3 -5.06643e-16 0)
(3 -3.66263e-16 0)
(3 4.86366e-16 0)
(3 7.68947e-17 0)
(3 4.49305e-16 0)
(3 -2.21811e-16 0)
(3 2.47949e-16 0)
(3 1.75732e-16 0)
(3 6.08614e-16 0)
(3 8.84992e-16 0)
(3 1.22561e-15 0)
(3 1.4632e-15 0)
(3 8.9056e-16 0)
(3 1.36188e-16 0)
(3.00037 0.000116426 0)
(1.12799 0.171413 0)
(0.752828 0.154293 0)
(0.722325 0.175972 0)
(0.686554 0.182296 0)
(0.640127 0.17191 0)
(0.593295 0.178085 0)
(0.581872 0.200576 0)
(0.563598 0.211125 0)
(0.522449 0.192069 0)
(0.426306 0.11301 0)
(0.342317 0.090578 0)
(0.31283 0.133638 0)
(0.328425 0.240197 0)
(0.322963 0.392571 0)
(0.250126 0.430483 0)
(0.181966 0.341078 0)
(0.110341 0.168101 0)
(0.0693459 0.167561 0)
(0.0522651 0.2021 0)
(3 -3.45795e-16 0)
(3 -6.17156e-16 0)
(3 -1.86233e-16 0)
(3 7.03134e-17 0)
(3 -5.72925e-16 0)
(3 -1.24756e-15 0)
(3 -1.53695e-16 0)
(3 5.29501e-16 0)
(3 3.14371e-16 0)
(3 -1.4468e-15 0)
(3 -6.47041e-16 0)
(3 -8.49499e-16 0)
(3 4.56854e-16 0)
(3 7.08293e-16 0)
(3 9.48944e-16 0)
(3 5.18846e-16 0)
(3 9.86347e-16 0)
(3 1.6947e-15 0)
(3 2.2978e-15 0)
(3 6.06237e-16 0)
(3.00003 -7.28154e-06 0)
(1.16143 0.177095 0)
(0.754534 0.165606 0)
(0.718037 0.161989 0)
(0.677584 0.162037 0)
(0.63586 0.172163 0)
(0.608018 0.219706 0)
(0.591145 0.262174 0)
(0.560185 0.240287 0)
(0.503509 0.156469 0)
(0.418097 0.0798036 0)
(0.373639 0.0833841 0)
(0.356722 0.172795 0)
(0.377647 0.323898 0)
(0.345353 0.367097 0)
(0.255131 0.352433 0)
(0.120059 0.195579 0)
(0.0982003 0.17589 0)
(0.0795955 0.172943 0)
(0.0590604 0.17764 0)
(3 -1.51951e-16 0)
(3 -5.96124e-17 0)
(3 2.52623e-16 0)
(3 -8.23931e-18 0)
(3 -1.51369e-16 0)
(3 -1.61127e-16 0)
(3 -5.44601e-16 0)
(3 -2.34758e-16 0)
(3 -4.67299e-16 0)
(3 -8.88743e-16 0)
(3 -4.40186e-16 0)
(3 2.99647e-16 0)
(3 1.27954e-16 0)
(3 2.69765e-16 0)
(3 -1.07661e-16 0)
(3 -2.73363e-17 0)
(3 1.63547e-16 0)
(3 8.22301e-16 0)
(3 1.65416e-15 0)
(3 6.69125e-17 0)
(3.00001 -3.79603e-06 0)
(1.20262 0.187837 0)
(0.749087 0.169246 0)
(0.709319 0.150055 0)
(0.67482 0.148372 0)
(0.650351 0.189113 0)
(0.629152 0.256586 0)
(0.591464 0.281154 0)
(0.547988 0.260001 0)
(0.475164 0.162313 0)
(0.416806 0.109979 0)
(0.400942 0.174952 0)
(0.398445 0.318876 0)
(0.389901 0.342855 0)
(0.338949 0.28832 0)
(0.208152 0.127743 0)
(0.11966 0.150344 0)
(0.110719 0.189837 0)
(0.0760364 0.218045 0)
(0.0567337 0.22221 0)
(3 -2.45797e-17 0)
(3 8.35735e-17 0)
(3 -1.09409e-16 0)
(3 8.11998e-17 0)
(3 1.1957e-16 0)
(3 3.09854e-16 0)
(3 -8.25361e-16 0)
(3 -6.03366e-16 0)
(3 -8.98696e-16 0)
(3 5.17709e-16 0)
(3 4.49157e-16 0)
(3 8.99859e-16 0)
(3 6.19734e-16 0)
(3 4.91973e-16 0)
(3 -3.96991e-16 0)
(3 -9.6197e-16 0)
(3 -1.0351e-15 0)
(3 -4.38579e-17 0)
(3 1.38279e-16 0)
(3 -5.31776e-18 0)
(3 -1.48063e-07 0)
(1.2475 0.194871 0)
(0.74405 0.160117 0)
(0.705151 0.166748 0)
(0.678484 0.18624 0)
(0.661526 0.229176 0)
(0.63563 0.250503 0)
(0.599394 0.263342 0)
(0.532905 0.231748 0)
(0.461939 0.208292 0)
(0.431795 0.250058 0)
(0.449034 0.369252 0)
(0.413932 0.386513 0)
(0.382138 0.352186 0)
(0.278634 0.15766 0)
(0.214473 0.0720592 0)
(0.153871 0.146495 0)
(0.134449 0.250568 0)
(0.101394 0.304585 0)
(0.0592343 0.270888 0)
(3 -1.95314e-17 0)
(3 1.80682e-16 0)
(3 -7.42084e-16 0)
(3 -1.93034e-16 0)
(3 4.63723e-16 0)
(3 4.51487e-16 0)
(3 3.2001e-16 0)
(3 -7.89057e-17 0)
(3 4.99242e-16 0)
(3 1.13774e-15 0)
(3 3.36123e-16 0)
(3 1.19262e-16 0)
(3 9.67167e-16 0)
(3 1.6016e-15 0)
(3 8.3201e-16 0)
(3 7.44097e-16 0)
(3 5.87005e-17 0)
(3 2.90798e-17 0)
(3 1.58864e-16 0)
(3 3.48338e-16 0)
(3 -4.8208e-07 0)
(1.2938 0.205868 0)
(0.746031 0.165024 0)
(0.707529 0.195203 0)
(0.677166 0.237934 0)
(0.654362 0.252289 0)
(0.632875 0.243885 0)
(0.593828 0.228936 0)
(0.527716 0.21654 0)
(0.480228 0.245907 0)
(0.486768 0.389219 0)
(0.464108 0.45332 0)
(0.407461 0.452128 0)
(0.331289 0.320811 0)
(0.237335 0.140675 0)
(0.205059 0.144939 0)
(0.199882 0.227817 0)
(0.17108 0.403925 0)
(0.082168 0.366271 0)
(0.0522217 0.271516 0)
(3 -1.32826e-16 0)
(3 2.05331e-16 0)
(3 3.49287e-16 0)
(3 1.08807e-16 0)
(3 6.13688e-17 0)
(3 3.59461e-16 0)
(3 2.81206e-16 0)
(3 8.4818e-16 0)
(3 1.34763e-15 0)
(3 1.72956e-15 0)
(3 2.18579e-16 0)
(3 -1.8702e-16 0)
(3 1.26506e-15 0)
(3 1.32369e-15 0)
(3 1.16029e-15 0)
(3 1.86979e-15 0)
(3 1.55179e-15 0)
(3 1.57514e-16 0)
(3 3.75415e-16 0)
(3 1.19265e-15 0)
(3 -5.76678e-07 0)
(1.34357 0.225539 0)
(0.759155 0.185471 0)
(0.716082 0.228453 0)
(0.683268 0.253007 0)
(0.652924 0.270394 0)
(0.618252 0.272524 0)
(0.576115 0.222747 0)
(0.537644 0.204617 0)
(0.526993 0.31728 0)
(0.52504 0.403773 0)
(0.48443 0.455124 0)
(0.402232 0.411752 0)
(0.258381 0.231385 0)
(0.235852 0.198027 0)
(0.238847 0.259811 0)
(0.25892 0.408884 0)
(0.191283 0.46954 0)
(0.0650978 0.465994 0)
(0.053395 0.473584 0)
(3 -2.02785e-16 0)
(3 -8.03357e-16 0)
(3 1.66938e-16 0)
(3 4.8534e-16 0)
(3 5.62725e-16 0)
(3 4.85959e-17 0)
(3 6.68325e-16 0)
(3 1.29153e-15 0)
(3 1.39217e-15 0)
(3 1.02897e-15 0)
(3 7.3414e-16 0)
(3 3.01121e-16 0)
(3 9.45698e-16 0)
(3 2.24314e-16 0)
(3 5.27411e-16 0)
(3 4.4621e-16 0)
(3 5.15276e-16 0)
(3 -7.02499e-16 0)
(3 -8.63315e-16 0)
(3 -2.93936e-16 0)
(3 -4.23038e-07 0)
(1.40219 0.243276 0)
(0.774271 0.214118 0)
(0.720633 0.234467 0)
(0.686502 0.249229 0)
(0.653618 0.255605 0)
(0.605225 0.234206 0)
(0.563569 0.235319 0)
(0.545697 0.27065 0)
(0.55908 0.338077 0)
(0.546459 0.37782 0)
(0.484948 0.335971 0)
(0.352047 0.186778 0)
(0.259382 0.224526 0)
(0.272596 0.333648 0)
(0.277512 0.489066 0)
(0.268229 0.508885 0)
(0.199192 0.498745 0)
(0.0807663 0.519064 0)
(0.0585827 0.537649 0)
(3 2.50742e-16 0)
(3 -4.74272e-17 0)
(3 7.03155e-16 0)
(3 1.24769e-15 0)
(3 7.02162e-16 0)
(3 2.68079e-16 0)
(3 1.15438e-15 0)
(3 1.17761e-15 0)
(3 9.12319e-16 0)
(3 3.83582e-16 0)
(3 4.5768e-16 0)
(3 2.53766e-16 0)
(3 2.2334e-16 0)
(3 1.8961e-16 0)
(3 6.85815e-16 0)
(3 8.2533e-17 0)
(3 -2.78189e-16 0)
(3 -1.17749e-15 0)
(3 -1.73162e-15 0)
(3 -1.11513e-15 0)
(3 -1.09488e-07 0)
(1.4717 0.259866 0)
(0.781243 0.243315 0)
(0.720584 0.239803 0)
(0.683234 0.22848 0)
(0.637393 0.21378 0)
(0.597133 0.220231 0)
(0.572283 0.251978 0)
(0.572359 0.348909 0)
(0.56505 0.371768 0)
(0.536161 0.333208 0)
(0.428789 0.151686 0)
(0.363298 0.14468 0)
(0.317824 0.236056 0)
(0.343479 0.48005 0)
(0.296327 0.536171 0)
(0.264176 0.507527 0)
(0.187418 0.421331 0)
(0.121454 0.443638 0)
(0.0675558 0.553201 0)
(3 -1.1399e-16 0)
(3 6.41502e-16 0)
(3 8.05259e-16 0)
(3 4.58399e-16 0)
(3 2.49111e-16 0)
(3 9.70825e-16 0)
(3 1.07411e-15 0)
(3 3.37503e-16 0)
(3 8.27407e-17 0)
(3 2.28755e-18 0)
(3 5.67707e-16 0)
(3 1.09047e-15 0)
(3 6.20894e-16 0)
(3 3.57714e-16 0)
(3 4.88122e-16 0)
(3 1.57092e-16 0)
(3 -7.30603e-16 0)
(3 -1.09418e-15 0)
(3 -1.4312e-15 0)
(3 -8.10797e-16 0)
(3 -1.86804e-08 0)
(1.55149 0.272632 0)
(0.790653 0.25739 0)
(0.712472 0.250692 0)
(0.669854 0.209315 0)
(0.63351 0.189399 0)
(0.607697 0.21024 0)
(0.600359 0.307606 0)
(0.57967 0.3498 0)
(0.563462 0.361851 0)
(0.484922 0.248744 0)
(0.40604 0.168808 0)
(0.376359 0.173855 0)
(0.390332 0.365159 0)
(0.383243 0.502395 0)
(0.304708 0.551467 0)
(0.237734 0.480853 0)
(0.163144 0.324283 0)
(0.137709 0.298224 0)
(0.0749653 0.278351 0)
(3 5.06016e-17 0)
(3 3.99001e-16 0)
(3 -1.43968e-16 0)
(3 -4.02527e-16 0)
(3 4.32632e-16 0)
(3 4.15571e-16 0)
(3 1.52944e-17 0)
(3 -7.30164e-17 0)
(3 -1.16824e-15 0)
(3 -9.83231e-16 0)
(3 1.57507e-16 0)
(3 1.064e-15 0)
(3 1.87729e-16 0)
(3 4.09392e-17 0)
(3 -1.57604e-16 0)
(3 -4.83873e-16 0)
(3 -1.37596e-15 0)
(3 -9.86941e-16 0)
(3 -1.01368e-15 0)
(3 -8.05623e-16 0)
(3 -1.46631e-08 0)
(1.64077 0.273448 0)
(0.798145 0.255491 0)
(0.704795 0.231687 0)
(0.659519 0.217934 0)
(0.63152 0.2237 0)
(0.628494 0.28363 0)
(0.609693 0.321957 0)
(0.585298 0.32859 0)
(0.545708 0.293358 0)
(0.454276 0.242682 0)
(0.401516 0.218064 0)
(0.424568 0.324266 0)
(0.452918 0.459691 0)
(0.398687 0.544839 0)
(0.290144 0.499566 0)
(0.187104 0.339147 0)
(0.160285 0.310382 0)
(0.134018 0.287371 0)
(0.0713576 0.22847 0)
(3 4.35613e-16 0)
(3 3.23622e-16 0)
(3 -5.16181e-16 0)
(3 1.21758e-16 0)
(3 4.11141e-16 0)
(3 4.25501e-16 0)
(3 -7.58267e-16 0)
(3 -1.23126e-16 0)
(3 -2.12235e-16 0)
(3 -2.20112e-16 0)
(3 -7.81742e-17 0)
(3 5.81082e-16 0)
(3 4.0149e-16 0)
(3 1.00245e-17 0)
(3 -4.91703e-16 0)
(3 -9.88973e-16 0)
(3 -8.98904e-16 0)
(3 -3.10087e-16 0)
(3 -5.87569e-16 0)
(3 -5.74156e-16 0)
(3 -1.37743e-08 0)
(1.73978 0.269987 0)
(0.79954 0.250486 0)
(0.698894 0.232829 0)
(0.664454 0.244109 0)
(0.644149 0.296714 0)
(0.626704 0.330905 0)
(0.606999 0.337298 0)
(0.577828 0.335466 0)
(0.515863 0.265015 0)
(0.461559 0.237182 0)
(0.444074 0.379693 0)
(0.457331 0.499639 0)
(0.466562 0.488527 0)
(0.39371 0.433136 0)
(0.242681 0.277714 0)
(0.177104 0.311782 0)
(0.152964 0.330387 0)
(0.115838 0.292314 0)
(0.0716372 0.216605 0)
(3 -1.48806e-16 0)
(3 -3.91324e-16 0)
(3 -5.68688e-16 0)
(3 -5.17609e-16 0)
(3 3.35112e-16 0)
(3 8.09114e-16 0)
(3 -2.35572e-16 0)
(3 1.29991e-16 0)
(3 1.3553e-15 0)
(3 1.12149e-15 0)
(3 4.56923e-16 0)
(3 -1.8138e-16 0)
(3 8.10059e-16 0)
(3 9.09707e-16 0)
(3 1.11663e-16 0)
(3 -1.55428e-16 0)
(3 -7.68964e-17 0)
(3 1.47936e-16 0)
(3 -1.92686e-16 0)
(3 4.8236e-17 0)
(3 -9.10943e-09 0)
(1.84623 0.273643 0)
(0.795294 0.249691 0)
(0.708243 0.246542 0)
(0.681395 0.300745 0)
(0.655041 0.331514 0)
(0.629141 0.348475 0)
(0.597288 0.364497 0)
(0.554562 0.319749 0)
(0.501349 0.289414 0)
(0.481177 0.350849 0)
(0.502679 0.487542 0)
(0.466393 0.518183 0)
(0.450954 0.47918 0)
(0.334372 0.260465 0)
(0.253214 0.255062 0)
(0.193192 0.332923 0)
(0.163972 0.369885 0)
(0.0999056 0.335393 0)
(0.0658158 0.250059 0)
(3 -2.23965e-16 0)
(3 -4.7645e-16 0)
(3 -2.64772e-16 0)
(3 -1.82122e-16 0)
(3 8.24681e-16 0)
(3 8.54031e-16 0)
(3 1.01962e-15 0)
(3 1.23649e-15 0)
(3 5.90222e-16 0)
(3 5.89655e-16 0)
(3 6.26143e-16 0)
(3 -3.00147e-16 0)
(3 -3.60357e-16 0)
(3 -1.91195e-16 0)
(3 -4.65061e-16 0)
(3 -2.24343e-16 0)
(3 -3.99208e-16 0)
(3 -5.62658e-17 0)
(3 1.24027e-16 0)
(3 1.12502e-16 0)
(3 -2.3882e-09 0)
(1.94536 0.29435 0)
(0.809932 0.280497 0)
(0.723545 0.310653 0)
(0.69362 0.320872 0)
(0.661176 0.328663 0)
(0.637158 0.332697 0)
(0.593058 0.30905 0)
(0.539435 0.298201 0)
(0.508035 0.328101 0)
(0.526839 0.452886 0)
(0.515411 0.500759 0)
(0.47367 0.514154 0)
(0.394228 0.386734 0)
(0.306721 0.227999 0)
(0.281137 0.236655 0)
(0.240303 0.348855 0)
(0.17413 0.46905 0)
(0.079204 0.400419 0)
(0.0615349 0.306565 0)
(3 -1.35461e-17 0)
(3 4.01211e-16 0)
(3 8.01746e-16 0)
(3 1.00494e-15 0)
(3 6.23305e-16 0)
(3 -1.71832e-16 0)
(3 1.77123e-16 0)
(3 9.08815e-16 0)
(3 8.42391e-16 0)
(3 5.33085e-16 0)
(3 3.88939e-16 0)
(3 -5.20751e-16 0)
(3 -1.55505e-15 0)
(3 -1.61945e-15 0)
(3 -1.03928e-15 0)
(3 -5.15831e-16 0)
(3 -3.86187e-16 0)
(3 5.00878e-18 0)
(3 -2.01555e-16 0)
(3 -1.40552e-16 0)
(3 -7.01155e-10 0)
(2.04781 0.3235 0)
(0.833958 0.336625 0)
(0.726494 0.333929 0)
(0.697361 0.320304 0)
(0.663766 0.316522 0)
(0.623414 0.288958 0)
(0.57755 0.257507 0)
(0.550977 0.287155 0)
(0.542947 0.392689 0)
(0.540054 0.48469 0)
(0.51722 0.508273 0)
(0.459218 0.448275 0)
(0.331097 0.323451 0)
(0.296214 0.274004 0)
(0.295989 0.355228 0)
(0.307465 0.517561 0)
(0.214172 0.63746 0)
(0.0405138 0.626764 0)
(0.0614741 0.568118 0)
(3 -1.90979e-16 0)
(3 4.98879e-16 0)
(3 1.05473e-15 0)
(3 9.32837e-16 0)
(3 -3.88031e-16 0)
(3 -6.29877e-16 0)
(3 -3.14231e-16 0)
(3 -1.4339e-16 0)
(3 8.50743e-16 0)
(3 9.6659e-16 0)
(3 -2.35087e-16 0)
(3 -4.90792e-16 0)
(3 -5.95994e-16 0)
(3 -6.00365e-16 0)
(3 -4.06188e-16 0)
(3 -1.1104e-16 0)
(3 1.18587e-16 0)
(3 -1.83073e-16 0)
(3 -1.04819e-15 0)
(3 -4.9458e-16 0)
(3 -5.49619e-10 0)
(2.18054 0.330918 0)
(0.86173 0.376466 0)
(0.728001 0.355937 0)
(0.694922 0.336691 0)
(0.653034 0.295193 0)
(0.610854 0.250647 0)
(0.581946 0.25704 0)
(0.573133 0.293341 0)
(0.580532 0.424335 0)
(0.554639 0.466091 0)
(0.512418 0.444131 0)
(0.407625 0.309609 0)
(0.340482 0.337819 0)
(0.34267 0.481726 0)
(0.356908 0.650657 0)
(0.315941 0.668925 0)
(0.232621 0.659593 0)
(0.100179 0.770742 0)
(0.0775068 0.882664 0)
(3 1.34671e-16 0)
(3 1.81511e-17 0)
(3 7.32436e-17 0)
(3 -2.0278e-16 0)
(3 -4.42336e-16 0)
(3 -4.07581e-16 0)
(3 -2.58895e-16 0)
(3 -3.08206e-16 0)
(3 -7.85996e-17 0)
(3 1.42422e-16 0)
(3 -2.06603e-16 0)
(3 3.17936e-16 0)
(3 -4.70404e-17 0)
(3 -6.55153e-16 0)
(3 -6.70404e-16 0)
(3 -1.83465e-16 0)
(3 -7.81607e-16 0)
(3 -1.27346e-15 0)
(3 -2.06573e-15 0)
(3 -1.15406e-15 0)
(3 -4.01731e-10 0)
(2.33175 0.32386 0)
(0.897264 0.383888 0)
(0.730873 0.350329 0)
(0.693176 0.293243 0)
(0.643227 0.264823 0)
(0.607339 0.274657 0)
(0.587088 0.302341 0)
(0.601351 0.399692 0)
(0.592673 0.420038 0)
(0.556627 0.440353 0)
(0.461935 0.330385 0)
(0.409371 0.31759 0)
(0.378957 0.388675 0)
(0.424288 0.642422 0)
(0.372358 0.732985 0)
(0.312287 0.735197 0)
(0.24136 0.704829 0)
(0.154485 0.820462 0)
(0.0860854 0.927702 0)
(3 9.96339e-17 0)
(3 2.45582e-16 0)
(3 2.44609e-17 0)
(3 -4.84042e-16 0)
(3 -2.45576e-16 0)
(3 -3.15074e-16 0)
(3 -1.80383e-16 0)
(3 6.76294e-17 0)
(3 3.83127e-17 0)
(3 2.80133e-16 0)
(3 -1.4328e-16 0)
(3 1.01544e-16 0)
(3 -5.17626e-16 0)
(3 -1.04717e-15 0)
(3 -1.3672e-15 0)
(3 -4.61594e-16 0)
(3 -7.28386e-16 0)
(3 -7.57123e-16 0)
(3 -1.49998e-15 0)
(3 -9.06184e-16 0)
(3 -1.48288e-10 0)
(2.48561 0.313139 0)
(0.927493 0.38456 0)
(0.727149 0.317565 0)
(0.689551 0.271868 0)
(0.651085 0.26825 0)
(0.628875 0.309098 0)
(0.619675 0.418284 0)
(0.604163 0.444788 0)
(0.584425 0.440972 0)
(0.524027 0.351149 0)
(0.454308 0.32826 0)
(0.426037 0.349795 0)
(0.453322 0.540014 0)
(0.455622 0.650741 0)
(0.395479 0.717281 0)
(0.320347 0.721305 0)
(0.250499 0.654215 0)
(0.207018 0.719064 0)
(0.0918126 0.781883 0)
(3 -3.96846e-16 0)
(3 -1.19242e-16 0)
(3 -6.46213e-17 0)
(3 -6.58485e-17 0)
(3 -1.06121e-15 0)
(3 -2.77873e-16 0)
(3 2.19952e-16 0)
(3 1.19287e-16 0)
(3 3.33229e-16 0)
(3 1.60881e-16 0)
(3 2.85869e-16 0)
(3 1.42935e-16 0)
(3 -2.06235e-16 0)
(3 -9.34923e-16 0)
(3 -1.1256e-15 0)
(3 -1.01101e-15 0)
(3 2.92908e-17 0)
(3 -2.81741e-16 0)
(3 -7.97816e-16 0)
(3 -9.83207e-16 0)
(3 -2.75084e-11 0)
(2.66259 0.283573 0)
(0.962855 0.391973 0)
(0.732626 0.299953 0)
(0.702626 0.273425 0)
(0.675536 0.32148 0)
(0.667842 0.41596 0)
(0.63465 0.442553 0)
(0.606562 0.440143 0)
(0.568028 0.383576 0)
(0.50267 0.324521 0)
(0.468633 0.339175 0)
(0.475117 0.490769 0)
(0.486371 0.574071 0)
(0.475348 0.631196 0)
(0.395725 0.583455 0)
(0.284987 0.464433 0)
(0.246832 0.468021 0)
(0.201594 0.455311 0)
(0.0877289 0.398877 0)
(3 -4.81348e-17 0)
(3 -2.03021e-16 0)
(3 -2.11989e-16 0)
(3 -4.36606e-16 0)
(3 -3.36307e-16 0)
(3 -1.7433e-16 0)
(3 -7.61258e-17 0)
(3 2.11273e-16 0)
(3 -8.42388e-17 0)
(3 -1.12597e-15 0)
(3 -8.48685e-17 0)
(3 -3.68283e-16 0)
(3 -9.1711e-16 0)
(3 -1.07857e-15 0)
(3 -1.60034e-15 0)
(3 -1.89599e-15 0)
(3 -1.44437e-15 0)
(3 -6.82909e-16 0)
(3 -8.82577e-16 0)
(3 -1.54894e-15 0)
(3 -1.65413e-11 0)
(2.88908 0.235006 0)
(1.02454 0.39389 0)
(0.758057 0.317603 0)
(0.746925 0.356447 0)
(0.725417 0.413114 0)
(0.689151 0.428032 0)
(0.643345 0.447157 0)
(0.591922 0.413778 0)
(0.53289 0.325686 0)
(0.508612 0.330835 0)
(0.50517 0.424691 0)
(0.515299 0.553881 0)
(0.500371 0.576217 0)
(0.455369 0.527537 0)
(0.341725 0.364466 0)
(0.313539 0.395487 0)
(0.259904 0.454975 0)
(0.193103 0.4617 0)
(0.086902 0.418605 0)
(3 5.12929e-17 0)
(3 -2.80663e-16 0)
(3 -5.83604e-17 0)
(3 -2.80887e-16 0)
(3 1.2959e-16 0)
(3 1.34955e-16 0)
(3 2.62519e-16 0)
(3 2.2507e-16 0)
(3 7.04905e-16 0)
(3 -2.02858e-16 0)
(3 -2.66285e-16 0)
(3 -7.03385e-16 0)
(3 -7.99323e-16 0)
(3 -1.28948e-15 0)
(3 -1.72245e-15 0)
(3 -1.55217e-15 0)
(3 -7.19391e-16 0)
(3 -2.71215e-16 0)
(3 -1.15e-16 0)
(3 -1.18086e-15 0)
(3 -1.30717e-11 0)
(3.06033 0.123569 0)
(1.10595 0.424718 0)
(0.837996 0.393705 0)
(0.811643 0.435661 0)
(0.753324 0.448748 0)
(0.700805 0.443422 0)
(0.639274 0.390716 0)
(0.568499 0.323454 0)
(0.533331 0.342643 0)
(0.522156 0.383418 0)
(0.554733 0.530812 0)
(0.527166 0.563813 0)
(0.499058 0.568798 0)
(0.388725 0.377297 0)
(0.343265 0.36253 0)
(0.327165 0.411945 0)
(0.274917 0.471431 0)
(0.203729 0.499 0)
(0.0927756 0.473173 0)
(3 -5.67034e-18 0)
(3 -2.43658e-16 0)
(3 -5.32301e-17 0)
(3 1.32379e-16 0)
(3 -2.06361e-16 0)
(3 -2.12709e-16 0)
(3 3.56242e-16 0)
(3 2.28778e-16 0)
(3 9.36158e-16 0)
(3 1.25399e-15 0)