/*--------------------------------*- C++ -*----------------------------------*\
  =========                 |
  \\      /  F ield         | OpenFOAM: The Open Source CFD Toolbox
   \\    /   O peration     | Website:  https://openfoam.org
    \\  /    A nd           | Version:  6.0
     \\/     M anipulation  |
\*---------------------------------------------------------------------------*/
FoamFile
{
    version     2.0;
    format      ascii;
    class       volVectorField;
    location    "1.000271";
    object      U;
}
// * * * * * * * * * * * * * * * * * * * * * * * * * * * * * * * * * * * * * //

dimensions      [0 1 -1 0 0 0 0];

internalField   nonuniform List<vector> 
192000
(
(3 2.16257e-16 0)
(3 -1.20486e-15 0)
(3 3.77841e-16 0)
(3 -1.7918e-15 0)
(3 -8.1143e-16 0)
(3 5.92329e-15 0)
(3 -1.99817e-15 0)
(3 -8.64657e-15 0)
(3 -1.8289e-15 0)
(3 9.26386e-16 0)
(3 7.49586e-16 0)
(3 1.41418e-15 0)
(3 -1.14098e-16 0)
(3 4.10511e-15 0)
(3 2.83395e-15 0)
(3 1.25792e-15 0)
(3 2.20027e-15 0)
(3 1.28981e-16 0)
(3 1.77694e-15 0)
(3 5.99671e-16 0)
(3 -1.80363e-15 0)
(3 -9.03472e-16 0)
(2.25202 0.00255387 0)
(0.823542 0.00356281 0)
(0.682024 0.00888808 0)
(0.630564 0.00850718 0)
(0.581493 0.00641911 0)
(0.543903 0.00473569 0)
(0.513094 0.00460372 0)
(0.480714 0.00552667 0)
(0.442503 0.00615661 0)
(0.400143 0.00614579 0)
(0.356194 0.00628251 0)
(0.311269 0.0069949 0)
(0.267989 0.00805855 0)
(0.22564 0.00853024 0)
(0.184853 0.00789333 0)
(0.13982 0.00743053 0)
(0.0887738 0.00792695 0)
(0.0325771 0.00922899 0)
(3 -3.25809e-16 0)
(3 1.44942e-16 0)
(3 3.82654e-16 0)
(3 -9.67702e-16 0)
(3 2.80143e-15 0)
(3 6.96878e-15 0)
(3 5.59724e-15 0)
(3 9.80606e-16 0)
(3 3.64417e-15 0)
(3 2.49657e-15 0)
(3 8.50932e-16 0)
(3 -2.61728e-15 0)
(3 1.32894e-15 0)
(3 -4.31312e-15 0)
(3 3.6436e-16 0)
(3 9.98749e-16 0)
(3 1.34969e-15 0)
(3 1.48298e-16 0)
(3 1.45671e-16 0)
(3 -1.71198e-15 0)
(3 -3.14735e-15 0)
(3 -1.38059e-15 0)
(2.25035 0.00891454 0)
(0.818564 0.0118128 0)
(0.675505 0.0252335 0)
(0.624697 0.0234107 0)
(0.577333 0.0172773 0)
(0.540686 0.0128987 0)
(0.510076 0.013539 0)
(0.477532 0.0174376 0)
(0.438895 0.0200963 0)
(0.396573 0.0198748 0)
(0.353122 0.0192054 0)
(0.309022 0.0204398 0)
(0.26604 0.0234412 0)
(0.223322 0.025863 0)
(0.182363 0.0256585 0)
(0.138118 0.0245777 0)
(0.0883248 0.0243306 0)
(0.0328952 0.026834 0)
(3 -1.81185e-15 0)
(3 -3.55698e-15 0)
(3 -9.5243e-16 0)
(3 -5.25113e-16 0)
(3 5.62668e-15 0)
(3 -1.68568e-15 0)
(3 -1.53137e-16 0)
(3 2.63804e-15 0)
(3 -5.85785e-16 0)
(3 1.13784e-16 0)
(3 1.85335e-15 0)
(3 -1.48449e-15 0)
(3 3.45103e-15 0)
(3 -3.2187e-15 0)
(3 1.00736e-15 0)
(3 1.81045e-15 0)
(3 2.79758e-15 0)
(3 9.99825e-16 0)
(3 -1.50004e-15 0)
(3 -2.34309e-15 0)
(3 -6.1349e-16 0)
(3 5.59144e-16 0)
(2.25581 0.0188252 0)
(0.815717 0.0206063 0)
(0.671006 0.0419267 0)
(0.620351 0.0391499 0)
(0.574262 0.0290221 0)
(0.53796 0.0213927 0)
(0.507311 0.021837 0)
(0.474316 0.0277394 0)
(0.434585 0.0324262 0)
(0.391579 0.0328694 0)
(0.3484 0.0321739 0)
(0.305308 0.03364 0)
(0.262595 0.0371904 0)
(0.219847 0.0404534 0)
(0.178368 0.0413894 0)
(0.134428 0.0414437 0)
(0.0857911 0.0419005 0)
(0.0324775 0.0458546 0)
(3 2.00687e-15 0)
(3 -4.0539e-15 0)
(3 -2.83254e-15 0)
(3 7.3918e-16 0)
(3 1.39305e-15 0)
(3 6.71448e-15 0)
(3 -1.40041e-15 0)
(3 -2.5604e-15 0)
(3 -4.29111e-15 0)
(3 -1.48732e-15 0)
(3 9.12843e-16 0)
(3 5.21937e-15 0)
(3 7.12393e-16 0)
(3 2.10748e-15 0)
(3 8.47816e-16 0)
(3 2.76999e-15 0)
(3 3.85904e-15 0)
(3 -1.32892e-15 0)
(3 -1.06207e-15 0)
(3 1.12829e-15 0)
(3 4.17371e-16 0)
(3 -1.87334e-15 0)
(2.27174 0.0286513 0)
(0.818266 0.0301066 0)
(0.67188 0.0583291 0)
(0.62088 0.0551607 0)
(0.574877 0.0412303 0)
(0.53753 0.0303792 0)
(0.50567 0.0299081 0)
(0.472068 0.0372905 0)
(0.431485 0.0441082 0)
(0.38781 0.045875 0)
(0.344548 0.0456568 0)
(0.301999 0.0468698 0)
(0.25885 0.0500156 0)
(0.215998 0.0536193 0)
(0.173965 0.0559126 0)
(0.130166 0.057907 0)
(0.0826791 0.060103 0)
(0.0319099 0.0654279 0)
(3 1.40221e-15 0)
(3 -6.08966e-16 0)
(3 -3.4876e-16 0)
(3 1.2787e-16 0)
(3 2.09711e-15 0)
(3 5.42555e-15 0)
(3 4.23644e-15 0)
(3 -4.60181e-15 0)
(3 -3.4435e-15 0)
(3 -2.59552e-15 0)
(3 -1.17312e-15 0)
(3 2.10637e-15 0)
(3 -1.88623e-15 0)
(3 -3.01906e-15 0)
(3 3.05384e-15 0)
(3 -3.07057e-15 0)
(3 -4.73304e-15 0)
(3 -2.89173e-15 0)
(3 -1.8499e-15 0)
(3 9.44369e-16 0)
(3 1.10708e-15 0)
(3 -1.03435e-15 0)
(2.29159 0.0346388 0)
(0.822205 0.0399039 0)
(0.671224 0.0743409 0)
(0.619816 0.0708244 0)
(0.574748 0.0536473 0)
(0.537416 0.039878 0)
(0.505205 0.0384323 0)
(0.472039 0.0470974 0)
(0.431422 0.0554833 0)
(0.38726 0.0586156 0)
(0.343486 0.0594115 0)
(0.300617 0.0605937 0)
(0.256369 0.0629051 0)
(0.212566 0.0662345 0)
(0.169619 0.0694834 0)
(0.125655 0.0737159 0)
(0.0789117 0.0783475 0)
(0.0308155 0.0859547 0)
(3 3.55403e-16 0)
(3 -6.0234e-16 0)
(3 2.60172e-17 0)
(3 -1.49167e-15 0)
(3 2.44186e-15 0)
(3 -3.44768e-15 0)
(3 1.51908e-15 0)
(3 -1.53064e-15 0)
(3 2.84486e-15 0)
(3 9.03991e-16 0)
(3 6.43239e-16 0)
(3 -3.88341e-16 0)
(3 3.32645e-15 0)
(3 -7.91598e-17 0)
(3 2.75455e-15 0)
(3 1.21999e-15 0)
(3 -2.38549e-15 0)
(3 1.02446e-15 0)
(3 -1.41176e-16 0)
(3 5.10433e-16 0)
(3 -1.4602e-16 0)
(3 -2.65695e-16 0)
(2.3074 0.0415009 0)
(0.820106 0.0509047 0)
(0.666304 0.089514 0)
(0.616447 0.0851056 0)
(0.5741 0.0655173 0)
(0.538076 0.0497289 0)
(0.506285 0.0476884 0)
(0.47416 0.0572377 0)
(0.434137 0.0673494 0)
(0.38966 0.0721625 0)
(0.345157 0.073968 0)
(0.301381 0.0749162 0)
(0.255962 0.076485 0)
(0.211088 0.0792936 0)
(0.166804 0.083007 0)
(0.122116 0.0885056 0)
(0.0756263 0.0959946 0)
(0.0294318 0.106489 0)
(3 -1.2705e-15 0)
(3 -1.83869e-15 0)
(3 1.43967e-15 0)
(3 2.50523e-15 0)
(3 5.53875e-16 0)
(3 1.50971e-15 0)
(3 2.45788e-15 0)
(3 4.95104e-15 0)
(3 3.35899e-16 0)
(3 -4.59397e-15 0)
(3 -1.56282e-15 0)
(3 -2.64224e-16 0)
(3 -1.38749e-15 0)
(3 5.53239e-16 0)
(3 1.89615e-15 0)
(3 3.29307e-15 0)
(3 1.79526e-15 0)
(3 -2.04788e-15 0)
(3 -2.26374e-15 0)
(3 -3.13306e-15 0)
(3 -1.71817e-15 0)
(3 -3.70423e-15 0)
(2.32826 0.0522479 0)
(0.820799 0.0646265 0)
(0.661531 0.103699 0)
(0.613967 0.0972809 0)
(0.575132 0.0761006 0)
(0.540275 0.0593806 0)
(0.508392 0.057855 0)
(0.476336 0.068804 0)
(0.436064 0.0802239 0)
(0.390867 0.085857 0)
(0.34539 0.0885395 0)
(0.300909 0.0897593 0)
(0.255252 0.0907625 0)
(0.210243 0.0927469 0)
(0.165296 0.0963486 0)
(0.12001 0.103118 0)
(0.0735365 0.112878 0)
(0.0282004 0.126361 0)
(3 -2.32569e-15 0)
(3 5.07496e-15 0)
(3 1.91067e-15 0)
(3 4.08676e-15 0)
(3 -2.65199e-15 0)
(3 1.49241e-15 0)
(3 5.91891e-16 0)
(3 2.8112e-15 0)
(3 1.34206e-15 0)
(3 -1.84468e-15 0)
(3 2.35451e-17 0)
(3 -1.6675e-15 0)
(3 -1.76411e-15 0)
(3 -1.85078e-15 0)
(3 3.87285e-16 0)
(3 5.5905e-16 0)
(3 -2.39922e-15 0)
(3 -1.78865e-15 0)
(3 -1.09596e-15 0)
(3 6.80856e-17 0)
(3 1.02132e-15 0)
(3 -2.86514e-16 0)
(2.35821 0.06388 0)
(0.825885 0.0805939 0)
(0.659119 0.11739 0)
(0.614223 0.107556 0)
(0.578231 0.0848503 0)
(0.543403 0.0686103 0)
(0.510766 0.0689058 0)
(0.47853 0.0825959 0)
(0.438066 0.095648 0)
(0.392755 0.101507 0)
(0.346914 0.104038 0)
(0.301831 0.105101 0)
(0.255973 0.105607 0)
(0.210632 0.106915 0)
(0.164738 0.110056 0)
(0.118766 0.117409 0)
(0.0721246 0.12886 0)
(0.027001 0.145065 0)
(3 6.46165e-16 0)
(3 -1.01173e-15 0)
(3 9.4495e-16 0)
(3 -9.03338e-16 0)
(3 -8.39785e-16 0)
(3 1.27102e-15 0)
(3 -7.36176e-16 0)
(3 -4.03143e-16 0)
(3 1.99435e-15 0)
(3 2.03909e-15 0)
(3 2.5565e-15 0)
(3 -9.74282e-16 0)
(3 5.67806e-16 0)
(3 -4.38515e-15 0)
(3 7.0553e-16 0)
(3 8.14603e-16 0)
(3 1.78926e-15 0)
(3 5.51874e-16 0)
(3 1.5915e-15 0)
(3 1.24489e-15 0)
(3 2.89933e-15 0)
(3 3.50997e-16 0)
(2.39577 0.0738438 0)
(0.833961 0.0978492 0)
(0.65834 0.130744 0)
(0.616238 0.116573 0)
(0.582338 0.0924489 0)
(0.547117 0.0773089 0)
(0.513646 0.0799845 0)
(0.4815 0.0966218 0)
(0.441066 0.11227 0)
(0.395556 0.11848 0)
(0.349354 0.120152 0)
(0.303372 0.120545 0)
(0.256978 0.121255 0)
(0.210991 0.121902 0)
(0.16441 0.124516 0)
(0.118092 0.131871 0)
(0.0714453 0.143997 0)
(0.026196 0.162313 0)
(3 -1.36132e-16 0)
(3 6.0353e-16 0)
(3 -9.15789e-16 0)
(3 -3.66798e-16 0)
(3 3.82862e-16 0)
(3 -1.07403e-15 0)
(3 2.90494e-17 0)
(3 -1.88041e-16 0)
(3 -1.58931e-15 0)
(3 -6.51904e-16 0)
(3 -2.04758e-16 0)
(3 -1.21235e-15 0)
(3 -1.90809e-17 0)
(3 -7.99046e-16 0)
(3 2.00209e-15 0)
(3 -3.38899e-15 0)
(3 -1.94966e-15 0)
(3 -2.19708e-15 0)
(3 -3.01642e-17 0)
(3 -5.27643e-16 0)
(3 2.71102e-15 0)
(3 4.30826e-16 0)
(2.43262 0.0816433 0)
(0.840777 0.116198 0)
(0.656856 0.14347 0)
(0.618943 0.125016 0)
(0.587241 0.099575 0)
(0.552114 0.0852229 0)
(0.517989 0.0903187 0)
(0.485237 0.110747 0)
(0.444574 0.129199 0)
(0.398892 0.135239 0)
(0.35207 0.136071 0)
(0.304954 0.136588 0)
(0.257557 0.137522 0)
(0.21069 0.13766 0)
(0.163976 0.139344 0)
(0.11791 0.146599 0)
(0.0713885 0.158454 0)
(0.0258657 0.178348 0)
(3 -1.08893e-15 0)
(3 -2.89833e-16 0)
(3 -9.91008e-16 0)
(3 -7.03228e-16 0)
(3 9.42234e-16 0)
(3 1.47926e-15 0)
(3 -3.9665e-15 0)
(3 -1.73814e-15 0)
(3 8.3998e-16 0)
(3 2.44262e-15 0)
(3 -2.02113e-15 0)
(3 -1.50931e-16 0)
(3 -9.55846e-16 0)
(3 1.96811e-15 0)
(3 -1.3151e-15 0)
(3 -3.9345e-15 0)
(3 -2.8767e-15 0)
(3 -3.65543e-15 0)
(3 -2.10484e-16 0)
(3 5.49402e-16 0)
(3 -1.18995e-15 0)
(3 -2.95516e-15 0)
(2.47167 0.08897 0)
(0.848492 0.134732 0)
(0.655478 0.155497 0)
(0.622726 0.133535 0)
(0.593132 0.107002 0)
(0.558301 0.0929705 0)
(0.523565 0.100018 0)
(0.490504 0.123209 0)
(0.448992 0.144508 0)
(0.402042 0.151831 0)
(0.354232 0.15263 0)
(0.30613 0.152869 0)
(0.258002 0.153971 0)
(0.21059 0.154069 0)
(0.164196 0.154876 0)
(0.118775 0.161704 0)
(0.0722257 0.172627 0)
(0.0261394 0.193232 0)
(3 1.80688e-15 0)
(3 1.1117e-15 0)
(3 4.85866e-16 0)
(3 1.75156e-15 0)
(3 2.48464e-15 0)
(3 -8.72361e-16 0)
(3 -4.50929e-16 0)
(3 -3.41582e-16 0)
(3 6.60228e-16 0)
(3 2.85319e-16 0)
(3 4.30913e-16 0)
(3 1.1837e-15 0)
(3 1.89561e-15 0)
(3 -1.72891e-15 0)
(3 -3.55359e-15 0)
(3 6.42585e-16 0)
(3 3.13669e-16 0)
(3 -3.80974e-16 0)
(3 -6.44918e-16 0)
(3 -9.09953e-16 0)
(3 -2.12588e-15 0)
(3 6.21308e-17 0)
(2.51306 0.0959107 0)
(0.858032 0.153217 0)
(0.655849 0.166734 0)
(0.62756 0.142319 0)
(0.599771 0.11542 0)
(0.565169 0.101717 0)
(0.529712 0.109886 0)
(0.495872 0.134813 0)
(0.453484 0.158178 0)
(0.405171 0.166955 0)
(0.356211 0.168459 0)
(0.307438 0.168756 0)
(0.25902 0.170229 0)
(0.211081 0.170633 0)
(0.16467 0.171184 0)
(0.119453 0.177355 0)
(0.0727797 0.187106 0)
(0.0263548 0.207687 0)
(3 4.75659e-16 0)
(3 6.02241e-16 0)
(3 6.53849e-17 0)
(3 1.67573e-16 0)
(3 -1.03686e-16 0)
(3 1.96476e-15 0)
(3 2.92858e-15 0)
(3 -3.7297e-16 0)
(3 -4.99128e-17 0)
(3 -2.48278e-15 0)
(3 -8.57193e-16 0)
(3 3.84072e-16 0)
(3 -1.97519e-15 0)
(3 2.42311e-15 0)
(3 -1.75298e-15 0)
(3 -1.31749e-16 0)
(3 8.37498e-19 0)
(3 5.41165e-15 0)
(3 -3.62871e-15 0)
(3 -3.62285e-15 0)
(3 -2.20288e-15 0)
(3 -4.92587e-15 0)
(2.55692 0.102279 0)
(0.869743 0.171245 0)
(0.658568 0.176978 0)
(0.633667 0.15104 0)
(0.606711 0.124752 0)
(0.572097 0.111697 0)
(0.535656 0.120538 0)
(0.500399 0.146498 0)
(0.456972 0.171196 0)
(0.407566 0.180987 0)
(0.357834 0.183168 0)
(0.308969 0.183759 0)
(0.260844 0.185888 0)
(0.212806 0.187063 0)
(0.166502 0.187905 0)
(0.121193 0.193928 0)
(0.0740063 0.20235 0)
(0.0269096 0.222642 0)
(3 -1.96764e-16 0)
(3 -1.34957e-15 0)
(3 -2.4699e-15 0)
(3 -1.09939e-15 0)
(3 1.3954e-15 0)
(3 -1.74894e-15 0)
(3 -4.29779e-16 0)
(3 1.74102e-15 0)
(3 -2.64179e-15 0)
(3 -7.53586e-17 0)
(3 -1.64591e-15 0)
(3 -5.85094e-16 0)
(3 -1.7353e-15 0)
(3 -2.10411e-15 0)
(3 -2.14684e-15 0)
(3 -1.50534e-15 0)
(3 -2.59147e-16 0)
(3 1.31144e-15 0)
(3 -3.99066e-15 0)
(3 -4.40391e-15 0)
(3 -1.56301e-15 0)
(3 -5.11442e-15 0)
(2.6034 0.108126 0)
(0.88319 0.188734 0)
(0.663274 0.186401 0)
(0.640491 0.159507 0)
(0.613273 0.134394 0)
(0.578257 0.122327 0)
(0.540601 0.131817 0)
(0.503529 0.158755 0)
(0.45899 0.184498 0)
(0.408855 0.194723 0)
(0.358915 0.1971 0)
(0.310561 0.197956 0)
(0.263078 0.200936 0)
(0.215282 0.203135 0)
(0.168828 0.204732 0)
(0.122644 0.211209 0)
(0.074676 0.218688 0)
(0.0272638 0.237948 0)
(3 9.88552e-16 0)
(3 2.33768e-16 0)
(3 5.51147e-16 0)
(3 -2.80982e-16 0)
(3 6.95333e-16 0)
(3 -1.62623e-15 0)
(3 -2.53145e-15 0)
(3 9.89329e-16 0)
(3 9.8424e-16 0)
(3 1.21678e-15 0)
(3 1.82385e-15 0)
(3 4.42718e-15 0)
(3 -3.13684e-16 0)
(3 -5.20678e-16 0)
(3 -1.61022e-15 0)
(3 -1.96774e-15 0)
(3 -6.02641e-16 0)
(3 1.02741e-16 0)
(3 -2.52606e-15 0)
(3 -3.77635e-15 0)
(3 -1.99059e-15 0)
(3 -3.5913e-15 0)
(2.65389 0.113593 0)
(0.89924 0.205395 0)
(0.670223 0.195398 0)
(0.647976 0.167817 0)
(0.619757 0.144058 0)
(0.584048 0.133185 0)
(0.545016 0.143382 0)
(0.505507 0.17151 0)
(0.459384 0.198525 0)
(0.408782 0.208963 0)
(0.359578 0.210969 0)
(0.31265 0.211713 0)
(0.266197 0.215378 0)
(0.219076 0.218657 0)
(0.172279 0.221494 0)
(0.124693 0.228855 0)
(0.0755634 0.235947 0)
(0.0276597 0.254182 0)
(3 -1.52002e-15 0)
(3 7.4245e-16 0)
(3 8.57068e-16 0)
(3 -7.75589e-16 0)
(3 -1.47758e-15 0)
(3 -1.35092e-15 0)
(3 -2.24056e-15 0)
(3 -4.17463e-15 0)
(3 1.80594e-15 0)
(3 7.46686e-16 0)
(3 2.52621e-15 0)
(3 1.01215e-15 0)
(3 1.13362e-15 0)
(3 1.50545e-15 0)
(3 -9.54258e-16 0)
(3 2.97116e-16 0)
(3 2.52564e-16 0)
(3 2.34875e-15 0)
(3 -7.12567e-17 0)
(3 -2.51497e-15 0)
(3 -2.68507e-16 0)
(3 -2.79723e-16 0)
(2.71035 0.117756 0)
(0.91997 0.220167 0)
(0.679401 0.204202 0)
(0.656826 0.176094 0)
(0.626608 0.153977 0)
(0.589364 0.144477 0)
(0.548266 0.155663 0)
(0.50629 0.184752 0)
(0.458845 0.213144 0)
(0.408053 0.224073 0)
(0.359964 0.225439 0)
(0.314705 0.225548 0)
(0.269312 0.229498 0)
(0.222836 0.233907 0)
(0.175839 0.238368 0)
(0.126776 0.246897 0)
(0.0762331 0.254041 0)
(0.0277957 0.270941 0)
(3 -9.47573e-16 0)
(3 8.97045e-16 0)
(3 2.06722e-17 0)
(3 -1.71949e-15 0)
(3 -2.25393e-15 0)
(3 -1.06647e-15 0)
(3 6.80368e-16 0)
(3 -2.96356e-15 0)
(3 -2.64396e-15 0)
(3 -6.42997e-16 0)
(3 3.13009e-15 0)
(3 -2.84707e-15 0)
(3 1.39374e-15 0)
(3 -4.9066e-15 0)
(3 1.20713e-15 0)
(3 -2.47032e-15 0)
(3 -9.34709e-16 0)
(3 -3.30999e-15 0)
(3 2.24979e-16 0)
(3 -5.24665e-16 0)
(3 2.02971e-15 0)
(3 -2.82361e-15 0)
(2.77216 0.115868 0)
(0.945267 0.232106 0)
(0.688623 0.213907 0)
(0.666285 0.18564 0)
(0.633835 0.165375 0)
(0.594362 0.157292 0)
(0.550604 0.168997 0)
(0.506546 0.198631 0)
(0.458077 0.228046 0)
(0.407249 0.239822 0)
(0.360261 0.240759 0)
(0.316807 0.239781 0)
(0.273068 0.243455 0)
(0.227454 0.248969 0)
(0.180454 0.25544 0)
(0.129844 0.26541 0)
(0.0775225 0.272745 0)
(0.0279404 0.28836 0)
(3 -3.58045e-16 0)
(3 -5.75977e-16 0)
(3 -2.02182e-16 0)
(3 -4.87806e-16 0)
(3 -9.12179e-16 0)
(3 1.16381e-15 0)
(3 7.02252e-16 0)
(3 1.77868e-15 0)
(3 8.18786e-17 0)
(3 8.14926e-16 0)
(3 -2.38119e-15 0)
(3 1.3951e-15 0)
(3 6.97237e-17 0)
(3 1.18382e-15 0)
(3 1.59312e-15 0)
(3 2.50994e-15 0)
(3 1.39304e-15 0)
(3 -6.85404e-16 0)
(3 3.82919e-16 0)
(3 6.68583e-16 0)
(3 2.64517e-15 0)
(3 1.3665e-15 0)
(2.83318 0.106197 0)
(0.971174 0.241777 0)
(0.696471 0.223362 0)
(0.675459 0.195497 0)
(0.641053 0.178072 0)
(0.598817 0.171879 0)
(0.551859 0.183923 0)
(0.506132 0.213474 0)
(0.457128 0.243229 0)
(0.406581 0.255557 0)
(0.360611 0.256276 0)
(0.318701 0.254338 0)
(0.277051 0.257777 0)
(0.232396 0.264567 0)
(0.185704 0.273187 0)
(0.133594 0.284591 0)
(0.0792891 0.291978 0)
(0.0280474 0.306441 0)
(3 -4.98453e-16 0)
(3 -1.73506e-15 0)
(3 -1.21641e-15 0)
(3 -1.55546e-16 0)
(3 3.3457e-17 0)
(3 -6.88556e-16 0)
(3 -2.84633e-16 0)
(3 2.64615e-15 0)
(3 7.18671e-16 0)
(3 1.12154e-15 0)
(3 3.68167e-15 0)
(3 2.47935e-15 0)
(3 2.12073e-15 0)
(3 2.20309e-15 0)
(3 4.64696e-16 0)
(3 2.06628e-15 0)
(3 2.1863e-15 0)
(3 3.18394e-16 0)
(3 1.43512e-15 0)
(3 5.59312e-16 0)
(3 1.61778e-16 0)
(3 -6.70282e-16 0)
(2.88454 0.0881296 0)
(0.991172 0.254376 0)
(0.698242 0.232903 0)
(0.681052 0.205711 0)
(0.645454 0.191223 0)
(0.601265 0.187131 0)
(0.551781 0.19982 0)
(0.504707 0.229304 0)
(0.455704 0.258776 0)
(0.406161 0.270778 0)
(0.361455 0.270977 0)
(0.320883 0.268642 0)
(0.281765 0.2727 0)
(0.238138 0.281127 0)
(0.191924 0.291729 0)
(0.138248 0.304353 0)
(0.081619 0.311606 0)
(0.0282359 0.324821 0)
(3 2.41693e-16 0)
(3 -5.5034e-16 0)
(3 9.49004e-17 0)
(3 3.22416e-16 0)
(3 1.37577e-15 0)
(3 -1.06328e-15 0)
(3 2.10868e-15 0)
(3 2.36131e-15 0)
(3 -1.16412e-15 0)
(3 4.13268e-15 0)
(3 -3.49379e-15 0)
(3 -1.19364e-15 0)
(3 1.47735e-15 0)
(3 -2.48454e-15 0)
(3 -3.02982e-15 0)
(3 -1.48349e-15 0)
(3 8.63422e-16 0)
(3 1.62204e-15 0)
(3 -2.27006e-15 0)
(3 -2.55054e-16 0)
(3 1.07326e-15 0)
(3 -2.35259e-15 0)
(2.92236 0.0687582 0)
(1.00962 0.26791 0)
(0.702588 0.240746 0)
(0.686793 0.213836 0)
(0.649536 0.203526 0)
(0.603465 0.20184 0)
(0.551793 0.216062 0)
(0.503337 0.245888 0)
(0.454645 0.274549 0)
(0.406411 0.285272 0)
(0.363329 0.284449 0)
(0.323729 0.282225 0)
(0.286621 0.288171 0)
(0.243696 0.298975 0)
(0.197814 0.311193 0)
(0.142595 0.324651 0)
(0.083684 0.331537 0)
(0.0282747 0.343538 0)
(3 4.67556e-16 0)
(3 -2.67274e-16 0)
(3 1.28873e-15 0)
(3 3.33822e-15 0)
(3 -4.82437e-15 0)
(3 4.43269e-16 0)
(3 2.112e-15 0)
(3 -4.40442e-15 0)
(3 2.52284e-15 0)
(3 -8.11083e-16 0)
(3 -4.97762e-16 0)
(3 1.55385e-15 0)
(3 -6.26427e-16 0)
(3 2.31491e-15 0)
(3 2.68278e-15 0)
(3 1.20109e-15 0)
(3 5.77244e-16 0)
(3 -8.4064e-16 0)
(3 1.74981e-15 0)
(3 -1.7759e-15 0)
(3 1.18474e-15 0)
(3 -3.20888e-15 0)
(2.95494 0.051949 0)
(1.03569 0.280399 0)
(0.709892 0.247738 0)
(0.689397 0.222888 0)
(0.650709 0.216041 0)
(0.603993 0.216022 0)
(0.551421 0.231925 0)
(0.502159 0.262445 0)
(0.454125 0.290211 0)
(0.407795 0.298929 0)
(0.36676 0.296766 0)
(0.327894 0.295077 0)
(0.291774 0.303763 0)
(0.249663 0.317463 0)
(0.203493 0.331124 0)
(0.14701 0.345115 0)
(0.0860156 0.351547 0)
(0.0285364 0.362616 0)
(3 6.41128e-16 0)
(3 2.80776e-15 0)
(3 7.45305e-16 0)
(3 2.76076e-15 0)
(3 -3.05311e-16 0)
(3 -3.98054e-15 0)
(3 -2.7312e-15 0)
(3 -2.17952e-15 0)
(3 3.9051e-15 0)
(3 -1.43368e-16 0)
(3 1.47916e-15 0)
(3 -3.86676e-17 0)
(3 -2.08529e-15 0)
(3 4.12142e-15 0)
(3 3.51981e-15 0)
(3 2.83383e-15 0)
(3 -7.06466e-16 0)
(3 -1.20504e-15 0)
(3 3.47465e-16 0)
(3 -1.63601e-15 0)
(3 1.73695e-15 0)
(3 -2.65312e-15 0)
(2.98513 0.0303811 0)
(1.07075 0.287228 0)
(0.717182 0.256793 0)
(0.690984 0.234126 0)
(0.650933 0.229484 0)
(0.60338 0.230069 0)
(0.550699 0.247226 0)
(0.501789 0.278243 0)
(0.454994 0.305168 0)
(0.410934 0.311767 0)
(0.371791 0.308318 0)
(0.33334 0.307658 0)
(0.297568 0.319346 0)
(0.255922 0.336109 0)
(0.209126 0.35117 0)
(0.151628 0.365524 0)
(0.0886853 0.371645 0)
(0.0290559 0.382307 0)
(3 4.29136e-16 0)
(3 5.02888e-15 0)
(3 -2.92982e-17 0)
(3 1.35661e-15 0)
(3 -2.69391e-16 0)
(3 -8.70852e-17 0)
(3 -4.77045e-16 0)
(3 2.80609e-15 0)
(3 3.12883e-15 0)
(3 5.53245e-17 0)
(3 -1.24816e-16 0)
(3 -1.35151e-16 0)
(3 -2.85402e-15 0)
(3 -1.71262e-15 0)
(3 -1.30111e-15 0)
(3 -2.14841e-15 0)
(3 -3.00451e-15 0)
(3 -3.10857e-15 0)
(3 -1.08743e-15 0)
(3 -1.38368e-15 0)
(3 3.56572e-15 0)
(3 -5.95456e-16 0)
(3.0032 0.00598406 0)
(1.11551 0.293326 0)
(0.722254 0.266851 0)
(0.69087 0.247246 0)
(0.650455 0.244046 0)
(0.603343 0.244688 0)
(0.55221 0.262225 0)
(0.504535 0.292947 0)
(0.458808 0.318861 0)
(0.416441 0.323719 0)
(0.378615 0.319484 0)
(0.340415 0.32028 0)
(0.304574 0.334737 0)
(0.262444 0.354527 0)
(0.21451 0.371082 0)
(0.155837 0.385889 0)
(0.0911352 0.39208 0)
(0.0295395 0.402825 0)
(3 1.53277e-16 0)
(3 2.96903e-15 0)
(3 -1.86028e-15 0)
(3 -1.06333e-16 0)
(3 -2.45146e-15 0)
(3 4.71256e-15 0)
(3 3.57292e-15 0)
(3 5.08799e-15 0)
(3 -3.31882e-15 0)
(3 -3.20327e-16 0)
(3 -7.37626e-16 0)
(3 2.61424e-15 0)
(3 -2.01492e-16 0)
(3 -3.33515e-15 0)
(3 3.32943e-16 0)
(3 -5.69665e-15 0)
(3 -3.77766e-15 0)
(3 -6.91867e-15 0)
(3 -4.98352e-16 0)
(3 3.35634e-16 0)
(3 -1.84255e-15 0)
(3 -2.98818e-16 0)
(3.0003 0.000225934 0)
(1.17262 0.302866 0)
(0.728519 0.275869 0)
(0.691841 0.260373 0)
(0.651624 0.258752 0)
(0.606209 0.259842 0)
(0.557474 0.276735 0)
(0.510934 0.306396 0)
(0.46559 0.33115 0)
(0.424053 0.334877 0)
(0.386906 0.330632 0)
(0.348676 0.333349 0)
(0.312105 0.350148 0)
(0.268875 0.372706 0)
(0.219567 0.39085 0)
(0.160081 0.406301 0)
(0.0942308 0.413197 0)
(0.0305226 0.424426 0)
(3 1.50863e-15 0)
(3 -3.56818e-15 0)
(3 -2.03112e-16 0)
(3 -2.30699e-16 0)
(3 3.16174e-15 0)
(3 1.48526e-15 0)
(3 1.4055e-15 0)
(3 -1.82372e-15 0)
(3 -1.85754e-15 0)
(3 1.321e-15 0)
(3 4.49539e-16 0)
(3 2.80568e-15 0)
(3 2.55335e-16 0)
(3 -1.0989e-15 0)
(3 -1.06923e-15 0)
(3 3.74463e-16 0)
(3 -1.21609e-15 0)
(3 -2.58804e-15 0)
(3 -1.71326e-15 0)
(3 -1.81753e-16 0)
(3 -4.65449e-15 0)
(3 1.55289e-15 0)
(3 1.52321e-06 0)
(1.2405 0.31281 0)
(0.737414 0.284562 0)
(0.695899 0.272382 0)
(0.656032 0.271689 0)
(0.611774 0.273957 0)
(0.564796 0.291035 0)
(0.519114 0.319577 0)
(0.474182 0.342646 0)
(0.433303 0.345333 0)
(0.396329 0.341871 0)
(0.357879 0.346833 0)
(0.319924 0.365437 0)
(0.275873 0.390321 0)
(0.225086 0.410339 0)
(0.165238 0.426942 0)
(0.0986235 0.435417 0)
(0.0321762 0.447476 0)
(3 -6.75645e-16 0)
(3 -1.4965e-15 0)
(3 7.47911e-16 0)
(3 8.74529e-16 0)
(3 7.03913e-16 0)
(3 7.10249e-16 0)
(3 3.45219e-16 0)
(3 7.30769e-16 0)
(3 2.21918e-15 0)
(3 -1.00971e-15 0)
(3 -1.93297e-15 0)
(3 -3.24946e-15 0)
(3 -7.06642e-16 0)
(3 -2.28295e-15 0)
(3 -3.3425e-15 0)
(3 -1.15718e-15 0)
(3 -1.50922e-15 0)
(3 -1.07546e-15 0)
(3 -1.0833e-15 0)
(3 -2.89226e-15 0)
(3 4.68369e-15 0)
(3 -4.97047e-16 0)
(3 8.84943e-10 0)
(1.31805 0.324264 0)
(0.749342 0.293448 0)
(0.703292 0.282907 0)
(0.662017 0.282777 0)
(0.616459 0.287142 0)
(0.569965 0.305751 0)
(0.526081 0.33355 0)
(0.482795 0.354312 0)
(0.443043 0.355837 0)
(0.406543 0.353324 0)
(0.368143 0.360141 0)
(0.328583 0.38002 0)
(0.283907 0.407176 0)
(0.23136 0.429791 0)
(0.170898 0.448583 0)
(0.103377 0.459361 0)
(0.0337445 0.472077 0)
(3 2.21304e-16 0)
(3 -6.55012e-16 0)
(3 -9.4808e-16 0)
(3 -1.39851e-18 0)
(3 -5.85209e-17 0)
(3 4.58259e-16 0)
(3 3.99959e-16 0)
(3 -1.61859e-15 0)
(3 -1.81171e-15 0)
(3 -9.85444e-16 0)
(3 -2.11792e-15 0)
(3 -3.87347e-15 0)
(3 -1.33126e-15 0)
(3 -8.89276e-16 0)
(3 -1.22578e-15 0)
(3 -1.59709e-15 0)
(3 -9.02907e-16 0)
(3 -1.70935e-15 0)
(3 1.47499e-15 0)
(3 4.76604e-16 0)
(3 7.69614e-16 0)
(3 -2.12132e-15 0)
(3 3.74015e-14 0)
(1.40734 0.334998 0)
(0.764395 0.301381 0)
(0.71093 0.295039 0)
(0.666371 0.29511 0)
(0.616516 0.300456 0)
(0.569812 0.320161 0)
(0.528975 0.347815 0)
(0.489212 0.36683 0)
(0.452562 0.366862 0)
(0.417623 0.364917 0)
(0.379455 0.37289 0)
(0.337991 0.394043 0)
(0.29246 0.423881 0)
(0.238095 0.449983 0)
(0.177046 0.471869 0)
(0.10869 0.485095 0)
(0.0356405 0.498085 0)
(3 1.71133e-16 0)
(3 2.41302e-15 0)
(3 2.45134e-16 0)
(3 -1.75708e-15 0)
(3 -2.1226e-16 0)
(3 1.03862e-15 0)
(3 -1.67594e-15 0)
(3 -7.93068e-16 0)
(3 -9.79701e-16 0)
(3 -9.34023e-17 0)
(3 -1.51108e-16 0)
(3 -1.27794e-15 0)
(3 -8.23836e-16 0)
(3 1.68742e-15 0)
(3 -2.19642e-15 0)
(3 1.44999e-15 0)
(3 1.70122e-16 0)
(3 1.15383e-15 0)
(3 -2.38868e-15 0)
(3 3.20748e-15 0)
(3 2.06224e-16 0)
(3 -1.32805e-15 0)
(3 -7.94093e-16 0)
(1.50753 0.341102 0)
(0.779689 0.310351 0)
(0.714152 0.312109 0)
(0.664073 0.310303 0)
(0.61128 0.314779 0)
(0.564569 0.333699 0)
(0.527565 0.360453 0)
(0.494075 0.378872 0)
(0.462088 0.378178 0)
(0.429118 0.377061 0)
(0.390897 0.386023 0)
(0.348394 0.408462 0)
(0.301756 0.441237 0)
(0.245789 0.4715 0)
(0.183809 0.497049 0)
(0.11416 0.512618 0)
(0.0374074 0.52554 0)
(3 -1.64066e-15 0)
(3 2.38701e-15 0)
(3 1.63229e-16 0)
(3 -8.91203e-16 0)
(3 -2.61093e-17 0)
(3 9.8404e-16 0)
(3 -3.48102e-16 0)
(3 8.71472e-16 0)
(3 -1.16699e-15 0)
(3 -1.43601e-15 0)
(3 -1.19019e-15 0)
(3 -3.34712e-16 0)
(3 2.33745e-16 0)
(3 1.18438e-15 0)
(3 -1.23131e-15 0)
(3 3.93289e-15 0)
(3 -2.97052e-16 0)
(3 2.92057e-15 0)
(3 -8.90047e-16 0)
(3 -7.67129e-17 0)
(3 -1.34576e-15 0)
(3 3.28919e-16 0)
(3 -5.30871e-15 0)
(1.6155 0.343617 0)
(0.792479 0.321894 0)
(0.709273 0.329729 0)
(0.655669 0.32664 0)
(0.601264 0.329502 0)
(0.556574 0.345491 0)
(0.52688 0.371382 0)
(0.500287 0.389281 0)
(0.472151 0.389307 0)
(0.440753 0.389712 0)
(0.402489 0.400346 0)
(0.359429 0.42467 0)
(0.311908 0.460105 0)
(0.255069 0.494375 0)
(0.192343 0.523556 0)
(0.121087 0.541464 0)
(0.0401438 0.55456 0)
(3 -6.9329e-16 0)
(3 -2.21555e-15 0)
(3 -1.04633e-17 0)
(3 1.28238e-15 0)
(3 1.53607e-15 0)
(3 -1.21235e-15 0)
(3 -8.4804e-16 0)
(3 -9.19565e-16 0)
(3 -9.07792e-16 0)
(3 -3.49138e-16 0)
(3 -4.04128e-16 0)
(3 -6.4136e-16 0)
(3 5.33288e-16 0)
(3 8.07185e-16 0)
(3 3.85912e-15 0)
(3 2.54868e-15 0)
(3 1.64527e-15 0)
(3 3.73531e-15 0)
(3 -8.92566e-16 0)
(3 -5.20766e-16 0)
(3 -5.52178e-16 0)
(3 -9.08052e-16 0)
(3 -4.91993e-15 0)
(1.72653 0.341547 0)
(0.797585 0.337065 0)
(0.69869 0.345562 0)
(0.643085 0.340877 0)
(0.591844 0.344052 0)
(0.553916 0.357832 0)
(0.530996 0.380895 0)
(0.509357 0.397888 0)
(0.483441 0.399532 0)
(0.452549 0.40266 0)
(0.4142 0.416258 0)
(0.371205 0.443136 0)
(0.323141 0.480758 0)
(0.265555 0.518538 0)
(0.201039 0.551434 0)
(0.126967 0.572014 0)
(0.0418409 0.585492 0)
(3 1.40072e-15 0)
(3 -1.30805e-15 0)
(3 -5.82225e-16 0)
(3 -3.19072e-16 0)
(3 9.19099e-16 0)
(3 -1.04263e-16 0)
(3 -2.42348e-15 0)
(3 -2.18531e-15 0)
(3 2.29149e-15 0)
(3 4.66886e-15 0)
(3 4.72898e-15 0)
(3 -5.7893e-16 0)
(3 6.52055e-16 0)
(3 1.68229e-15 0)
(3 9.62491e-16 0)
(3 8.1919e-16 0)
(3 2.50723e-15 0)
(3 4.41048e-15 0)
(3 7.17168e-16 0)
(3 2.37437e-15 0)
(3 -8.56845e-16 0)
(3 -1.30726e-15 0)
(3 -5.91604e-15 0)
(1.83314 0.33982 0)
(0.79765 0.359015 0)
(0.682955 0.357534 0)
(0.634632 0.355201 0)
(0.592307 0.358746 0)
(0.560175 0.36919 0)
(0.541006 0.388783 0)
(0.521897 0.40568 0)
(0.496044 0.409776 0)
(0.464879 0.416066 0)
(0.426435 0.433364 0)
(0.383931 0.463267 0)
(0.33549 0.502815 0)
(0.277611 0.543529 0)
(0.211719 0.579964 0)
(0.134777 0.603714 0)
(0.0450775 0.618308 0)
(3 1.08229e-15 0)
(3 -1.38231e-15 0)
(3 -2.0089e-15 0)
(3 -2.10383e-15 0)
(3 -1.10941e-15 0)
(3 -3.94274e-16 0)
(3 -1.41275e-15 0)
(3 2.89575e-15 0)
(3 -4.39002e-15 0)
(3 -1.18061e-15 0)
(3 1.26698e-15 0)
(3 2.29209e-15 0)
(3 1.34732e-15 0)
(3 1.71831e-15 0)
(3 1.58796e-15 0)
(3 1.19068e-15 0)
(3 3.03786e-15 0)
(3 2.80974e-15 0)
(3 5.53796e-15 0)
(3 5.17173e-15 0)
(3 1.77501e-15 0)
(3 1.36612e-15 0)
(3 8.33288e-16 0)
(1.93963 0.344972 0)
(0.793075 0.382171 0)
(0.675114 0.374574 0)
(0.639632 0.36876 0)
(0.60602 0.369023 0)
(0.577848 0.375697 0)
(0.559163 0.395265 0)
(0.539169 0.413399 0)
(0.511371 0.419641 0)
(0.478804 0.429485 0)
(0.439237 0.45142 0)
(0.396776 0.484757 0)
(0.348198 0.526106 0)
(0.290244 0.569404 0)
(0.22234 0.609712 0)
(0.141408 0.637586 0)
(0.0469067 0.653883 0)
(3 1.36242e-15 0)
(3 -7.11875e-16 0)
(3 -2.20064e-15 0)
(3 -3.60072e-16 0)
(3 -2.08548e-15 0)
(3 1.56231e-15 0)
(3 9.63388e-16 0)
(3 3.319e-15 0)
(3 2.15273e-15 0)
(3 -1.31468e-15 0)
(3 -1.48222e-15 0)
(3 4.7025e-15 0)
(3 2.81213e-15 0)
(3 6.43024e-15 0)
(3 3.32663e-15 0)
(3 4.633e-15 0)
(3 2.34626e-15 0)
(3 4.83605e-15 0)
(3 6.63626e-15 0)
(3 -2.23951e-16 0)
(3 2.76586e-15 0)
(3 5.68106e-16 0)
(3 9.87825e-16 0)
(2.06297 0.358152 0)
(0.801905 0.414564 0)
(0.681804 0.389311 0)
(0.661199 0.375158 0)
(0.637994 0.375657 0)
(0.612012 0.383372 0)
(0.588098 0.401773 0)
(0.562007 0.422521 0)
(0.528757 0.432065 0)
(0.492847 0.44513 0)
(0.452613 0.47074 0)
(0.410818 0.506495 0)
(0.362661 0.549385 0)
(0.304972 0.595349 0)
(0.235691 0.640038 0)
(0.150993 0.673381 0)
(0.0509321 0.692395 0)
(3 7.00078e-16 0)
(3 9.97466e-16 0)
(3 2.0808e-15 0)
(3 -4.13692e-16 0)
(3 -2.76192e-16 0)
(3 -6.37479e-16 0)
(3 1.20479e-15 0)
(3 1.20611e-15 0)
(3 1.84056e-15 0)
(3 -5.37669e-16 0)
(3 -1.76417e-15 0)
(3 7.16697e-16 0)
(3 2.13654e-15 0)
(3 2.76779e-15 0)
(3 3.15503e-15 0)
(3 3.20469e-15 0)
(3 5.24967e-15 0)
(3 4.67293e-15 0)
(3 3.64577e-15 0)
(3 2.33852e-15 0)
(3 9.10315e-16 0)
(3 -2.21011e-15 0)
(3 -4.31536e-15 0)
(2.2293 0.37931 0)
(0.834966 0.44143 0)
(0.717176 0.389936 0)
(0.709988 0.381264 0)
(0.691676 0.38092 0)
(0.662729 0.388363 0)
(0.627923 0.409368 0)
(0.590925 0.432912 0)
(0.550127 0.445046 0)
(0.509584 0.460395 0)
(0.468592 0.488759 0)
(0.42597 0.527233 0)
(0.377047 0.572619 0)
(0.319489 0.621974 0)
(0.24877 0.672267 0)
(0.159802 0.712933 0)
(0.053548 0.735603 0)
(3 5.14428e-16 0)
(3 -7.75692e-17 0)
(3 -5.27225e-16 0)
(3 -8.17788e-16 0)
(3 -2.04029e-16 0)
(3 -1.80205e-15 0)
(3 1.5543e-15 0)
(3 6.32437e-16 0)
(3 3.07153e-15 0)
(3 1.66086e-15 0)
(3 -1.09974e-16 0)
(3 -3.13448e-15 0)
(3 7.40251e-16 0)
(3 -5.81988e-16 0)
(3 3.23529e-15 0)
(3 4.44649e-15 0)
(3 2.10655e-15 0)
(3 2.69086e-15 0)
(3 2.86904e-15 0)
(3 3.94004e-15 0)
(3 9.3577e-16 0)
(3 1.91206e-15 0)
(3 -3.65679e-15 0)
(2.49516 0.396361 0)
(0.921916 0.452757 0)
(0.800614 0.389348 0)
(0.782752 0.387353 0)
(0.753221 0.392565 0)
(0.71485 0.402218 0)
(0.669679 0.423144 0)
(0.621953 0.447777 0)
(0.572326 0.461467 0)
(0.524539 0.478051 0)
(0.480884 0.507728 0)
(0.43745 0.54811 0)
(0.389744 0.595672 0)
(0.334639 0.648667 0)
(0.265286 0.705282 0)
(0.173655 0.755516 0)
(0.0594196 0.78387 0)
(3 6.21733e-16 0)
(3 -7.67066e-17 0)
(3 5.18618e-16 0)
(3 1.23692e-15 0)
(3 -1.2285e-15 0)
(3 2.22547e-15 0)
(3 1.59391e-15 0)
(3 1.44675e-15 0)
(3 6.04172e-16 0)
(3 7.7205e-16 0)
(3 6.66109e-15 0)
(3 3.54079e-16 0)
(3 1.93384e-15 0)
(3 2.72192e-16 0)
(3 1.19066e-15 0)
(3 1.85087e-15 0)
(3 1.66833e-15 0)
(3 -3.78041e-15 0)
(3 6.65694e-16 0)
(3 2.5844e-15 0)
(3 5.66404e-17 0)
(3 1.90035e-15 0)
(3 2.02587e-15 0)
(2.822 0.293671 0)
(1.04805 0.463081 0)
(0.879981 0.397176 0)
(0.844084 0.391193 0)
(0.800251 0.398555 0)
(0.754612 0.411964 0)
(0.704801 0.437054 0)
(0.651004 0.464263 0)
(0.595353 0.477931 0)
(0.541966 0.493485 0)
(0.494934 0.52328 0)
(0.450126 0.565847 0)
(0.403688 0.616523 0)
(0.351984 0.674379 0)
(0.284023 0.739994 0)
(0.188174 0.803942 0)
(0.0638618 0.839989 0)
(3 -1.04609e-15 0)
(3 1.19628e-15 0)
(3 -1.34189e-15 0)
(3 -1.69037e-15 0)
(3 7.93047e-16 0)
(3 -1.20784e-15 0)
(3 -9.15552e-16 0)
(3 8.2421e-16 0)
(3 -1.7928e-15 0)
(3 2.65238e-15 0)
(3 9.94504e-16 0)
(3 6.01053e-17 0)
(3 3.62383e-16 0)
(3 6.38661e-16 0)
(3 -5.04833e-16 0)
(3 1.84815e-15 0)
(3 -9.89507e-17 0)
(3 -2.68256e-15 0)
(3 -7.20752e-16 0)
(3 -1.18515e-16 0)
(3 2.97013e-17 0)
(3 -3.31609e-15 0)
(3 1.10793e-15 0)
(3.00232 0.134035 0)
(1.11929 0.425777 0)
(0.889081 0.419362 0)