/*--------------------------------*- C++ -*----------------------------------*\
  =========                 |
  \\      /  F ield         | OpenFOAM: The Open Source CFD Toolbox
   \\    /   O peration     | Website:  https://openfoam.org
    \\  /    A nd           | Version:  6.0
     \\/     M anipulation  |
\*---------------------------------------------------------------------------*/
FoamFile
{
    version     2.0;
    format      ascii;
    class       volScalarField;
    location    "0.5";
    object      p;
}
// * * * * * * * * * * * * * * * * * * * * * * * * * * * * * * * * * * * * * //

dimensions      [1 -1 -2 0 0 0 0];

internalField   nonuniform List<scalar> 
4800
(
1
1
1
1
1
1
1
1
1
1
1
1
1.00001
1.00001
1.00003
1.00005
1.00011
1.00022
1.00046
1.00093
1.00192
1.00393
1.00807
1.01659
1.03412
1.07042
1.1463
1.30827
1.66947
2.57175
5.61826
21.8307
21.0721
19.3293
16.8848
12.4522
11.4077
9.62915
8.88062
6.96908
1
1
1
1
1
1
1
1
1
1
1
1
1.00001
1.00001
1.00003
1.00005
1.00011
1.00022
1.00046
1.00094
1.00192
1.00395
1.0081
1.01663
1.03422
1.07064
1.1468
1.30945
1.67236
2.5824
5.76162
22.468
21.1389
20.2274
17.9356
12.9719
11.1517
8.56445
8.22476
7.39007
1
1
1
1
1
1
1
1
1
1
1
1
1.00001
1.00001
1.00003
1.00005
1.00011
1.00022
1.00046
1.00094
1.00194
1.00397
1.00815
1.01675
1.03446
1.07116
1.148
1.31232
1.67968
2.60595
5.93557
21.9199
22.3988
21.4879
19.0366
13.0856
11.376
7.82785
8.88406
7.65115
1
1
1
1
1
1
1
1
1
1
1
1
1.00001
1.00001
1.00003
1.00005
1.00011
1.00022
1.00046
1.00094
1.00194
1.00398
1.00819
1.01684
1.03468
1.07167
1.1491
1.3146
1.68435
2.61591
6.0935
24.7042
23.5275
23.28
21.2588
12.7744
11.5222
8.30956
10.2758
9.46511
1
1
1
1
1
1
1
1
1
1
1
1
1.00001
1.00001
1.00003
1.00005
1.00011
1.00022
1.00046
1.00094
1.00193
1.00397
1.00815
1.01677
1.03456
1.07145
1.14872
1.31397
1.683
2.61276
6.12218
24.7144
23.5111
19.166
10.3164
11.5969
6.47585
8.1628
8.60539
7.87189
1
1
1
1
1
1
1
1
1
1
1
1
1.00001
1.00001
1.00003
1.00005
1.00011
1.00022
1.00045
1.00093
1.00192
1.00394
1.00811
1.01669
1.03443
1.07126
1.14846
1.3137
1.68298
2.61411
6.00753
20.3761
19.5506
21.5433
22.2332
21.9318
21.7061
20.0009
13.2831
8.16059
1
1
1
1
1
1
1
1
1
1
1
1
1.00001
1.00001
1.00003
1.00005
1.00011
1.00022
1.00045
1.00092
1.0019
1.0039
1.00803
1.01655
1.03419
1.07089
1.14791
1.31277
1.68128
2.60218
5.71397
18.9997
19.2502
18.9015
18.8368
19.6287
20.2189
17.9402
14.1907
9.26218
1
1
1
1
1
1
1
1
1
1
1
1
1.00001
1.00001
1.00003
1.00005
1.00011
1.00022
1.00045
1.00092
1.00188
1.00386
1.00792
1.01629
1.03358
1.06952
1.14495
1.30655
1.6681
2.56269
5.4194
20.3992
18.8911
18.0596
17.0818
16.9516
16.417
15.6641
14.8815
9.92046
1
1
1
1
1
1
1
1
1
1
1
1
1.00001
1.00001
1.00003
1.00005
1.00011
1.00022
1.00044
1.00091
1.00187
1.00383
1.00785
1.01612
1.03317
1.06853
1.14259
1.30096
1.65464
2.52329
5.21698
20.6932
18.8289
17.4143
16.8191
16.454
15.51
14.7405
14.3532
10.1814
1
1
1
1
1
1
1
1
1
1
1
1
1.00001
1.00001
1.00002
1.00005
1.0001
1.00021
1.00044
1.0009
1.00185
1.0038
1.00779
1.01599
1.03287
1.06782
1.14087
1.29668
1.64364
2.4912
5.07976
20.8946
18.8764
16.9965
16.4396
15.1067
14.8206
14.0636
13.3178
13.4496
1
1
1
1
1
1
1
1
1
1
1
1
1.00001
1.00001
1.00002
1.00005
1.0001
1.00021
1.00044
1.00089
1.00183
1.00376
1.00772
1.01585
1.0326
1.06727
1.13967
1.29388
1.63643
2.46828
4.9634
20.2051
18.8385
16.97
15.8224
13.2815
13.4833
14.5545
14.811
18.8491
1
1
1
1
1
1
1
1
1
1
1
1
1.00001
1.00001
1.00002
1.00005
1.0001
1.00021
1.00043
1.00088
1.00181
1.00372
1.00764
1.01571
1.03234
1.06678
1.13869
1.29177
1.63133
2.45299
4.88797
19.7797
18.6156
16.9469
16.0188
15.9345
16.5544
19.8386
20.7585
28.8287
1
1
1
1
1
1
1
1
1
1
1
1
1.00001
1.00001
1.00002
1.00005
1.0001
1.00021
1.00043
1.00087
1.00179
1.00368
1.00756
1.01555
1.03204
1.0662
1.13764
1.2898
1.62727
2.44214
4.83616
19.5185
18.4213
16.5735
15.9585
15.3112
16.1473
18.9775
19.2831
7.69443
1
1
1
1
1
1
1
1
1
1
1
1
1.00001
1.00001
1.00002
1.00005
1.0001
1.00021
1.00042
1.00087
1.00178
1.00366
1.00751
1.01543
1.03176
1.06558
1.13631
1.28707
1.62194
2.43139
4.80437
19.5549
18.2336
16.2475
15.6487
14.6202
15.2434
18.4264
16.1755
10.9862
1
1
1
1
1
1
1
1
1
1
1
1
1.00001
1.00001
1.00002
1.00005
1.0001
1.0002
1.00042
1.00086
1.00177
1.00364
1.00748
1.01537
1.03161
1.06521
1.13535
1.28464
1.61577
2.41581
4.76692
19.727
17.9937
15.8275
14.9884
14.2063
14.7892
18.0327
7.7744
11.3104
1
1
1
1
1
1
1
1
1
1
1
1
1.00001
1.00001
1.00002
1.00005
1.0001
1.0002
1.00042
1.00086
1.00176
1.00363
1.00745
1.01531
1.03151
1.065
1.13488
1.28344
1.61234
2.40473
4.72147
19.1901
17.8303
15.5343
14.3949
13.2953
14.1676
15.7613
13.68
10.3247
1
1
1
1
1
1
1
1
1
1
1
1
1.00001
1.00001
1.00002
1.00005
1.0001
1.0002
1.00041
1.00085
1.00175
1.0036
1.00741
1.01524
1.03139
1.06479
1.1345
1.2827
1.61065
2.40009
4.70407
18.8454
17.6336
15.4453
14.1547
12.4822
12.0839
14.222
13.1013
10.0772
1
1
1
1
1
1
1
1
1
1
1
1
1.00001
1.00001
1.00002
1.00005
1.0001
1.0002
1.00041
1.00085
1.00174
1.00358
1.00736
1.01514
1.03121
1.0645
1.13403
1.28196
1.60941
2.39766
4.70063
18.7087
17.5405
15.3642
14.1094
12.7899
10.9859
11.4724
12.4555
10.4999
1
1
1
1
1
1
1
1
1
1
1
1
1.00001
1.00001
1.00002
1.00005
1.0001
1.0002
1.00041
1.00084
1.00173
1.00356
1.00732
1.01507
1.03105
1.06417
1.13339
1.28079
1.60749
2.39528
4.7058
18.6919
17.4819
15.384
14.0891
13.2568
10.5913
10.9624
12.2929
11.4509
1
1
1
1
1
1
1
1
1
1
1
1
1.00001
1.00001
1.00002
1.00005
1.0001
1.0002
1.00041
1.00084
1.00173
1.00356
1.00731
1.01504
1.03098
1.06401
1.13301
1.27989
1.60531
2.39059
4.70849
18.7839
17.4052
15.3629
13.8267
11.8982
10.9264
11.9366
12.3172
11.7948
1
1
1
1
1
1
1
1
1
1
1
1
1.00001
1.00001
1.00002
1.00005
1.0001
1.0002
1.00041
1.00085
1.00174
1.00356
1.00732
1.01505
1.031
1.06402
1.13302
1.27985
1.60499
2.38889
4.70436
18.4095
17.346
15.1125
13.1493
9.78296
10.5783
13.0302
12.5723
12.1526
1
1
1
1
1
1
1
1
1
1
1
1
1.00001
1.00001
1.00002
1.00005
1.0001
1.0002
1.00041
1.00085
1.00174
1.00358
1.00734
1.01509
1.03106
1.06414
1.13324
1.28031
1.606
2.39163
4.719
18.1022
17.0749
14.5227
12.8085
10.2261
11.484
12.6082
11.9471
12.5341
1
1
1
1
1
1
1
1
1
1
1
1
1.00001
1.00001
1.00002
1.00005
1.0001
1.0002
1.00042
1.00085
1.00175
1.00359
1.00738
1.01515
1.03116
1.0643
1.13352
1.28085
1.60724
2.39551
4.74327
17.956
16.7998
14.3762
12.7079
10.8032
11.5331
12.0267
10.9777
12.4331
1
1
1
1
1
1
1
1
1
1
1
1
1.00001
1.00001
1.00002
1.00005
1.0001
1.0002
1.00042
1.00086
1.00176
1.00361
1.00741
1.01522
1.0313
1.06454
1.13394
1.28161
1.60877
2.39989
4.76954
17.8225
16.4796
14.3578
12.6895
11.5909
11.2838
11.6625
10.9569
12.0224
1
1
1
1
1
1
1
1
1
1
1
1
1.00001
1.00001
1.00002
1.00005
1.0001
1.00021
1.00042
1.00086
1.00177
1.00363
1.00746
1.01531
1.03146
1.06485
1.13449
1.28257
1.6105
2.40414
4.79366
17.6726
16.1379
14.3391
12.6706
11.591
11.3185
11.7551
11.0711
11.1494
1
1
1
1
1
1
1
1
1
1
1
1
1.00001
1.00001
1.00002
1.00005
1.0001
1.00021
1.00042
1.00087
1.00178
1.00365
1.00749
1.01538
1.03163
1.06519
1.13515
1.28376
1.61253
2.40815
4.81089
17.4219
15.8825
14.2932
12.6325
11.5636
11.3105
11.7305
11.4653
9.44799
1
1
1
1
1
1
1
1
1
1
1
1
1.00001
1.00001
1.00002
1.00005
1.0001
1.00021
1.00042
1.00087
1.00178
1.00366
1.0075
1.01542
1.03173
1.06544
1.1357
1.28484
1.61443
2.41162
4.82263
17.1016
15.7381
14.1125
12.5984
11.4531
11.2176
11.32
11.7789
8.91677
1
1
1
1
1
1
1
1
1
1
1
1
1.00001
1.00001
1.00002
1.00005
1.0001
1.00021
1.00042
1.00087
1.00179
1.00366
1.0075
1.01541
1.03172
1.06548
1.13594
1.2856
1.61616
2.41521
4.83221
16.7516
15.7091
13.9776
12.5197
11.1799
11.1057
10.9548
11.708
8.9634
1
1
1
1
1
1
1
1
1
1
1
1
1.00001
1.00001
1.00002
1.00005
1.0001
1.0002
1.00042
1.00087
1.00178
1.00366
1.0075
1.01539
1.03163
1.06529
1.1357
1.28563
1.61734
2.4192
4.84354
16.4217
15.7345
13.8817
12.1811
10.8008
10.5788
10.701
11.4832
9.19101
1
1
1
1
1
1
1
1
1
1
1
1
1.00001
1.00001
1.00002
1.00005
1.0001
1.0002
1.00042
1.00086
1.00177
1.00364
1.00749
1.01537
1.03158
1.06509
1.13512
1.28442
1.61595
2.42081
4.86066
16.2225
15.6959
13.8965
11.9193
10.6859
10.2697
10.414
10.966
9.94834
1
1
1
1
1
1
1
1
1
1
1
1
1.00001
1.00001
1.00002
1.00005
1.0001
1.0002
1.00042
1.00085
1.00175
1.00361
1.00744
1.01532
1.03155
1.06506
1.13489
1.2834
1.61267
2.41412
4.8661
16.343
15.3643
13.2545
11.6975
10.7497
9.93454
9.94406
9.87843
11.5044
1
1
1
1
1
1
1
1
1
1
1
1
1.00001
1.00001
1.00002
1.00005
1.0001
1.0002
1.00042
1.00085
1.00175
1.00359
1.00739
1.01522
1.03142
1.06495
1.13489
1.28336
1.61148
2.40677
4.82828
16.0472
14.7661
12.735
11.5112
10.5845
9.67431
9.58396
9.44538
11.5505
1
1
1
1
1
1
1
1
1
1
1
1
1.00001
1.00001
1.00002
1.00005
1.0001
1.0002
1.00041
1.00085
1.00175
1.00359
1.00736
1.01513
1.0312
1.06456
1.13442
1.28308
1.61145
2.40471
4.79905
15.3148
14.4067
12.5508
11.3086
10.007
9.45217
9.30772
9.30991
11.4421
1
1
1
1
1
1
1
1
1
1
1
1
1.00001
1.00001
1.00002
1.00005
1.0001
1.0002
1.00041
1.00085
1.00175
1.00359
1.00736
1.0151
1.03103
1.06403
1.13318
1.28088
1.6087
2.40169
4.78417
15.0337
14.1664
12.3957
11.0571
9.86089
9.20936
9.27733
9.05695
10.3724
1
1
1
1
1
1
1
1
1
1
1
1
1.00001
1.00001
1.00002
1.00005
1.0001
1.0002
1.00041
1.00084
1.00173
1.00357
1.00733
1.01505
1.03089
1.06357
1.13171
1.27686
1.59964
2.38674
4.76809
14.988
13.9315
12.2584
10.7628
9.87629
9.08192
9.07904
9.04184
9.48584
1
1
1
1
1
1
1
1
1
1
1
1
1.00001
1.00001
1.00002
1.00005
1.0001
1.0002
1.0004
1.00083
1.0017
1.00351
1.00723
1.01489
1.03062
1.06301
1.13031
1.27293
1.58797
2.35214
4.68155
15.3011
13.8028
12.3047
10.476
9.96635
8.94535
8.62581
8.79138
8.95496
1
1
1
1
1
1
1
1
1
1
1
1
1.00001
1.00001
1.00002
1.00005
1.00009
1.00019
1.00039
1.00081
1.00166
1.00341
1.00704
1.01454
1.03004
1.06208
1.1287
1.26953
1.57913
2.32262
4.52976
13.9772
13.7278
12.5664
10.1954
9.5793
8.83794
8.37914
8.49517
8.58133
1
1
1
1
1
1
1
1
1
1
1
1
1.00001
1.00001
1.00002
1.00004
1.00009
1.00019
1.00038
1.00079
1.00161
1.00331
1.00681
1.01406
1.02913
1.06051
1.12616
1.26527
1.57038
2.29911
4.43442
13.0303
12.5796
11.6805
10.1478
9.49834
8.66864
8.23715
8.33655
8.23609
1
1
1
1
1
1
1
1
1
1
1
1
1
1.00001
1.00002
1.00004
1.00009
1.00018
1.00037
1.00076
1.00157
1.00322
1.00662
1.01363
1.02814
1.05838
1.12196
1.25772
1.55696
2.27111
4.35515
12.8489
12.168
11.0168
10.0059
9.5508
8.61765
8.15707
8.19031
7.96553
1
1
1
1
1
1
1
1
1
1
1
1
1
1.00001
1.00002
1.00004
1.00009
1.00018
1.00036
1.00074
1.00153
1.00314
1.00643
1.01319
1.02712
1.05599
1.11657
1.24634
1.53475
2.22512
4.19946
12.2179
11.6601
10.7713
10.026
9.76446
8.46754
8.31063
7.84812
7.88287
1
1
1
1
1
1
1
1
1
1
1
1
1
1.00001
1.00002
1.00004
1.00008
1.00016
1.00033
1.00068
1.00139
1.00284
1.00581
1.01188
1.02432
1.04991
1.10299
1.21482
1.45818
2.02507
3.61198
12.4389
11.8929
10.8079
10.0132
9.14701
8.10905
7.35412
6.62849
5.73056
1
1
1
1
1
1
1
1
1
1
1
1
1
1.00001
1.00001
1.00003
1.00006
1.00012
1.00024
1.00049
1.001
1.00204
1.00418
1.00855
1.0175
1.03582
1.07359
1.15231
1.3202
1.6958
2.66317
4.94144
11.1991
10.7301
9.88333
8.94406
8.03539
7.20107
6.72365
5.80186
1
1
1
1
1
1
1
1
1
1
1
1
1
1.00001
1.00001
1.00002
1.00004
1.00009
1.00018
1.00038
1.00077
1.00159
1.00326
1.00668
1.01369
1.02809
1.05774
1.11931
1.24931
1.5336
2.21231
4.05126
10.2428
10.2268
9.82678
8.94045
8.19136
7.24771
6.71044
5.8704
1
1
1
1
1
1
1
1
1
1
1
1
1
1
1.00001
1.00002
1.00004
1.00008
1.00017
1.00035
1.00071
1.00146
1.00299
1.00615
1.01263
1.02594
1.05333
1.11009
1.22951
1.48914
2.09874
3.79702
9.71591
9.65636
9.42556
8.79478
8.20597
6.79657
6.21562
5.93772
1
1
1
1
1
1
1
1
1
1
1
1
1
1
1.00001
1.00002
1.00004
1.00007
1.00015
1.0003
1.00061
1.00125
1.00257
1.00529
1.01087
1.02237
1.04607
1.09515
1.19811
1.42027
1.93203
3.32871
9.38761
9.28811
8.9959
8.47479
7.20732
6.5885
6.04815
5.68164
1
1
1
1
1
1
1
1
1
1
1
1
1
1
1.00001
1.00001
1.00003
1.00005
1.0001
1.00021
1.00042
1.00085
1.00172
1.00352
1.00722
1.0149
1.03081
1.0638
1.13265
1.27861
1.60022
2.3945
4.17284
8.5969
8.50099
8.14391
7.11471
6.4592
6.03331
5.56364
1
1
1
1
1
1
1
1
1
1
1
1
1
1
1.00001
1.00001
1.00002
1.00005
1.00009
1.00017
1.00035
1.00071
1.00147
1.00305
1.00627
1.01275
1.02568
1.051
1.10146
1.20508
1.42821
1.93683
3.18872
7.48861
7.63198
7.50719
7.12785
6.46926
5.86675
5.75139
1
1
1
1
1
1
1
1
1
1
1
1
1
1
1.00001
1.00001
1.00002
1.00004
1.00008
1.00016
1.00031
1.0006
1.00115
1.00222
1.00423
1.00798
1.01574
1.03159
1.06441
1.13073
1.26545
1.54983
2.20046
3.54978
6.94206
7.10297
7.00604
6.64538
5.89584
5.80383
1
1
1
1
1
1
1
1
1
1
1
1
1
1
1
1
1
1.00001
1.00002
1.00004
1.00009
1.00019
1.00038
1.00077
1.00155
1.00312
1.0063
1.01286
1.02663
1.05577
1.11803
1.25357
1.55974
2.32027
5.38584
6.6003
6.64018
6.54219
6.16825
5.55466
1
1
1
1
1
1
1
1
1
1
1
1
1
1
1
1
1
1.00001
1.00001
1.00003
1.00006
1.00012
1.00025
1.00051
1.00102
1.00202
1.00399
1.00783
1.01575
1.03235
1.06804
1.14508
1.31345
1.69785
2.62248
5.40358
6.22521
6.21183
6.03618
5.37951
1
1
1
1
1
1
1
1
1
1
1
1
1
1
1
1
1
1
1.00001
1.00002
1.00003
1.00007
1.00016
1.00033
1.00071
1.00148
1.00306
1.00624
1.0126
1.02527
1.05047
1.10084
1.20224
1.41039
1.87303
3.07365
5.65762
5.73301
5.64122
5.17669
1
1
1
1
1
1
1
1
1
1
1
1
1
1
1
1
1
1
1
1.00001
1.00002
1.00004
1.00009
1.00018
1.00037
1.00077
1.00157
1.0032
1.00654
1.01339
1.02753
1.05693
1.1188
1.25209
1.55416
2.3174
4.6369
5.18175
5.1832
5.02895
1
1
1
1
1
1
1
1
1
1
1
1
1
1
1
1
1
1
1
1.00001
1.00001
1.00003
1.00005
1.00012
1.00024
1.0005
1.00103
1.00207
1.00415
1.00825
1.01624
1.03213
1.06414
1.1294
1.26515
1.56811
2.27582
3.97817
4.62526
4.66312
1
1
1
1
1
1
1
1
1
1
1
1
1
1
1
1
1
1
1
1.00001
1.00001
1.00002
1.00005
1.00009
1.0002
1.00042
1.00089
1.00186
1.00383
1.00776
1.01558
1.03081
1.0591
1.10994
1.21443
1.44309
1.98065
3.20687
3.79815
3.99293
1
1
1
1
1
1
1
1
1
1
1
1
1
1
1
1
1
1
1
1
1
1.00001
1.00001
1.00003
1.00006
1.00013
1.00026
1.00057
1.00128
1.00296
1.00695
1.01604
1.03562
1.07557
1.15472
1.29205
1.53398
2.0097
3.04016
3.39701
1
1
1
1
1
1
1
1
1
1
1
1
1
1
1
1
1
1
1
1
1
1
1.00001
1.00001
1.00002
1.00004
1.00008
1.00016
1.00034
1.00073
1.00161
1.00348
1.00731
1.01499
1.03022
1.06197
1.12766
1.26246
1.53631
2.15907
1
1
1
1
1
1
1
1
1
1
1
1
1
1
1
1
1
1
1
1
1
1
1
1
1.00001
1.00001
1.00003
1.00006
1.00011
1.00023
1.00048
1.001
1.00209
1.00432
1.00876
1.01768
1.03598
1.07334
1.14828
1.30685
1
1
1
1
1
1
1
1
1
1
1
1
1
1
1
1
1
1
1
1
1
1
1
1
1
1
1
1.00001
1.00002
1.00004
1.00008
1.00016
1.00033
1.00069
1.00148
1.00319
1.00694
1.01521
1.03346
1.07387
1
1
1
1
1
1
1
1
1
1
1
1
1
1
1
1
1
1
1
1
1
1
1
1
1
1
1
1
1.00001
1.00001
1.00003
1.00005
1.0001
1.00021
1.00041
1.00082
1.00164
1.00328
1.00647
1.01278
1
1
1
1
1
1
1
1
1
1
1
1
1
1
1
1
1
1
1
1
1
1
1
1
1
1
1
1
1.00001
1.00001
1.00002
1.00005
1.00009
1.00019
1.00037
1.00075
1.00151
1.00306
1.00621
1.01256
1
1
1
1
1
1
1
1
1
1
1
1
1
1
1
1
1
1
1
1
1
1
1
1
1
1
1
1
1
1.00001
1.00002
1.00003
1.00007
1.00016
1.00033
1.00068
1.00139
1.00283
1.00574
1.01165
1
1
1
1
1
1
1
1
1
1
1
1
1
1
1
1
1
1
1
1
1
1
1
1
1
1
1
1
1
1
1.00001
1.00002
1.00005
1.00011
1.00025
1.00055
1.00116
1.00242
1.00501
1.01027
1
1
1
1
1
1
1
1
1
1
1
1
1
1
1
1
1
1
1
1
1
1
1
1
1
1
1
1
1
1
1.00001
1.00002
1.00004
1.00008
1.00016
1.00033
1.00072
1.00158
1.00345
1.0075
1
1
1
1
1
1
1
1
1
1
1
1
1
1
1
1
1
1
1
1
1
1
1
1
1
1
1
1
1
1
1.00001
1.00002
1.00004
1.00009
1.00018
1.00038
1.00078
1.0016
1.00324
1.00656
1
1
1
1
1
1
1
1
1
1
1
1
1
1
1
1
1
1
1
1
1
1
1
1
1
1
1
1
1
1.00001
1.00002
1.00003
1.00006
1.00012
1.00024
1.00046
1.00091
1.00176
1.00346
1.00628
1
1
1
1
1
1
1
1
1
1
1
1
1
1
1
1
1
1
1
1
1
1
1
1
1
1
1
1
1
1.00001
1.00001
1.00003
1.00005
1.00011
1.00022
1.00045
1.00091
1.00184
1.0037
1.00742
1
1
1
1
1
1
1
1
1
1
1
1
1
1
1
1
1
1
1
1
1
1
1
1
1
1
1
1
1
1.00001
1.00001
1.00003
1.00005
1.0001
1.0002
1.00041
1.00082
1.0017
1.00354
1.00745
1
1
1
1
1
1
1
1
1
1
1
1
1
1
1
1
1
1
1
1
1
1
1
1
1
1
1
1
1
1
1
1
1.00001
1.00001
1.00003
1.00006
1.00006
1.00005
1
0.999849
1
1
1
1
1
1
1
1
1
1
1
1
1
1
1
1
1
1
1
1
1
1
1
1
1
1
1
1
1
1
1
1
1
1
1
1.00001
1.00001
1.00003
1.00005
1.0001
1
1
1
1
1
1
1
1
1
1
1
1
1
1
1
1
1
1
1
1
1
1
1
1
1
1
1
1
1
1
1
1
1
1
1
1
1
1
1
1.00001
1
1
1
1
1
1
1
1
1
1
1
1
1
1
1
1
1
1
1
1
1
1
1
1
1
1
1
1
1
1
1
1
1
1
1
1
1
1
1
1
1
1
1
1
1
1
1
1
1
1
1
1
1
1
1
1
1
1
1
1
1
1
1
1
1
1
1
1
1
1
1
1
1
1
1
1
1
1
1
1
1
1
1
1
1
1
1
1
1
1
1
1
1
1
1
1
1
1
1
1
1
1
1
1
1
1
1
1
1
1
1
1
1
1
1
1
1
1
1
1
1
1
1
1
1
1
1
1
1
1
1
1
1
1
1
1
1
1
1
1
1
1
1
1
1
1
1
1
1
1
1
1
1
1
1
1
1
1
1
1
1
1
1
1
1
1
1
1
1
1
1
1
1
1
1
1
1
1
1
1
1
1
1
1
1
1
1
1
1
1
1
1
1
1
1
1
1
1
1
1
1
1
1
1
1
1
1
1
1
1
1
1
1
1
1
1
1
1
1
1
1
1
1
1
1
1
1
1
1
1
1
1
1
1
1
1
1
1
1
1
1
1
1
1
1
1
1
1
1
1
1
1
1
1
1
1
1
1
1
1
1
1
1
1
1
1
1
1
1
1
1
1
1
1
1
1
1
1
1
1
1
1
1
1
1
1
1
1
1
1
1
1
1
1
1
1
1
1
1
1
1
1
1
1
1
1
1
1
1
1
1
1
1
1
1
1
1
1
1
1
1
1
1
1
1
1
1
1
1
1
1
1
1
1
1
1
1
1
1
1
1
1
1
1
1
1
1
1
1
1
1
1
1
1
1
1
1
1
1
1
1
1
1
1
1
1
1
1
1
1
1
1
1
1
1
1
1
1
1
1
1
1
1
1
1
1
1
1
1
1
1
1
1
1
1
1
1
1
1
1
2.39188
1.87108
1.53121
1.22606
1.11997
1.04393
0.964255
0.96531
0.982011
1.00005
1.03026
1.10304
1.2152
1.25341
1.25168
1.24325
1.27244
1.20453
1.10729
1.13869
1.20841
1.24777
1.06413
0.975178
0.94939
0.942363
0.95318
1.11853
1.01572
0.899582
0.919721
1.13847
1.13791
0.967418
0.938721
0.984101
1.29312
1.25489
1.06596
1.31986
2.46212
1.97614
1.68468
1.47209
1.43032
1.48057
1.64893
1.65384
1.54971
1.49629
1.45313
1.32251
1.21892
1.23779
1.23702
1.20228
1.18098
1.22831
1.1847
1.05982
1.03973
1.10975
1.07988
1.04928
1.08959
0.956529
1.00068
1.05115
1.08243
1.06882
0.977289
0.958149
1.14151
1.25809
1.10359
0.978838
0.988159
1.23513
1.34414
1.18611
2.70635
2.21522
2.1278
2.11008
2.06766
1.80632
1.50793
1.51169
1.63765
1.35568
1.28179
1.26097
1.20905
1.17554
1.18286
1.1729
1.19287
1.19252
1.06452
1.03395
1.00975
1.19873
1.05672
1.05165
1.08372
1.0938
0.988022
0.970049
0.948559
1.0625
1.08471
1.08753
1.10758
1.19107
1.09683
1.0682
1.26611
1.24118
1.0676
1.27329
3.11472
2.72429
2.44259
2.26347
2.04544
1.83131
1.70021
1.70248
1.37539
1.29836
1.27965
1.25929
1.21464
1.17579
1.16338
1.14501
1.09612
1.13829
1.2209
1.02231
1.0531
1.07575
0.999391
1.12586
1.05037
0.944272
0.989604
0.98906
1.02772
1.1022
0.954334
0.942765
0.976086
1.23323
1.32655
0.962356
1.02097
1.27115
1.29493
0.831011
3.52029
3.24852
2.8296
2.34153
2.13316
1.84007
1.68267
1.41795
1.29255
1.25404
1.23815
1.23122
1.22969
1.18427
1.159
1.13782
1.06653
1.07124
1.15841
1.15034
1.02843
0.962267
0.936222
0.989324
1.12153
1.00614
0.931962
1.07908
1.0491
0.898372
0.978568
1.09773
1.15042
1.08777
1.0371
1.15688
1.16065
1.11693
1.22291
1.26139
3.61975
3.26874
2.84318
2.69926
2.02799
1.8119
1.57423
1.46971
1.40291
1.34212
1.31108
1.25737
1.20754
1.16508
1.11602
1.1154
1.22636
1.23162
1.15484
1.04111
1.00603
0.987597
0.974574
0.968988
1.1131
1.0386
0.912697
0.946678
1.20436
1.00935
0.932716
1.09616
1.18169
1.01665
1.00848
1.22954
1.39982
1.1958
1.05442
1.17094
3.64937
3.22063
3.16141
2.68317
2.06562
1.80065
1.64505
1.55434
1.46443
1.40211
1.3714
1.33033
1.28856
1.23496
1.22698
1.2815
1.18047
1.09966
1.04419
1.03084
1.03531
0.998909
0.958389
1.00386
1.07508
0.992199
0.979727
0.980516
1.06465
1.08356
1.11461
1.07165
1.08234
1.07117
1.02209
1.10981
1.0211
1.01543
1.07097
1.4443
3.75561
3.50711
3.35264
2.57385
2.26316
1.99491
1.77497
1.69311
1.52467
1.47584
1.50162
1.51214
1.34485
1.26993
1.20915
1.1363
1.05051
0.997478
0.961097
0.928368
0.898127
1.01299
1.1957
1.17769
1.02914
1.02031
1.00702
1.01517
1.00702
0.935125
1.05355
1.1988
0.949155
1.02353
1.09621
1.03017
1.00843
0.946677
1.09123
1.39146
3.88203
3.65654
3.27178
2.60588
2.21155
1.97455
1.81163
1.78857
1.73834
1.55938
1.37787
1.27108
1.26644
1.50902
1.36929
1.14159
1.10029
1.04182
0.998173
0.974279
0.959624
0.973667
1.23516
1.11815
0.997687
0.981479
0.917787
0.905556
0.925572
1.13142
1.33529
1.05299
0.987711
1.01271
0.93719
0.889045
1.00128
1.25734
1.16836
1.38102
3.87163
3.54945
3.28162
2.83104
2.23552
1.96649
1.70551
1.65263
1.59618
1.51379
1.46136
1.4124
1.38729
1.39547
1.37119
1.12538
1.08413
1.03645
1.01853
1.04526
1.16903
1.25195
1.03208
0.97508
1.04513
0.985028
0.926215
0.923567
1.04757
1.29008
1.24366
1.11065
1.11144
1.06115
1.01482
0.979275
0.97552
1.01218
1.35171
1.07846
3.856
3.64472
3.45023
2.84326
2.36568
1.97919
1.73598
1.65975
1.62236
1.56537
1.4513
1.37485
1.46899
1.52938
1.21681
1.1264
1.08039
1.1591
1.26763
1.20746
1.09721
1.03265
1.08354
1.17204
1.04749
1.01535
0.963538
0.978663
1.07668
1.13742
1.2057
0.922255
0.877862
0.880612
1.15061
1.22448
0.985957
1.03267
1.18211
1.06099
3.96608
3.79626
3.34618
3.12321
2.432
2.10726
1.89043
1.81106
1.64623
1.50262
1.44693
1.55273
1.48597
1.24791
1.19058
1.153
1.21666
1.31939
1.16635
1.13745
1.13711
1.07864
1.08817
1.31181
1.11468
0.963985
0.943562
0.946159
1.11814
1.24155
1.0574
1.12559
1.03532
0.97994
0.9964
1.24854
1.28854
0.962235
1.04981
1.20025
4.08278
3.81078
3.40859
3.19917
2.55408
2.18783
1.9554
1.88835
1.7386
1.67258
1.57829
1.35595
1.23728
1.26171
1.33849
1.37226
1.3237
1.19552
1.14725
1.15219
1.18007
1.19566
1.19466
1.24713
1.13198
0.982688
0.981168
1.06086
1.17703
1.149
1.01437
1.0251
1.0273
1.00083
1.01442
1.19753
1.20415
1.0162
1.10618
1.49195
4.01782
3.97127
3.59077
3.06798
2.97996
2.40836
1.99049
1.93076
1.96784
2.03532
1.55443
1.37278
1.27148
1.36184
1.41179
1.31
1.25727
1.23103
1.23855
1.25444
1.2222
1.15475
1.1538
1.30419
1.19228
1.06461
1.04248
1.10141
1.18728
1.02048
1.03658
1.03763
0.971413
0.975054
1.18742
1.23526
1.19969
1.08093
1.12551
1.28336
3.93238
3.89195
3.63786
3.33412
3.12966
2.31427
2.12219
1.90097
2.0456
1.83655
1.57341
1.59221
1.52125
1.42255
1.24499
1.18979
1.29375
1.41969
1.29442
1.2426
1.24867
1.1755
1.18549
1.34595
1.15575
1.09586
1.11807
1.12199
1.17421
1.20107
1.01652
0.953925
0.949608
0.953755
0.99883
1.34566
1.45642
1.28916
1.1387
1.14293
2.98779
3.76327
3.68483
3.45455
2.95604
2.46021
2.28147
2.19082
1.9021
1.70566
1.65453
1.80565
1.64888
1.30568
1.24316
1.23124
1.30646
1.4706
1.35121
1.25814
1.30313
1.29763
1.25365
1.37635
1.1948
1.07071
1.04205
1.05643
1.33709
1.21097
1.01797
1.00757
1.00381
0.997349
1.05361
1.41763
1.43495
1.3742
1.25265
1.18553
1.26975
1.17703
1.09215
1.12034
2.48147
2.45345
2.3692
2.0246
1.881
1.92567
1.85983
1.88858
1.47474
1.32106
1.31196
1.30328
1.37992
1.559
1.45032
1.36222
1.45079
1.35526
1.26586
1.37709
1.16763
1.07574
1.0598
1.19255
1.42916
1.13004
1.08568
1.13463
1.10487
1.05903
1.15983
1.48687
1.26317
1.41065
1.47673
1.29137
1.08206
1.11232
1.19964
1.50812
2.35938
2.41784
2.26857
2.09343
2.08068
2.07754
1.82747
1.70309
1.61263
1.46126
1.43573
1.41954
1.62131
1.70305
1.51469
1.51839
1.60252
1.32397
1.33239
1.38438
1.16744
1.11785
1.21025
1.47715
1.25844
1.15067
1.25739
1.34291
1.14679
1.1351
1.41715
1.32456
1.15201
1.20128
1.64188
1.29287
1.04444
1.13571
1.30438
1.49135
1.97658
2.26689
2.2535
2.21589
2.16729
1.9227
1.83357
1.8573
1.78533
1.70479
1.68871
1.7213
1.89074
1.64165
1.56972
1.6844
1.49106
1.43784
1.55329
1.31051
1.2271
1.4283
1.46583
1.21869
1.292
1.53394
1.52559
1.23794
1.21361
1.35612
1.44981
1.17604
1.14357
1.22517
1.64607
1.30721
1.04486
1.14308
1.31907
1.4939
1.89999
2.3265
2.31148
2.26814
2.07703
2.03569
2.14164
2.0404
1.86593
1.81922
1.78332
1.91891
1.79918
1.57703
1.70604
1.62284
1.54683
1.6728
1.45154
1.36725
1.51291
1.63159
1.33492
1.30286
1.3396
1.64741
1.6762
1.28961
1.30976
1.48283
1.25772
1.14362
1.20902
1.53635
1.3896
1.3794
1.04176
1.12125
1.2997
1.52619
1.90147
2.18731
2.18169
2.16626
2.15007
2.26911
2.19964
2.0317
1.99234
1.95751
2.01803
1.85471
1.59452
1.78053
1.96122
1.67177
1.51503
1.42106
1.39122
1.57256
1.95347
1.50682
1.32215
1.32645
1.58903
1.93945
1.53287
1.44867
1.37788
1.31238
1.41661
1.47445
1.32153
1.22305
1.21443
1.57135
1.03714
1.12098
1.22705
1.49464
1.73755
2.30374
2.30692
2.31632
2.34343
2.25145
2.08598
2.03317
2.03722
2.07543
1.98625
1.7314
1.71255
2.01319
2.03544
1.52744
1.46525
1.44158
1.4501
1.7355
1.91602
1.42384
1.38317
1.60291
1.96183
1.69963
1.55361
1.41411
1.29608
1.32372
1.62253
1.41984
1.21047
1.19114
1.40414
1.46465
1.02908
1.09953
1.22615
1.43682
1.7965
2.23479
2.23655
2.24425
2.26136
2.13818
2.08158
2.04852
2.13592
2.08902
1.83377
1.79295
2.03384
2.23597
1.63403
1.52767
1.49276
1.47356
1.71711
2.02408
1.59514
1.49732
1.79739
1.9332
1.84822
1.49213
1.35316
1.34966
1.39501
1.52413
1.64743
1.22035
1.14416
1.28214
1.6317
1.36285
1.02329
1.07398
1.16213
1.31909
1.6549
2.03695
2.00041
1.99623
1.99414
2.11517
2.12407
2.10966
2.14654
2.01167
1.85813
1.90081
2.24572
1.78995
1.60628
1.55814
1.51128
1.70487
1.97172
1.60909
1.50439
1.72441
1.98318
1.79567
1.7521
1.50326
1.3006
1.35382
1.72146
1.48815
1.33015
1.431
1.34867
1.439
1.41704
1.54713
1.01763
1.05454
1.12681
1.26988
1.60025
1.64126
1.74202
1.76543
1.80633
2.00752
2.07381
2.04312
2.05291
1.95951
1.97601
2.20349
1.86642
1.75175
1.76025
1.71058
1.74503
1.99588
1.69236
1.52827
1.7324
1.91038
1.64421
1.60841
1.70491
1.5125
1.44167
1.54568
1.7026
1.44813
1.33538
1.33581
1.47031
1.21396
1.20726
1.6877
1.02611
1.07553
1.1719
1.25928
1.46045
1.61548
2.06683
2.15644
2.17322
2.00047
1.99884
2.14166
2.195
2.27592
2.13538
1.87164
1.84813
2.01672
2.12284
1.93155
1.77665
1.67497
1.66826
1.87592
1.7162
1.447
1.49676
1.62551
1.61179
1.49109
1.56733
1.73796
1.58048
1.35166
1.28124
1.45443
1.34993
1.20713
1.23039
1.69229
1.02818
1.10131
1.26306
1.6147
1.64165
1.74573
2.04206
2.04065
2.17419
2.12148
2.0985
2.15802
2.30405
2.38317
1.98777
1.90548
2.04976
2.33281
2.29781
1.79235
1.67258
1.6139
1.76224
1.91572
1.43363
1.29135
1.32036
1.48995
1.4853
1.47217
1.65989
1.65857
1.41597
1.34445
1.41958
1.41435
1.21863
1.21818
1.34155
1.60159
0.999224
0.996292
0.989324
0.975139
0.945721
0.922815
0.920938
0.927062
0.962141
1.02273
1.22596
2.1648
2.32112
2.25299
2.09447
2.19408
2.32374
2.1668
1.99815
1.91735
1.86346
1.8674
1.8753
2.00052
1.91305
1.64371
1.61652
1.62159
1.48691
1.45419
1.56971
1.42076
1.36871
1.55174
1.59899
1.42514
1.21562
1.2544
1.52796
1.33329
1.0002
1.00056
1.00131
1.0024
1.00427
1.0065
1.00853
1.00494
0.996898
0.978045
0.956996
0.932255
0.928547
0.91589
0.906769
0.905458
0.924241
0.913788
0.913883
0.935868
0.937256
0.934689
0.976609
0.960055
0.973712
1.13709
1.24637
1.51764
1.46643
1.4999
1.34936
1.34972
1.44847
1.51313
1.39153
1.44085
1.56499
1.53838
1.57584
1.27882
1.00002
1.00006
1.00014
1.00026
1.00051
1.00099
1.00194
1.00373
1.00702
1.01275
1.013
1.02026
1.02382
1.02373
1.03467
1.0384
1.03528
1.0405
1.04038
1.03721
1.03376
1.04086
1.05498
1.05128
1.05001
1.1668
1.23759
1.38472
1.37428
1.26269
1.28232
1.39552
1.46252
1.28461
1.27953
1.31006
1.44581
1.56126
1.43703
1.49537
1
1.00001
1.00002
1.00005
1.00012
1.00026
1.00056
1.00118
1.00245
1.00502
1.0101
1.01924
1.0339
1.05469
1.058
1.05868
1.06018
1.06321
1.06765
1.07418
1.0823
1.09272
1.11352
1.13876
1.1581
1.20453
1.27264
1.26266
1.28851
1.39319
1.51772
1.45243
1.25201
1.28068
1.3062
1.36378
1.34112
1.20535
1.22966
1.71335
1
1
1
1.00001
1.00001
1.00003
1.00006
1.00012
1.00024
1.00049
1.00105
1.00229
1.0051
1.01128
1.02339
1.0259
1.02631
1.02698
1.02808
1.03017
1.03405
1.04085
1.04945
1.0595
1.07364
1.09592
1.14064
1.22789
1.34253
1.38878
1.37282
1.28235
1.33899
1.42309
1.40186
1.29128
1.30865
1.40058
1.40755
1.22157
1
1
1
1
1
1
1.00001
1.00001
1.00003
1.00005
1.0001
1.00019
1.00038
1.00074
1.00136
1.00176
1.00194
1.00204
1.00216
1.00242
1.00299
1.00421
1.00676
1.01209
1.02307
1.04514
1.08861
1.16622
1.16206
1.1649
1.18106
1.22331
1.30517
1.3142
1.31093
1.35111
1.34902
1.27023
1.20677
1.32557
1
1
1
1
1
1
1
1
1
1.00001
1.00001
1.00002
1.00004
1.00008
1.00015
1.00022
1.00028
1.00035
1.00046
1.00067
1.0011
1.00195
1.00358
1.00682
1.01365
1.02786
1.05805
1.12088
1.18639
1.22056
1.26165
1.2673
1.26675
1.23722
1.2476
1.31116
1.30092
1.29809
1.25648
1.1443
1
1
1
1
1
1
1
1
1
1
1
1
1.00001
1.00001
1.00002
1.00004
1.00007
1.00013
1.00022
1.0004
1.00076
1.00143
1.00271
1.00522
1.00991
1.01932
1.03854
1.08336
1.18027
1.18104
1.19718
1.18964
1.18138
1.18069
1.18373
1.17953
1.15472
1.16727
1.18853
1.12781
1
1
1
1
1
1
1
1
1
1
1
1
1
1.00001
1.00001
1.00002
1.00004
1.00008
1.00016
1.00031
1.0006
1.00116
1.00223
1.00429
1.00822
1.01613
1.03147
1.06218
1.10438
1.18658
1.22432
1.22032
1.2159
1.21883
1.20726
1.17706
1.18054
1.16935
1.2154
1.33734
1
1
1
1
1
1
1
1
1
1
1
1
1
1
1
1.00001
1.00002
1.00004
1.00008
1.00017
1.00034
1.00066
1.00129
1.00251
1.00499
1.01002
1.02026
1.04054
1.08109
1.12841
1.16965
1.1937
1.22366
1.25704
1.27595
1.32876
1.33463
1.30981
1.29976
1.4117
1
1
1
1
1
1
1
1
1
1
1
1
1
1
1
1
1.00001
1.00001
1.00003
1.00006
1.00012
1.00025
1.00051
1.00104
1.00218
1.00466
1.01014
1.02183
1.04572
1.09385
1.13834
1.13453
1.14078
1.16068
1.18312
1.19886
1.18268
1.22659
1.25378
1.19018
1
1
1
1
1
1
1
1
1
1
1
1
1
1
1
1
1
1
1.00001
1.00002
1.00003
1.00006
1.00012
1.00025
1.00051
1.00104
1.00212
1.00455
1.01053
1.02624
1.06702
1.14409
1.18166
1.18014
1.18533
1.1996
1.21049
1.2086
1.18753
1.17922
1
1
1
1
1
1
1
1
1
1
1
1
1
1
1
1
1
1
1
1.00001
1.00001
1.00003
1.00005
1.0001
1.0002
1.0004
1.00079
1.00156
1.00312
1.00614
1.01212
1.02404
1.04851
1.10014
1.1906
1.19722
1.19466
1.17702
1.18346
1.18269
)
;

boundaryField
{
    inlet
    {
        type            fixedValue;
        value           uniform 1;
    }
    outlet
    {
        type            waveTransmissive;
        gamma           1.4;
        fieldInf        1;
        lInf            3;
        value           nonuniform List<scalar> 
40
(
1.21543
1.24671
1.21583
1.20118
1.2461
1.17469
1.31859
1.41164
1.14778
1.15337
1.11331
1.13973
1.21527
1.38832
1.38313
1.45062
1.42628
1.37614
1.37286
1.41671
1.43821
1.40057
1.42481
1.44429
1.46606
1.45151
1.41219
1.38718
1.41893
1.44258
1.34578
1.3013
1.26535
1.22815
1.25444
1.29683
1.20852
1.22118
1.19362
1.1727
)
;
    }
    top
    {
        type            symmetryPlane;
    }
    bottom
    {
        type            symmetryPlane;
    }
    step
    {
        type            zeroGradient;
    }
    defaultFaces
    {
        type            empty;
    }
}


// ************************************************************************* //
