/*--------------------------------*- C++ -*----------------------------------*\
  =========                 |
  \\      /  F ield         | OpenFOAM: The Open Source CFD Toolbox
   \\    /   O peration     | Website:  https://openfoam.org
    \\  /    A nd           | Version:  6.0
     \\/     M anipulation  |
\*---------------------------------------------------------------------------*/
FoamFile
{
    version     2.0;
    format      ascii;
    class       surfaceScalarField;
    location    "0.5";
    object      phi;
}
// * * * * * * * * * * * * * * * * * * * * * * * * * * * * * * * * * * * * * //

dimensions      [1 0 -1 0 0 0 0];

internalField   nonuniform List<scalar> 
9440
(
0.00209995
2.94213e-16
0.00209995
2.73802e-15
0.00209995
1.27068e-14
0.00209995
4.32225e-14
0.00209995
1.22637e-13
0.00209995
3.1129e-13
0.00209995
7.32806e-13
0.00209995
1.6306e-12
0.00209995
3.46682e-12
0.00209995
7.09053e-12
0.00209995
1.40151e-11
0.00209995
2.68627e-11
0.00209995
5.00607e-11
0.00209995
9.09185e-11
0.00209995
1.61307e-10
0.00209996
2.80349e-10
0.00209996
4.78936e-10
0.00209996
8.07596e-10
0.00209997
1.35033e-09
0.00209998
2.24818e-09
0.00209999
3.73607e-09
0.00210003
6.19237e-09
0.00210009
1.01862e-08
0.00210022
1.64749e-08
0.00210046
2.58801e-08
0.00210091
3.93511e-08
0.00210157
6.19036e-08
0.00210203
1.31986e-07
0.00210043
5.82684e-07
0.00208614
-1.69353e-06
0.00230755
-0.000184059
0.00229483
-0.000978807
0.00257331
-0.000865379
0.00286401
-0.000285975
0.00434537
-0.000900852
0.00462658
0.000936486
0.00426141
-0.00139343
0.00159258
0.00542975
0.000559199
0.000790143
-5.80616e-05
0.00209995
4.86577e-16
0.00209995
4.35436e-15
0.00209995
1.93227e-14
0.00209995
6.15633e-14
0.00209995
1.66108e-13
0.00209995
4.09938e-13
0.00209995
9.59517e-13
0.00209995
2.16561e-12
0.00209995
4.74739e-12
0.00209995
1.01412e-11
0.00209995
2.11474e-11
0.00209995
4.31063e-11
0.00209995
8.59962e-11
0.00209995
1.681e-10
0.00209995
3.22272e-10
0.00209995
6.06351e-10
0.00209996
1.11988e-09
0.00209996
2.0298e-09
0.00209997
3.6072e-09
0.00209998
6.27389e-09
0.0021
1.06437e-08
0.00210004
1.75018e-08
0.00210011
2.75426e-08
0.00210025
4.03639e-08
0.00210048
5.14238e-08
0.00210084
4.38946e-08
0.00210128
-3.14548e-08
0.00210144
-3.09385e-07
0.0021
-1.14405e-06
0.00209711
-8.14644e-06
0.0020993
-0.000199617
0.00351659
-0.00332022
0.00241122
-0.000315545
0.0045809
-0.00236555
0.00582704
-0.0015087
0.00274619
0.00537062
5.87888e-05
0.00226959
0.00139552
-0.000323106
0.00166633
-0.000174751
0.000303727
0.00209995
1.39096e-15
0.00209995
9.43598e-15
0.00209995
3.38217e-14
0.00209995
9.2746e-14
0.00209995
2.22404e-13
0.00209995
4.9816e-13
0.00209995
1.07997e-12
0.00209995
2.3089e-12
0.00209995
4.91047e-12
0.00209995
1.04181e-11
0.00209995
2.20432e-11
0.00209995
4.64357e-11
0.00209995
9.71969e-11
0.00209995
2.01787e-10
0.00209995
4.1493e-10
0.00209995
8.4429e-10
0.00209995
1.69903e-09
0.00209995
3.38041e-09
0.00209996
6.64781e-09
0.00209996
1.29158e-08
0.00209997
2.47669e-08
0.00209999
4.67942e-08
0.00210002
8.69131e-08
0.00210005
1.58376e-07
0.00210002
2.83353e-07
0.00209972
5.02078e-07
0.00209848
9.04894e-07
0.00209449
1.75539e-06
0.00208319
3.95396e-06
0.00205904
8.56167e-06
0.00192964
-0.000128181
-0.00357916
0.0015716
0.00362608
-0.00803944
0.00579527
-0.0048006
0.00880732
-0.0040499
0.00248168
0.0126409
-6.97984e-05
0.00553382
0.00105404
-0.00158742
0.000507685
-0.00059507
-0.000229287
0.00209995
2.24343e-15
0.00209995
1.4244e-14
0.00209995
4.80079e-14
0.00209995
1.26712e-13
0.00209995
2.95424e-13
0.00209995
6.44599e-13
0.00209995
1.35883e-12
0.00209995
2.81764e-12
0.00209995
5.80458e-12
0.00209995
1.1942e-11
0.00209995
2.45949e-11
0.00209995
5.07473e-11
0.00209995
1.04891e-10
0.00209995
2.17074e-10
0.00209995
4.49519e-10
0.00209995
9.3088e-10
0.00209995
1.92657e-09
0.00209995
3.98249e-09
0.00209995
8.21736e-09
0.00209994
1.69157e-08
0.00209992
3.47349e-08
0.00209988
7.11921e-08
0.00209979
1.45893e-07
0.00209958
2.99833e-07
0.0020991
6.20923e-07
0.0020981
1.30659e-06
0.00209595
2.83965e-06
0.00209101
6.57191e-06
0.00207762
1.72919e-05
0.0020443
4.82787e-05
0.00186886
-1.05649e-05
0.00892945
-0.00534565
-0.00321383
0.00385575
-0.00248837
-0.00525052
-3.13125e-05
-0.00562628
0.00177764
0.0115762
0.0125267
-0.00316696
0.000634347
0.0107996
-0.00217439
0.000974925
-0.00127738
0.00209995
2.43763e-15
0.00209995
1.56018e-14
0.00209995
5.30794e-14
0.00209995
1.41945e-13
0.00209995
3.36069e-13
0.00209995
7.44228e-13
0.00209995
1.58661e-12
0.00209995
3.30717e-12
0.00209995
6.79714e-12
0.00209995
1.38417e-11
0.00209995
2.80188e-11
0.00209995
5.65249e-11
0.00209995
1.13928e-10
0.00209995
2.29966e-10
0.00209995
4.65914e-10
0.00209995
9.49037e-10
0.00209995
1.94505e-09
0.00209995
4.00936e-09
0.00209995
8.29917e-09
0.00209994
1.72087e-08
0.00209992
3.56432e-08
0.00209989
7.35429e-08
0.0020998
1.50875e-07
0.00209961
3.07706e-07
0.00209919
6.25641e-07
0.00209827
1.27772e-06
0.00209646
2.65919e-06
0.0020937
5.77251e-06
0.00209201
1.35792e-05
0.00211064
3.34503e-05
0.00136873
0.000662538
0.0053428
-0.00870405
0.0168109
-0.00757383
0.00510983
0.00579047
-0.00702329
0.00598123
0.000450288
0.00431977
-0.00477469
0.00216848
0.00134554
0.00490654
0.000303273
0.00189517
-0.000971154
0.00209995
2.71868e-15
0.00209995
1.72817e-14
0.00209995
5.82475e-14
0.00209995
1.54414e-13
0.00209995
3.63708e-13
0.00209995
8.03445e-13
0.00209995
1.71057e-12
0.00209995
3.55991e-12
0.00209995
7.29604e-12
0.00209995
1.47908e-11
0.00209995
2.97572e-11
0.00209995
5.96014e-11
0.00209995
1.19238e-10
0.00209995
2.3907e-10
0.00209995
4.81911e-10
0.00209995
9.79293e-10
0.00209995
2.00995e-09
0.00209995
4.16969e-09
0.00209995
8.73669e-09
0.00209995
1.84452e-08
0.00209992
3.90884e-08
0.00209986
8.27553e-08
0.0020997
1.74223e-07
0.00209933
3.63534e-07
0.00209849
7.51748e-07
0.0020967
1.5496e-06
0.00209305
3.23345e-06
0.00208635
7.02801e-06
0.00207579
1.62901e-05
0.00205987
5.16703e-05
0.00139709
0.00129331
-0.00414772
-0.00217681
-0.010292
0.000318129
-0.00468745
0.00277418
0.00400146
8.09902e-05
0.00810574
0.000351695
0.00538052
0.0059735
5.87442e-06
0.00731091
-2.32086e-05
0.000184322
-0.00162331
0.00209995
3.74828e-15
0.00209995
2.26227e-14
0.00209995
7.19196e-14
0.00209995
1.81269e-13
0.00209995
4.09873e-13
0.00209995
8.7809e-13
0.00209995
1.83353e-12
0.00209995
3.78802e-12
0.00209995
7.79919e-12
0.00209995
1.60443e-11
0.00209995
3.29806e-11
0.00209995
6.76787e-11
0.00209995
1.38511e-10
0.00209995
2.82592e-10
0.00209995
5.74884e-10
0.00209995
1.16721e-09
0.00209996
2.36885e-09
0.00209996
4.8156e-09
0.00209996
9.83188e-09
0.00209997
2.02241e-08
0.00209995
4.20558e-08
0.00209989
8.86837e-08
0.00209966
1.90013e-07
0.00209904
4.13848e-07
0.00209754
9.1597e-07
0.00209441
2.06423e-06
0.00208851
4.77938e-06
0.00207809
1.16427e-05
0.00205784
3.12202e-05
0.00201268
0.000105333
0.00262031
0.0006814
0.000734189
0.000816107
0.000511808
0.00109372
0.00160937
0.00272754
0.00170024
0.00184879
0.000754111
0.0011387
-0.000177762
0.00648183
0.00162969
0.00424347
-0.000106806
0.000353639
-0.00409883
0.00209995
4.93427e-15
0.00209995
2.88168e-14
0.00209995
8.83413e-14
0.00209995
2.16911e-13
0.00209995
4.81891e-13
0.00209995
1.01945e-12
0.00209995
2.10671e-12
0.00209995
4.31189e-12
0.00209995
8.80719e-12
0.00209995
1.80208e-11
0.00209995
3.69906e-11
0.00209995
7.61617e-11
0.00209995
1.57129e-10
0.00209995
3.24369e-10
0.00209995
6.69069e-10
0.00209995
1.37743e-09
0.00209996
2.82862e-09
0.00209996
5.79427e-09
0.00209997
1.18486e-08
0.00209998
2.42232e-08
0.0021
4.96199e-08
0.00210003
1.02142e-07
0.00210002
2.12035e-07
0.00209984
4.45683e-07
0.00209916
9.53159e-07
0.00209724
2.0878e-06
0.00209265
4.73424e-06
0.0020835
1.13291e-05
0.00206935
2.94855e-05
0.00206376
9.685e-05
0.00227866
0.000435533
0.00218384
0.0019873
0.00228467
0.00101445
0.00288173
0.0025555
0.00323976
0.00247474
0.00203282
0.00255904
0.00367951
0.00388277
0.0042858
0.00383225
-0.000145961
0.00411768
-0.000445685
0.00209995
5.52308e-15
0.00209995
3.15397e-14
0.00209995
9.41735e-14
0.00209995
2.27093e-13
0.00209995
4.99178e-13
0.00209995
1.05021e-12
0.00209995
2.16563e-12
0.00209995
4.43551e-12
0.00209995
9.0935e-12
0.00209995
1.8736e-11
0.00209995
3.88321e-11
0.00209995
8.08551e-11
0.00209995
1.68707e-10
0.00209995
3.51811e-10
0.00209995
7.31693e-10
0.00209995
1.51597e-09
0.00209996
3.12818e-09
0.00209996
6.43148e-09
0.00209997
1.31851e-08
0.00209998
2.69783e-08
0.00210002
5.51509e-08
0.00210008
1.12791e-07
0.00210019
2.31226e-07
0.00210032
4.76696e-07
0.00210038
9.93532e-07
0.00210001
2.11167e-06
0.00209826
4.64145e-06
0.00209341
1.0786e-05
0.00208404
2.72953e-05
0.00208385
8.44435e-05
0.00217359
0.000324045
0.00281961
0.00239651
0.0017549
0.00190648
0.00198004
0.00295088
0.00183878
0.00307295
0.002946
0.00126471
0.00251908
0.00398062
0.00289263
0.00227484
0.00105021
0.00527399
0.000172336
0.00209995
5.10709e-15
0.00209995
2.87301e-14
0.00209995
8.46334e-14
0.00209995
2.03754e-13
0.00209995
4.5117e-13
0.00209995
9.59204e-13
0.00209995
1.99469e-12
0.00209995
4.09838e-12
0.00209995
8.37885e-12
0.00209995
1.7141e-11
0.00209995
3.52383e-11
0.00209995
7.2977e-11
0.00209995
1.52303e-10
0.00209995
3.19817e-10
0.00209995
6.73782e-10
0.00209995
1.41949e-09
0.00209995
2.98171e-09
0.00209996
6.23182e-09
0.00209996
1.29459e-08
0.00209998
2.67292e-08
0.00210001
5.48914e-08
0.00210007
1.12275e-07
0.0021002
2.2918e-07
0.00210044
4.68184e-07
0.00210085
9.61431e-07
0.00210148
1.99966e-06
0.00210224
4.26838e-06
0.00210254
9.56228e-06
0.00210092
2.32006e-05
0.00210184
6.77311e-05
0.0021312
0.000244485
0.00199697
0.00200824
0.00151916
0.00255152
0.00194163
0.0028064
-0.000724664
0.00589664
0.00269057
-0.00237202
0.000966941
0.00385785
0.000781489
0.00138251
0.00407721
0.00257277
0.00106014
0.00209995
4.25996e-15
0.00209995
2.34385e-14
0.00209995
6.7914e-14
0.00209995
1.64566e-13
0.00209995
3.72159e-13
0.00209995
8.13222e-13
0.00209995
1.7385e-12
0.00209995
3.65657e-12
0.00209995
7.59559e-12
0.00209995
1.56385e-11
0.00209995
3.20365e-11
0.00209995
6.5566e-11
0.00209995
1.34576e-10
0.00209995
2.77841e-10
0.00209995
5.77794e-10
0.00209995
1.20983e-09
0.00209995
2.54564e-09
0.00209996
5.36712e-09
0.00209996
1.13039e-08
0.00209997
2.37186e-08
0.00209998
4.94843e-08
0.00210002
1.02544e-07
0.00210009
2.11089e-07
0.00210024
4.32397e-07
0.00210055
8.85026e-07
0.00210113
1.82445e-06
0.0021022
3.8409e-06
0.0021041
8.44675e-06
0.00210743
2.00159e-05
0.00211552
5.58e-05
0.00215174
0.00018744
0.00180941
0.00159754
0.00157038
0.0026137
0.00181366
0.00296525
0.00425273
0.00380718
-0.000677451
0.00260807
0.000318968
0.00259115
0.000724775
0.00124679
0.00229581
0.0024014
-0.00652368
0.00209995
2.01388e-15
0.00209995
1.11705e-14
0.00209995
3.34505e-14
0.00209995
8.73225e-14
0.00209995
2.16699e-13
0.00209995
5.20001e-13
0.00209995
1.21238e-12
0.00209995
2.75604e-12
0.00209995
6.12799e-12
0.00209995
1.33613e-11
0.00209995
2.86298e-11
0.00209995
6.04194e-11
0.00209995
1.25906e-10
0.00209995
2.59876e-10
0.00209995
5.33129e-10
0.00209995
1.09074e-09
0.00209996
2.232e-09
0.00209996
4.57754e-09
0.00209996
9.41886e-09
0.00209996
1.94496e-08
0.00209996
4.02953e-08
0.00209996
8.37125e-08
0.00209994
1.74262e-07
0.0020999
3.63266e-07
0.00209986
7.58545e-07
0.00209993
1.59145e-06
0.00210045
3.38473e-06
0.0021022
7.43646e-06
0.00210677
1.73936e-05
0.00211674
4.66021e-05
0.00215815
0.000144971
0.00176361
0.00176307
0.00157459
0.00262329
0.00127238
0.00301002
0.000728753
0.00469265
0.00147025
0.00184302
0.000514832
0.00325936
-0.000679121
0.0015036
0.00252949
0.0035286
-0.00085012
0.00209995
1.98317e-16
0.00209995
1.25845e-15
0.00209995
5.65616e-15
0.00209995
2.42722e-14
0.00209995
8.57098e-14
0.00209995
2.58608e-13
0.00209995
7.01824e-13
0.00209995
1.77483e-12
0.00209995
4.27541e-12
0.00209995
9.9404e-12
0.00209995
2.24776e-11
0.00209995
4.96476e-11
0.00209995
1.07385e-10
0.00209995
2.27853e-10
0.00209995
4.75127e-10
0.00209995
9.75901e-10
0.00209995
1.98046e-09
0.00209996
3.98582e-09
0.00209996
7.98845e-09
0.00209996
1.60106e-08
0.00209997
3.22106e-08
0.00209996
6.52624e-08
0.00209993
1.33546e-07
0.00209982
2.76703e-07
0.00209954
5.81993e-07
0.00209893
1.24652e-06
0.00209799
2.73343e-06
0.00209745
6.20546e-06
0.00210008
1.48846e-05
0.00210907
3.95596e-05
0.00215193
0.000113135
0.00203605
0.00199182
0.00163743
0.00283709
0.000883933
0.00339469
0.000803361
0.00498044
0.000668328
0.00260161
0.000468922
0.00274042
-0.00391102
0.00639341
-0.000210557
-0.00124563
-0.000302164
0.00209995
-9.85971e-16
0.00209995
-5.12102e-15
0.00209995
-1.20631e-14
0.00209995
-1.64594e-14
0.00209995
-1.98844e-15
0.00209995
7.3737e-14
0.00209995
3.14013e-13
0.00209995
9.60629e-13
0.00209995
2.56319e-12
0.00209995
6.345e-12
0.00209995
1.49872e-11
0.00209995
3.429e-11
0.00209995
7.66371e-11
0.00209995
1.6807e-10
0.00209995
3.62423e-10
0.00209995
7.69e-10
0.00209995
1.60601e-09
0.00209995
3.30343e-09
0.00209995
6.70273e-09
0.00209995
1.34523e-08
0.00209995
2.68086e-08
0.00209995
5.33019e-08
0.00209996
1.06291e-07
0.00209996
2.13822e-07
0.00209989
4.36849e-07
0.00209957
9.14361e-07
0.00209853
1.98479e-06
0.002096
4.54583e-06
0.00209245
1.12452e-05
0.00209016
3.09113e-05
0.00213069
8.80505e-05
0.00224821
0.00264532
0.00168834
0.00310427
0.0011742
0.00379027
0.00152801
0.00454145
0.000552934
0.00367662
0.000316967
0.00280233
-0.00260283
0.0105444
-0.00112241
-0.000520455
-0.0038228
0.00209995
-1.66671e-15
0.00209995
-8.73252e-15
0.00209995
-2.23626e-14
0.00209995
-4.315e-14
0.00209995
-6.94751e-14
0.00209995
-9.14335e-14
0.00209995
-7.3395e-14
0.00209995
8.92752e-14
0.00209995
6.70343e-13
0.00209995
2.33639e-12
0.00209995
6.63777e-12
0.00209995
1.70769e-11
0.00209995
4.14207e-11
0.00209995
9.66796e-11
0.00209995
2.19718e-10
0.00209995
4.89498e-10
0.00209995
1.07273e-09
0.00209995
2.31529e-09
0.00209994
4.92123e-09
0.00209993
1.02986e-08
0.00209991
2.12266e-08
0.0020999
4.31644e-08
0.00209989
8.68931e-08
0.0020999
1.74068e-07
0.00209998
3.49523e-07
0.00210018
7.10656e-07
0.00210046
1.48528e-06
0.00210039
3.26484e-06
0.00209878
7.80435e-06
0.00208931
2.09023e-05
0.00210137
5.70465e-05
0.00195362
0.00273478
0.0018003
0.0032649
0.00143821
0.00415418
0.00162416
0.00438646
0.000573944
0.00410985
-0.00069401
0.00511484
-1.39197e-05
0.00763903
0.000619694
0.00268781
-0.00326888
0.00209995
-1.391e-15
0.00209995
-7.13725e-15
0.00209995
-1.80946e-14
0.00209995
-3.70951e-14
0.00209995
-7.14571e-14
0.00209995
-1.36433e-13
0.00209995
-2.58398e-13
0.00209995
-4.74062e-13
0.00209995
-8.14148e-13
0.00209995
-1.24044e-12
0.00209995
-1.46001e-12
0.00209995
-4.38535e-13
0.00209995
4.79277e-12
0.00209995
2.19438e-11
0.00209995
6.98901e-11
0.00209995
1.93089e-10
0.00209995
4.93355e-10
0.00209994
1.19856e-09
0.00209993
2.80778e-09
0.00209991
6.39001e-09
0.00209988
1.41821e-08
0.00209983
3.07602e-08
0.00209975
6.53191e-08
0.00209967
1.36203e-07
0.00209963
2.80426e-07
0.00209974
5.75507e-07
0.00210024
1.19565e-06
0.00210143
2.57639e-06
0.00210377
5.97419e-06
0.00210097
1.51906e-05
0.00211686
3.2171e-05
0.00185415
0.00239306
0.00179849
0.00341685
0.00154755
0.00469163
0.00131054
0.00495854
0.000961903
0.00370634
-0.000421551
0.00730258
-0.000968885
0.00806079
-0.00059173
-0.000984409
-0.00278405
0.00209995
-8.01308e-16
0.00209995
-3.69264e-15
0.00209995
-7.91306e-15
0.00209995
-1.48617e-14
0.00209995
-3.18793e-14
0.00209995
-7.92195e-14
0.00209995
-2.03039e-13
0.00209995
-4.9926e-13
0.00209995
-1.15482e-12
0.00209995
-2.51272e-12
0.00209995
-5.16034e-12
0.00209995
-1.00121e-11
0.00209995
-1.82703e-11
0.00209995
-3.09104e-11
0.00209995
-4.67325e-11
0.00209995
-5.65608e-11
0.00209995
-2.77867e-11
0.00209995
1.34142e-10
0.00209994
6.77197e-10
0.00209992
2.21193e-09
0.00209987
6.17406e-09
0.0020998
1.5815e-08
0.00209966
3.82555e-08
0.00209944
8.86292e-08
0.00209915
1.98396e-07
0.00209884
4.3287e-07
0.00209875
9.33455e-07
0.0020993
2.04031e-06
0.00210157
4.72156e-06
0.00210012
1.17571e-05
0.00212342
1.91683e-05
0.00202896
0.00253622
0.00172732
0.00375635
0.00131776
0.00551522
0.00100255
0.00593101
0.00186399
0.00252807
0.000271579
0.00687163
0.000447417
0.00783133
-0.000292684
-0.00279481
-0.00339044
0.00209995
-4.87942e-16
0.00209995
-1.5944e-15
0.00209995
-7.8705e-16
0.00209995
2.9281e-15
0.00209995
5.85427e-15
0.00209995
-6.23773e-15
0.00209995
-7.06267e-14
0.00209995
-2.73827e-13
0.00209995
-8.03754e-13
0.00209995
-2.04953e-12
0.00209995
-4.78605e-12
0.00209995
-1.05041e-11
0.00209995
-2.19783e-11
0.00209995
-4.4186e-11
0.00209995
-8.5631e-11
0.00209995
-1.59762e-10
0.00209995
-2.84933e-10
0.00209995
-4.77896e-10
0.00209994
-7.27238e-10
0.00209993
-9.13526e-10
0.0020999
-5.994e-10
0.00209983
1.48322e-09
0.00209969
8.63938e-09
0.00209942
2.90094e-08
0.00209891
8.20734e-08
0.00209805
2.14027e-07
0.00209682
5.35911e-07
0.00209562
1.32888e-06
0.0020961
3.3956e-06
0.00209372
8.88844e-06
0.00211748
9.58487e-06
0.00208244
0.00277381
0.00162763
0.00427188
0.00131713
0.0061767
0.00119507
0.00675699
0.00190271
0.00125928
0.000766199
0.00635606
0.00288508
0.00493182
0.000267498
-0.000820406
-0.00353821
0.00209995
-6.07155e-16
0.00209995
-1.64273e-15
0.00209995
1.14408e-15
0.00209995
1.13847e-14
0.00209995
3.11612e-14
0.00209995
5.92239e-14
0.00209995
8.49371e-14
0.00209995
7.24055e-14
0.00209995
-7.63346e-14
0.00209995
-6.01294e-13
0.00209995
-2.05057e-12
0.00209995
-5.61398e-12
0.00209995
-1.37805e-11
0.00209995
-3.16198e-11
0.00209995
-6.92573e-11
0.00209995
-1.46565e-10
0.00209996
-3.017e-10
0.00209996
-6.05585e-10
0.00209995
-1.18361e-09
0.00209995
-2.24123e-09
0.00209993
-4.07674e-09
0.00209989
-7.03245e-09
0.0020998
-1.12648e-08
0.00209959
-1.60385e-08
0.00209918
-1.77257e-08
0.00209836
-3.86096e-09
0.00209681
6.63767e-08
0.00209398
3.33005e-07
0.00209022
1.32065e-06
0.00208224
4.61974e-06
0.00210714
1.70405e-06
0.00210524
0.00327683
0.0015188
0.00490052
0.00150595
0.00680552
-0.000554136
0.00944302
0.0014115
-0.000361678
0.00066871
0.0067308
0.00438107
0.00110494
-0.000538401
0.00491652
-0.00361892
0.00209995
-6.58727e-16
0.00209995
-1.32661e-15
0.00209995
4.09384e-15
0.00209995
2.25372e-14
0.00209995
6.41674e-14
0.00209995
1.45814e-13
0.00209995
2.93657e-13
0.00209995
5.42323e-13
0.00209995
9.22821e-13
0.00209995
1.42111e-12
0.00209995
1.86797e-12
0.00209995
1.68009e-12
0.00209995
-7.05773e-13
0.00209995
-9.02179e-12
0.00209995
-3.16291e-11
0.00209996
-8.6601e-11
0.00209996
-2.1222e-10
0.00209996
-4.88402e-10
0.00209996
-1.07923e-09
0.00209996
-2.31407e-09
0.00209996
-4.83491e-09
0.00209995
-9.85243e-09
0.00209991
-1.95785e-08
0.00209979
-3.79544e-08
0.00209953
-7.18804e-08
0.002099
-1.33129e-07
0.00209804
-2.39737e-07
0.00209632
-4.05275e-07
0.00209328
-5.37723e-07
0.00208148
-3.60289e-07
0.00208959
-1.25098e-05
0.0019399
0.00350113
0.00158261
0.00550853
0.000701616
0.0081438
-0.00378734
0.0145417
-0.0017921
-0.000747589
0.000590328
0.00348811
0.00426766
0.000123792
0.00356589
0.0060055
0.000935471
0.00209995
-3.85764e-17
0.00209995
2.22059e-15
0.00209995
1.45492e-14
0.00209995
4.71998e-14
0.00209995
1.1885e-13
0.00209995
2.65388e-13
0.00209995
5.52219e-13
0.00209995
1.09043e-12
0.00209995
2.05363e-12
0.00209995
3.6832e-12
0.00209995
6.24974e-12
0.00209995
9.8977e-12
0.00209995
1.42201e-11
0.00209995
1.72512e-11
0.00209995
1.32333e-11
0.00209996
-1.22325e-11
0.00209996
-9.27232e-11
0.00209996
-3.03931e-10
0.00209996
-8.12971e-10
0.00209997
-1.98119e-09
0.00209998
-4.56984e-09
0.00209999
-1.01345e-08
0.0021
-2.1761e-08
0.00209997
-4.54391e-08
0.00209985
-9.27032e-08
0.00209953
-1.85878e-07
0.00209892
-3.68287e-07
0.00209798
-7.20661e-07
0.00209722
-1.35953e-06
0.00209167
-2.91097e-06
0.0021044
-2.5715e-05
0.00187803
0.00329032
0.00193629
0.00572687
0.00178132
0.00726923
0.00564686
0.0105312
0.00021668
0.00472871
0.00277545
0.00186357
-0.00235092
0.00610068
0.00430845
6.24144e-05
0.00756166
0.00209995
1.51167e-15
0.00209995
1.01814e-14
0.00209995
3.48754e-14
0.00209995
8.84721e-14
0.00209995
1.9604e-13
0.00209995
4.07427e-13
0.00209995
8.18644e-13
0.00209995
1.60662e-12
0.00209995
3.08004e-12
0.00209995
5.74244e-12
0.00209995
1.03489e-11
0.00209995
1.79035e-11
0.00209995
2.94776e-11
0.00209995
4.5593e-11
0.00209995
6.46387e-11
0.00209996
7.91523e-11
0.00209996
6.72036e-11
0.00209996
-2.78909e-11
0.00209997
-3.4558e-10
0.00209998
-1.21907e-09
0.0021
-3.41939e-09
0.00210003
-8.65765e-09
0.00210008
-2.05501e-08
0.00210014
-4.63702e-08
0.00210017
-1.00148e-07
0.00210007
-2.08248e-07
0.00209971
-4.19689e-07
0.002099
-8.24045e-07
0.00209855
-1.56222e-06
0.00209536
-3.50528e-06
0.00211618
-3.0287e-05
0.00211777
0.00347088
0.00196428
0.00573121
0.00211211
0.0069855
0.00294312
0.00973927
0.000226034
0.00650152
0.00111642
0.00232788
0.0058658
0.000107745
0.000353693
0.00414728
0.00924784
0.00209995
3.7745e-15
0.00209995
2.14257e-14
0.00209995
6.23702e-14
0.00209995
1.42164e-13
0.00209995
2.9061e-13
0.00209995
5.65666e-13
0.00209995
1.08111e-12
0.00209995
2.05858e-12
0.00209995
3.91597e-12
0.00209995
7.40175e-12
0.00209995
1.37744e-11
0.00209995
2.50045e-11
0.00209995
4.39413e-11
0.00209995
7.43116e-11
0.00209995
1.2027e-10
0.00209996
1.84836e-10
0.00209996
2.65594e-10
0.00209996
3.43359e-10
0.00209997
3.52334e-10
0.00209998
1.02433e-10
0.0021
-9.14753e-10
0.00210005
-3.97911e-09
0.00210014
-1.21168e-08
0.0021003
-3.20247e-08
0.00210055
-7.75779e-08
0.00210085
-1.75828e-07
0.00210103
-3.7664e-07
0.00210075
-7.6587e-07
0.00209995
-1.46004e-06
0.00209625
-3.38633e-06
0.00211448
-3.14773e-05
0.00227086
0.00362626
0.00182848
0.00593537
0.00200236
0.00704047
0.00260392
0.00921811
0.00125006
0.00749025
0.000562404
0.00264585
-0.000243363
-9.02053e-05
0.000338239
0.00324732
0.010885
0.00209995
5.62568e-15
0.00209995
3.04975e-14
0.00209995
8.44772e-14
0.00209995
1.87147e-13
0.00209995
3.74711e-13
0.00209995
7.131e-13
0.00209995
1.32655e-12
0.00209995
2.45854e-12
0.00209995
4.59395e-12
0.00209995
8.68369e-12
0.00209995
1.65184e-11
0.00209995
3.12865e-11
0.00209995
5.83321e-11
0.00209995
1.06129e-10
0.00209995
1.87574e-10
0.00209996
3.21855e-10
0.00209996
5.37133e-10
0.00209996
8.73135e-10
0.00209997
1.37808e-09
0.00209998
2.08046e-09
0.00210001
2.88157e-09
0.00210006
3.24071e-09
0.00210016
1.3897e-09
0.00210038
-7.38283e-09
0.0021008
-3.40118e-08
0.0021015
-1.00979e-07
0.00210242
-2.48682e-07
0.0021031
-5.35672e-07
0.00210272
-9.89757e-07
0.00209834
-2.29873e-06
0.00210871
-2.79645e-05
0.00232589
0.00374236
0.00183708
0.00608694
0.00185877
0.00728607
0.00219142
0.00900738
0.00195734
0.00785919
0.000604313
0.00351495
-0.000381591
0.001058
0.000381859
0.00235233
0.0119989
0.00209995
5.55411e-15
0.00209995
2.98948e-14
0.00209995
8.29056e-14
0.00209995
1.87974e-13
0.00209995
3.89556e-13
0.00209995
7.67023e-13
0.00209995
1.46166e-12
0.00209995
2.73389e-12
0.00209995
5.09012e-12
0.00209995
9.55856e-12
0.00209995
1.82477e-11
0.00209995
3.53721e-11
0.00209995
6.89409e-11
0.00209995
1.33274e-10
0.00209995
2.52574e-10
0.00209995
4.66365e-10
0.00209996
8.3933e-10
0.00209996
1.48148e-09
0.00209997
2.58847e-09
0.00209998
4.51147e-09
0.0021
7.84805e-09
0.00210004
1.34877e-08
0.00210013
2.24224e-08
0.00210036
3.4957e-08
0.00210086
4.88714e-08
0.0021019
5.67028e-08
0.00210367
4.58601e-08
0.00210591
1.92589e-08
0.00210722
1.17275e-07
0.00210301
1.90845e-07
0.00210157
-1.91694e-05
0.00216395
0.00388051
0.00185593
0.0062047
0.00173845
0.00768959
0.00204977
0.00891071
0.00193691
0.00808327
0.000861647
0.00453349
-0.000316402
0.00242171
-0.000197119
0.00219317
0.00988228
0.00209995
3.41694e-15
0.00209995
1.87361e-14
0.00209995
5.41576e-14
0.00209995
1.31999e-13
0.00209995
2.99219e-13
0.00209995
6.46267e-13
0.00209995
1.33919e-12
0.00209995
2.67683e-12
0.00209995
5.20631e-12
0.00209995
9.9831e-12
0.00209995
1.91713e-11
0.00209995
3.73605e-11
0.00209995
7.41932e-11
0.00209995
1.49042e-10
0.00209995
2.9841e-10
0.00209995
5.86692e-10
0.00209995
1.12229e-09
0.00209996
2.08707e-09
0.00209997
3.80289e-09
0.00209998
6.8876e-09
0.00209999
1.25898e-08
0.00210002
2.34115e-08
0.00210007
4.40823e-08
0.00210021
8.28328e-08
0.00210063
1.53046e-07
0.00210169
2.77048e-07
0.00210398
5.01104e-07
0.00210791
9.57095e-07
0.00211246
2.11894e-06
0.00211143
4.89295e-06
0.00210031
-3.62819e-06
0.00194703
0.00402156
0.00191603
0.00638645
0.00164019
0.0078169
0.00196408
0.00887018
0.00195939
0.00817917
0.00115596
0.00503937
0.000756143
0.00275295
-0.000469628
0.00324826
0.0086098
0.00209995
9.31274e-16
0.00209995
5.54849e-15
0.00209995
1.85371e-14
0.00209995
5.47003e-14
0.00209995
1.50625e-13
0.00209995
3.87471e-13
0.00209995
9.3192e-13
0.00209995
2.10498e-12
0.00209995
4.49843e-12
0.00209995
9.19486e-12
0.00209995
1.82554e-11
0.00209995
3.59026e-11
0.00209995
7.13492e-11
0.00209995
1.4504e-10
0.00209995
3.00962e-10
0.00209995
6.2804e-10
0.00209995
1.29318e-09
0.00209995
2.58965e-09
0.00209996
5.01718e-09
0.00209997
9.45504e-09
0.00209999
1.75961e-08
0.00210002
3.29987e-08
0.00210004
6.33668e-08
0.00210007
1.24901e-07
0.00210022
2.49813e-07
0.00210091
4.99732e-07
0.00210304
9.97474e-07
0.00210789
2.02836e-06
0.00211559
4.42478e-06
0.00211945
1.02111e-05
0.00210529
1.32912e-05
0.00174166
0.00415236
0.00202422
0.00653155
0.00161393
0.00815501
0.00192626
0.00897981
0.00191572
0.00828547
0.00140396
0.0056444
0.000440914
0.00284252
-0.000588103
0.00422694
0.00751048
0.00209995
-1.91078e-16
0.00209995
-8.03571e-16
0.00209995
-6.19092e-16
0.00209995
6.12379e-15
0.00209995
3.8347e-14
0.00209995
1.48288e-13
0.00209995
4.65044e-13
0.00209995
1.27838e-12
0.00209995
3.18534e-12
0.00209995
7.33255e-12
0.00209995
1.58306e-11
0.00209995
3.25859e-11
0.00209995
6.53051e-11
0.00209995
1.30659e-10
0.00209995
2.66985e-10
0.00209995
5.62488e-10
0.00209995
1.21037e-09
0.00209994
2.60296e-09
0.00209994
5.47501e-09
0.00209994
1.11206e-08
0.00209996
2.17977e-08
0.00210001
4.1719e-08
0.00210006
7.96596e-08
0.00210008
1.55355e-07
0.00209998
3.13666e-07
0.00209989
6.53497e-07
0.00210064
1.38674e-06
0.00210424
2.98094e-06
0.00211295
6.64129e-06
0.00212195
1.5571e-05
0.00211162
3.19185e-05
0.00163889
0.00435683
0.00214314
0.006685
0.00167328
0.00867409
0.00189105
0.008495
0.00185119
0.00777067
0.00120665
0.00539696
0.000222626
0.00339188
-0.000605513
0.00494886
0.00652268
0.00209995
2.16702e-16
0.00209995
9.20129e-16
0.00209995
1.99506e-15
0.00209995
4.96419e-15
0.00209995
1.65094e-14
0.00209995
6.00789e-14
0.00209995
2.08316e-13
0.00209995
6.60719e-13
0.00209995
1.90851e-12
0.00209995
5.04673e-12
0.00209995
1.23057e-11
0.00209995
2.79015e-11
0.00209995
5.9481e-11
0.00209995
1.21181e-10
0.00209995
2.41595e-10
0.00209995
4.85361e-10
0.00209995
1.00742e-09
0.00209994
2.17351e-09
0.00209993
4.7918e-09
0.00209991
1.04956e-08
0.0020999
2.23046e-08
0.00209992
4.54829e-08
0.00210001
8.93257e-08
0.00210015
1.72035e-07
0.0021002
3.34395e-07
0.00209976
6.75765e-07
0.00209847
1.44478e-06
0.00209745
3.27552e-06
0.0021017
7.87064e-06
0.0021146
1.98017e-05
0.0021187
4.99339e-05
0.00176875
0.00462961
0.00227086
0.00683254
0.00172302
0.00948194
0.00180965
0.00820978
0.00177297
0.00792039
0.00108882
0.00550472
4.57177e-05
0.00419405
-0.000566557
0.00551931
0.00575292
0.00209995
8.41241e-16
0.00209995
4.25422e-15
0.00209995
1.09061e-14
0.00209995
2.31624e-14
0.00209995
4.59879e-14
0.00209995
9.17315e-14
0.00209995
1.97295e-13
0.00209995
4.7538e-13
0.00209995
1.25045e-12
0.00209995
3.37888e-12
0.00209995
8.91433e-12
0.00209995
2.23232e-11
0.00209995
5.24444e-11
0.00209995
1.1541e-10
0.00209995
2.39384e-10
0.00209995
4.75009e-10
0.00209995
9.24867e-10
0.00209995
1.8276e-09
0.00209994
3.77379e-09
0.00209991
8.18501e-09
0.00209985
1.82144e-08
0.00209978
4.01612e-08
0.00209975
8.54102e-08
0.00209986
1.73428e-07
0.00210018
3.39176e-07
0.0021005
6.57079e-07
0.00209978
1.31774e-06
0.00209596
2.8729e-06
0.00208891
7.0813e-06
0.00208987
1.99136e-05
0.00211696
6.39349e-05
0.00229787
0.00497144
0.00200568
0.00723044
0.00171499
0.00976792
0.00175652
0.00810424
0.0017319
0.00836312
0.00113342
0.00587411
0.000103308
0.00506331
-0.000373725
0.0056883
0.00522319
0.00209995
1.34061e-15
0.00209995
7.27662e-15
0.00209995
2.04822e-14
0.00209995
4.69772e-14
0.00209995
9.7483e-14
0.00209995
1.90901e-13
0.00209995
3.63125e-13
0.00209995
6.93061e-13
0.00209995
1.38276e-12
0.00209995
2.98772e-12
0.00209995
7.01174e-12
0.00209995
1.72699e-11
0.00209995
4.26259e-11
0.00209995
1.01749e-10
0.00209995
2.30192e-10
0.00209995
4.89737e-10
0.00209995
9.81982e-10
0.00209995
1.87986e-09
0.00209995
3.52735e-09
0.00209993
6.74409e-09
0.00209988
1.36309e-08
0.00209975
2.9371e-08
0.00209953
6.557e-08
0.00209927
1.45318e-07
0.0020992
3.10061e-07
0.00209964
6.32467e-07
0.00210057
1.2594e-06
0.00210049
2.58105e-06
0.00209459
5.91286e-06
0.00207706
1.63686e-05
0.00206626
6.31504e-05
0.00252775
0.00552772
0.00167539
0.00696292
0.00167426
0.00823811
0.00174947
0.00806086
0.00173591
0.00921765
0.00136402
0.00608913
0.000802786
0.00561682
0.000367315
0.00567374
0.00570626
0.00209995
1.74269e-15
0.00209995
1.00174e-14
0.00209995
3.02909e-14
0.00209995
7.39485e-14
0.00209995
1.62216e-13
0.00209995
3.33402e-13
0.00209995
6.54028e-13
0.00209995
1.23815e-12
0.00209995
2.29143e-12
0.00209995
4.23409e-12
0.00209995
8.06053e-12
0.00209995
1.63363e-11
0.00209995
3.57088e-11
0.00209995
8.25117e-11
0.00209995
1.93631e-10
0.00209995
4.44354e-10
0.00209995
9.7257e-10
0.00209994
2.00663e-09
0.00209994
3.90419e-09
0.00209994
7.26185e-09
0.00209992
1.33104e-08
0.00209985
2.51665e-08
0.00209964
5.11828e-08
0.00209914
1.12549e-07
0.00209829
2.57818e-07
0.00209738
5.87165e-07
0.0020973
1.29819e-06
0.0020989
2.82198e-06
0.00210093
6.40793e-06
0.00209505
1.68847e-05
0.00204868
6.20341e-05
0.00216301
0.00450776
0.00157363
0.00720378
0.00171355
0.00821999
0.00178934
0.00802669
0.00174388
0.00771081
0.00155113
0.00622841
0.0010762
0.00603423
0.000435846
0.00608163
0.00652262
0.00209995
1.62582e-15
0.00209995
1.0223e-14
0.00209995
3.40629e-14
0.00209995
8.94898e-14
0.00209995
2.08184e-13
0.00209995
4.50363e-13
0.00209995
9.24209e-13
0.00209995
1.81358e-12
0.00209995
3.41896e-12
0.00209995
6.2292e-12
0.00209995
1.1093e-11
0.00209995
1.97248e-11
0.00209995
3.62446e-11
0.00209995
7.15455e-11
0.00209995
1.54424e-10
0.00209995
3.56517e-10
0.00209994
8.40475e-10