/*--------------------------------*- C++ -*----------------------------------*\
  =========                 |
  \\      /  F ield         | OpenFOAM: The Open Source CFD Toolbox
   \\    /   O peration     | Website:  https://openfoam.org
    \\  /    A nd           | Version:  6.0
     \\/     M anipulation  |
\*---------------------------------------------------------------------------*/
FoamFile
{
    version     2.0;
    format      ascii;
    class       volScalarField;
    location    "0.5";
    object      T;
}
// * * * * * * * * * * * * * * * * * * * * * * * * * * * * * * * * * * * * * //

dimensions      [0 0 0 1 0 0 0];

internalField   nonuniform List<scalar> 
4800
(
1
1
1
1
1
1
1
1
1
1
1
1
1
1.00001
1.00001
1.00002
1.00005
1.0001
1.0002
1.00041
1.00085
1.00174
1.00357
1.00734
1.01512
1.03127
1.06524
1.13889
1.30591
1.80588
3.24971
2.37321
2.6514
2.86666
2.93072
2.92452
3.1436
3.10053
2.82457
2.51224
1
1
1
1
1
1
1
1
1
1
1
1
1
1.00001
1.00001
1.00002
1.00005
1.0001
1.0002
1.00041
1.00085
1.00174
1.00358
1.00735
1.01514
1.03131
1.06534
1.13917
1.30578
1.82398
3.16417
2.52312
2.80104
3.06785
3.08528
3.02172
3.03711
2.94944
2.6937
2.54822
1
1
1
1
1
1
1
1
1
1
1
1
1
1.00001
1.00001
1.00002
1.00005
1.0001
1.0002
1.00042
1.00085
1.00175
1.00359
1.00738
1.01519
1.03144
1.06564
1.13996
1.30753
1.84118
3.10187
2.73242
2.95419
3.05374
2.93839
2.97541
2.94437
2.80583
2.69356
2.54176
1
1
1
1
1
1
1
1
1
1
1
1
1
1.00001
1.00001
1.00002
1.00005
1.0001
1.0002
1.00041
1.00085
1.00175
1.00359
1.00739
1.01524
1.03155
1.06588
1.14046
1.30906
1.84051
3.22896
2.35287
2.78924
2.82919
2.50795
2.90249
2.68017
2.49764
2.5736
2.58204
1
1
1
1
1
1
1
1
1
1
1
1
1
1.00001
1.00001
1.00002
1.00005
1.0001
1.0002
1.00041
1.00085
1.00174
1.00357
1.00735
1.01516
1.0314
1.06558
1.13983
1.30637
1.84732
3.12558
2.50884
2.64788
2.89971
4.02814
3.13795
3.90187
2.87746
2.64579
2.65914
1
1
1
1
1
1
1
1
1
1
1
1
1
1.00001
1.00001
1.00002
1.00005
1.0001
1.0002
1.00041
1.00084
1.00173
1.00355
1.00732
1.0151
1.03128
1.06538
1.13951
1.30575
1.84957
3.04775
2.71112
2.44807
2.53747
2.63333
3.04692
2.51523
2.64534
2.58987
2.52139
1
1
1
1
1
1
1
1
1
1
1
1
1
1.00001
1.00001
1.00002
1.00005
1.0001
1.0002
1.00041
1.00083
1.00171
1.00352
1.00726
1.01499
1.03111
1.06509
1.13884
1.30688
1.79839
3.21269
2.45302
2.68081
2.75997
2.78018
3.04832
2.91086
2.77724
2.81858
2.62577
1
1
1
1
1
1
1
1
1
1
1
1
1
1.00001
1.00001
1.00002
1.00005
1.0001
1.0002
1.0004
1.00083
1.00169
1.00348
1.00716
1.01477
1.0306
1.064
1.13633
1.30269
1.74348
3.3038
2.45028
2.61341
2.83934
2.86376
2.96635
2.95566
2.89142
2.8719
2.63462
1
1
1
1
1
1
1
1
1
1
1
1
1
1.00001
1.00001
1.00002
1.00005
1.0001
1.00019
1.0004
1.00082
1.00168
1.00345
1.00708
1.01459
1.03019
1.06303
1.13398
1.29742
1.70757
3.31327
2.44347
2.59099
2.80174
2.97877
2.98569
2.97602
2.92309
2.79167
2.63936
1
1
1
1
1
1
1
1
1
1
1
1
1
1.00001
1.00001
1.00002
1.00005
1.00009
1.00019
1.0004
1.00081
1.00167
1.00342
1.00702
1.01445
1.02987
1.06229
1.13214
1.29298
1.68512
3.31005
2.43755
2.58746
2.81041
2.95436
2.67167
2.76605
2.84084
2.73236
2.74869
1
1
1
1
1
1
1
1
1
1
1
1
1
1.00001
1.00001
1.00002
1.00005
1.00009
1.00019
1.00039
1.0008
1.00165
1.00339
1.00696
1.01433
1.02962
1.06175
1.13087
1.29003
1.66999
3.30812
2.40069
2.57618
2.83672
2.89847
3.1184
2.89425
2.96129
2.87642
3.04198
1
1
1
1
1
1
1
1
1
1
1
1
1
1.00001
1.00001
1.00002
1.00004
1.00009
1.00019
1.00039
1.0008
1.00163
1.00336
1.0069
1.01422
1.0294
1.0613
1.12989
1.28784
1.65947
3.30974
2.37625
2.57856
2.8028
2.82412
2.93674
2.86681
3.04036
2.99159
2.95435
1
1
1
1
1
1
1
1
1
1
1
1
1
1.00001
1.00001
1.00002
1.00004
1.00009
1.00019
1.00038
1.00079
1.00162
1.00333
1.00684
1.0141
1.02918
1.06087
1.12901
1.28601
1.65214
3.3111
2.36029
2.57307
2.7796
2.78571
2.66949
2.79852
2.98261
2.83753
2.32702
1
1
1
1
1
1
1
1
1
1
1
1
1
1.00001
1.00001
1.00002
1.00004
1.00009
1.00019
1.00038
1.00078
1.00161
1.00331
1.0068
1.014
1.02895
1.06038
1.12799
1.28389
1.64647
3.30921
2.3617
2.57405
2.77647
2.78662
2.62001
2.77556
2.97271
2.34242
2.74391
1
1
1
1
1
1
1
1
1
1
1
1
1
1.00001
1.00001
1.00002
1.00004
1.00009
1.00019
1.00038
1.00078
1.0016
1.00329
1.00677
1.01394
1.0288
1.06002
1.12711
1.28168
1.64104
3.29801
2.37832
2.57356
2.76284
2.75623
2.61764
2.75319
2.91684
2.4456
2.81544
1
1
1
1
1
1
1
1
1
1
1
1
1
1.00001
1.00001
1.00002
1.00004
1.00009
1.00018
1.00038
1.00078
1.0016
1.00328
1.00675
1.0139
1.02872
1.05983
1.12664
1.28038
1.63784
3.28361
2.37073
2.57466
2.75187
2.729
2.54741
2.72682
2.77325
2.83143
2.79309
1
1
1
1
1
1
1
1
1
1
1
1
1
1.00001
1.00001
1.00002
1.00004
1.00009
1.00018
1.00038
1.00077
1.00159
1.00327
1.00672
1.01385
1.02864
1.05967
1.12633
1.27959
1.63699
3.27331
2.3703
2.58163
2.75067
2.7132
2.43989
2.59682
2.73784
2.99793
2.78811
1
1
1
1
1
1
1
1
1
1
1
1
1
1
1.00001
1.00002
1.00004
1.00009
1.00018
1.00037
1.00077
1.00158
1.00325
1.00669
1.01379
1.02853
1.0595
1.12603
1.27891
1.63703
3.26398
2.38059
2.60458
2.74373
2.73385
2.507
2.51873
2.52396
2.88693
2.87655
1
1
1
1
1
1
1
1
1
1
1
1
1
1.00001
1.00001
1.00002
1.00004
1.00009
1.00018
1.00037
1.00077
1.00158
1.00324
1.00667
1.01374
1.02843
1.05928
1.12562
1.27805
1.6373
3.25314
2.39915
2.6321
2.72739
2.73963
2.38173
2.31625
2.42954
2.71831
2.98466
1
1
1
1
1
1
1
1
1
1
1
1
1
1.00001
1.00001
1.00002
1.00004
1.00009
1.00018
1.00037
1.00077
1.00158
1.00324
1.00666
1.01372
1.02837
1.05915
1.12531
1.27721
1.63728
3.23859
2.42558
2.65701
2.72496
2.55161
1.78097
2.63573
2.53016
2.68459
2.92994
1
1
1
1
1
1
1
1
1
1
1
1
1
1.00001
1.00001
1.00002
1.00004
1.00009
1.00018
1.00037
1.00077
1.00158
1.00324
1.00666
1.01372
1.02837
1.05914
1.12527
1.27695
1.63849
3.22096
2.43573
2.67884
2.72838
2.52891
2.57476
2.92637
3.02079
2.65997
2.81675
1
1
1
1
1
1
1
1
1
1
1
1
1
1.00001
1.00001
1.00002
1.00004
1.00009
1.00018
1.00038
1.00077
1.00158
1.00324
1.00667
1.01373
1.02839
1.05919
1.12538
1.27708
1.64141
3.20485
2.44996
2.68314
2.71913
2.55947
2.6313
2.91657
2.91398
2.84444
2.89144
1
1
1
1
1
1
1
1
1
1
1
1
1
1.00001
1.00001
1.00002
1.00004
1.00009
1.00018
1.00038
1.00077
1.00158
1.00325
1.00668
1.01376
1.02843
1.05926
1.12553
1.27728
1.64501
3.18817
2.47306
2.67864
2.74535
2.60721
2.62825
2.83589
2.74392
2.85194
2.9056
1
1
1
1
1
1
1
1
1
1
1
1
1
1.00001
1.00001
1.00002
1.00004
1.00009
1.00018
1.00038
1.00077
1.00159
1.00326
1.0067
1.01379
1.02849
1.05936
1.12573
1.27758
1.64903
3.16985
2.49924
2.66512
2.78359
2.66103
2.65488
2.77805
2.73846
2.92423
2.93686
1
1
1
1
1
1
1
1
1
1
1
1
1
1.00001
1.00001
1.00002
1.00004
1.00009
1.00018
1.00038
1.00078
1.00159
1.00327
1.00672
1.01383
1.02857
1.0595
1.12599
1.27794
1.6531
3.15024
2.52708
2.65221
2.81318
2.70582
2.66223
2.80394
2.82582
2.95662
2.98805
1
1
1
1
1
1
1
1
1
1
1
1
1
1.00001
1.00001
1.00002
1.00004
1.00009
1.00018
1.00038
1.00078
1.0016
1.00328
1.00674
1.01387
1.02865
1.05966
1.1263
1.27837
1.657
3.12988
2.54933
2.64808
2.83364
2.73288
2.67622
2.84983
2.8306
2.90205
2.95932
1
1
1
1
1
1
1
1
1
1
1
1
1
1.00001
1.00001
1.00002
1.00004
1.00009
1.00019
1.00038
1.00078
1.0016
1.00328
1.00674
1.01389
1.0287
1.05978
1.12654
1.27869
1.6604
3.10901
2.56619
2.65588
2.83737
2.74671
2.6829
2.86986
2.83042
2.75339
2.96521
1
1
1
1
1
1
1
1
1
1
1
1
1
1.00001
1.00001
1.00002
1.00004
1.00009
1.00019
1.00038
1.00078
1.0016
1.00328
1.00674
1.01388
1.0287
1.05981
1.12668
1.27889
1.66338
3.08893
2.57966
2.67983
2.83443
2.75263
2.67737
2.87793
2.82178
2.66674
2.97431
1
1
1
1
1
1
1
1
1
1
1
1
1
1.00001
1.00001
1.00002
1.00004
1.00009
1.00018
1.00038
1.00078
1.0016
1.00327
1.00672
1.01384
1.02862
1.05969
1.12658
1.27882
1.66576
3.06977
2.59324
2.70557
2.82897
2.73817
2.65939
2.84453
2.80692
2.55681
2.95847
1
1
1
1
1
1
1
1
1
1
1
1
1
1.00001
1.00001
1.00002
1.00004
1.00009
1.00018
1.00038
1.00077
1.00159
1.00327
1.00671
1.01381
1.02853
1.05947
1.12613
1.27803
1.66681
3.05057
2.61244
2.73012
2.83029
2.72723
2.66547
2.83222
2.80276
2.48438
2.8577
1
1
1
1
1
1
1
1
1
1
1
1
1
1
1.00001
1.00002
1.00004
1.00009
1.00018
1.00037
1.00077
1.00158
1.00325
1.00669
1.01379
1.0285
1.05934
1.12572
1.27678
1.66547
3.02755
2.64797
2.74039
2.79144
2.72512
2.6892
2.81978
2.80462
2.44524
2.84569
1
1
1
1
1
1
1
1
1
1
1
1
1
1
1.00001
1.00002
1.00004
1.00009
1.00018
1.00037
1.00077
1.00157
1.00323
1.00666
1.01374
1.02844
1.05929
1.12559
1.27616
1.6634
3.00607
2.6646
2.72777
2.75575
2.72779
2.70196
2.81512
2.81719
2.45924
2.82043
1
1
1
1
1
1
1
1
1
1
1
1
1
1
1.00001
1.00002
1.00004
1.00009
1.00018
1.00037
1.00076
1.00157
1.00322
1.00663
1.01367
1.02831
1.0591
1.12538
1.2758
1.6621
2.99251
2.65236
2.72169
2.7498
2.72995
2.67823
2.81353
2.82942
2.5104
2.75947
1
1
1
1
1
1
1
1
1
1
1
1
1
1
1.00001
1.00002
1.00004
1.00009
1.00018
1.00037
1.00076
1.00157
1.00322
1.00661
1.0136
1.02812
1.05868
1.1246
1.27458
1.65954
2.98215
2.66018
2.71676
2.74985
2.73434
2.69658
2.80808
2.85006
2.53378
2.67526
1
1
1
1
1
1
1
1
1
1
1
1
1
1
1.00001
1.00002
1.00004
1.00009
1.00018
1.00037
1.00076
1.00156
1.0032
1.00658
1.01353
1.02793
1.05815
1.12323
1.27152
1.65285
2.96866
2.6804
2.70721
2.75557
2.74714
2.73481
2.81361
2.85688
2.56901
2.60723
1
1
1
1
1
1
1
1
1
1
1
1
1
1
1.00001
1.00002
1.00004
1.00009
1.00018
1.00036
1.00075
1.00154
1.00317
1.00652
1.01342
1.0277
1.05759
1.12178
1.2675
1.64048
2.9385
2.72416
2.70292
2.77561
2.7522
2.78223
2.83639
2.84514
2.58223
2.56792
1
1
1
1
1
1
1
1
1
1
1
1
1
1
1.00001
1.00002
1.00004
1.00008
1.00017
1.00036
1.00073
1.00151
1.0031
1.0064
1.01321
1.02734
1.05692
1.12034
1.264
1.62913
2.89919
2.67994
2.71082
2.82046
2.75312
2.78887
2.8725
2.85769
2.57646
2.54421
1
1
1
1
1
1
1
1
1
1
1
1
1
1
1.00001
1.00002
1.00004
1.00008
1.00017
1.00035
1.00071
1.00147
1.00302
1.00622
1.01288
1.02674
1.05587
1.11838
1.25982
1.61777
2.87702
2.6357
2.65961
2.78339
2.76342
2.81539
2.87517
2.85478
2.57549
2.5272
1
1
1
1
1
1
1
1
1
1
1
1
1
1
1.00001
1.00002
1.00004
1.00008
1.00017
1.00034
1.0007
1.00143
1.00294
1.00604
1.01248
1.0259
1.05419
1.11517
1.2535
1.60243
2.86601
2.63244
2.64173
2.74283
2.77323
2.85136
2.87756
2.84225
2.55277
2.52462
1
1
1
1
1
1
1
1
1
1
1
1
1
1
1.00001
1.00002
1.00004
1.00008
1.00016
1.00033
1.00068
1.00139
1.00285
1.00585
1.01203
1.02488
1.05195
1.11037
1.24332
1.57527
2.8331
2.62
2.64137
2.74167
2.78648
2.88838
2.86065
2.83392
2.51475
2.54378
1
1
1
1
1
1
1
1
1
1
1
1
1
1
1.00001
1.00002
1.00003
1.00007
1.00015
1.0003
1.00061
1.00125
1.00256
1.00524
1.01075
1.02212
1.04584
1.09627
1.20917
1.46822
2.72929
2.56858
2.72143
2.88207
2.89762
2.86958
2.76909
2.68209
2.44919
2.47381
1
1
1
1
1
1
1
1
1
1
1
1
1
1
1.00001
1.00001
1.00003
1.00005
1.00011
1.00022
1.00044
1.00091
1.00186
1.00382
1.00782
1.01605
1.03308
1.06886
1.14661
1.32223
2.08265
2.30549
2.58987
2.83435
2.90277
2.81105
2.62732
2.56435
2.53921
2.49162
1
1
1
1
1
1
1
1
1
1
1
1
1
1
1
1.00001
1.00002
1.00004
1.00008
1.00017
1.00034
1.0007
1.00144
1.00296
1.00606
1.01244
1.02563
1.05317
1.11197
1.24242
1.61465
2.40739
2.6908
2.84417
2.89124
2.81164
2.61071
2.57269
2.57201
2.52616
1
1
1
1
1
1
1
1
1
1
1
1
1
1
1
1.00001
1.00002
1.00004
1.00008
1.00015
1.00032
1.00065
1.00134
1.00274
1.00564
1.01158
1.02386
1.04945
1.10402
1.22495
1.53733
2.42445
2.69375
2.76973
2.79234
2.77053
2.62925
2.51209
2.67466
2.96401
1
1
1
1
1
1
1
1
1
1
1
1
1
1
1
1.00001
1.00002
1.00003
1.00007
1.00014
1.00028
1.00057
1.00117
1.0024
1.00492
1.01012
1.02087
1.04323
1.09069
1.19558
1.45141
2.41939
2.54669
2.66031
2.70152
2.70355
2.60524
2.65995
2.93179
3.20655
1
1
1
1
1
1
1
1
1
1
1
1
1
1
1
1.00001
1.00001
1.00003
1.00005
1.0001
1.0002
1.00041
1.00083
1.0017
1.00348
1.00713
1.01465
1.03024
1.06288
1.1338
1.29359
1.91748
2.18257
2.41372
2.41548
2.45845
2.50666
2.67561
2.87313
3.10221
1
1
1
1
1
1
1
1
1
1
1
1
1
1
1
1.00001
1.00001
1.00002
1.00004
1.00008
1.00016
1.00033
1.00068
1.00139
1.00283
1.00574
1.01158
1.02325
1.04722
1.09574
1.23444
1.47753
1.92463
2.39086
2.38507
2.40813
2.48531
2.64224
2.77173
3.04675
1
1
1
1
1
1
1
1
1
1
1
1
1
1
1
1
1.00001
1.00002
1.00003
1.00006
1.00012
1.00024
1.00046
1.0009
1.00172
1.00339
1.00657
1.01321
1.02855
1.0529
1.10421
1.21382
1.57412
1.71465
2.26485
2.50013
2.54199
2.62879
2.71277
2.99719
1
1
1
1
1
1
1
1
1
1
1
1
1
1
1
1
1
1
1.00001
1.00002
1.00004
1.00008
1.00016
1.00032
1.00065
1.00131
1.00265
1.00541
1.01116
1.02325
1.04855
1.10378
1.22675
1.64686
2.37613
2.50119
2.54299
2.62678
2.74985
2.99558
1
1
1
1
1
1
1
1
1
1
1
1
1
1
1
1
1
1
1.00001
1.00001
1.00003
1.00005
1.00011
1.00022
1.00043
1.00086
1.00172
1.0034
1.00684
1.01398
1.02913
1.06152
1.13125
1.30957
1.69399
2.43512
2.48037
2.51544
2.65431
2.94614
1
1
1
1
1
1
1
1
1
1
1
1
1
1
1
1
1
1
1
1.00001
1.00002
1.00003
1.00007
1.00014
1.0003
1.00062
1.00128
1.0026
1.00525
1.01057
1.02125
1.04293
1.08794
1.18015
1.45084
1.93336
2.20559
2.27256
2.3996
2.81725
1
1
1
1
1
1
1
1
1
1
1
1
1
1
1
1
1
1
1
1
1.00001
1.00002
1.00004
1.00008
1.00017
1.00035
1.00071
1.00145
1.00295
1.00602
1.01226
1.02508
1.0522
1.11065
1.24944
1.70465
1.9815
2.00048
2.20251
2.78824
1
1
1
1
1
1
1
1
1
1
1
1
1
1
1
1
1
1
1
1
1.00001
1.00001
1.00003
1.00005
1.00011
1.00023
1.00047
1.00095
1.00192
1.00383
1.00759
1.01514
1.03043
1.06253
1.12642
1.35245
1.5841
1.73379
1.91412
2.2526
1
1
1
1
1
1
1
1
1
1
1
1
1
1
1
1
1
1
1
1
1
1.00001
1.00002
1.00004
1.00008
1.00017
1.00035
1.00073
1.0015
1.00306
1.00619
1.01243
1.02415
1.04742
1.09665
1.21679
1.46167
1.6331
1.75684
1.88084
1
1
1
1
1
1
1
1
1
1
1
1
1
1
1
1
1
1
1
1
1
1
1.00001
1.00001
1.00002
1.00005
1.0001
1.00021
1.00046
1.00106
1.00245
1.00557
1.01226
1.02616
1.05561
1.09821
1.16452
1.29382
1.62448
1.70072
1
1
1
1
1
1
1
1
1
1
1
1
1
1
1
1
1
1
1
1
1
1
1
1
1.00001
1.00002
1.00003
1.00006
1.00012
1.00027
1.00058
1.00124
1.0026
1.00532
1.01072
1.02227
1.04542
1.09786
1.21306
1.63265
1
1
1
1
1
1
1
1
1
1
1
1
1
1
1
1
1
1
1
1
1
1
1
1
1
1
1.00001
1.00002
1.00004
1.00008
1.00017
1.00036
1.00075
1.00155
1.00314
1.00657
1.01259
1.03448
1.04008
1.32064
1
1
1
1
1
1
1
1
1
1
1
1
1
1
1
1
1
1
1
1
1
1
1
1
1
1
1
1
1.00001
1.00001
1.00003
1.00006
1.00012
1.00025
1.00053
1.00113
1.00245
1.00538
1.01135
1.03173
1
1
1
1
1
1
1
1
1
1
1
1
1
1
1
1
1
1
1
1
1
1
1
1
1
1
1
1
1
1.00001
1.00001
1.00002
1.00004
1.00009
1.00017
1.00035
1.00072
1.00138
1.00319
1.00514
1
1
1
1
1
1
1
1
1
1
1
1
1
1
1
1
1
1
1
1
1
1
1
1
1
1
1
1
1
1
1.00001
1.00002
1.00004
1.00008
1.00016
1.00032
1.00065
1.00128
1.00296
1.00499
1
1
1
1
1
1
1
1
1
1
1
1
1
1
1
1
1
1
1
1
1
1
1
1
1
1
1
1
1
1
1.00001
1.00002
1.00003
1.00007
1.00015
1.0003
1.00062
1.00124
1.00272
1.00485
1
1
1
1
1
1
1
1
1
1
1
1
1
1
1
1
1
1
1
1
1
1
1
1
1
1
1
1
1
1
1.00001
1.00001
1.00003
1.00006
1.00012
1.00025
1.00053
1.00108
1.00237
1.00429
1
1
1
1
1
1
1
1
1
1
1
1
1
1
1
1
1
1
1
1
1
1
1
1
1
1
1
1
1
1
1
1.00001
1.00002
1.00004
1.00008
1.00018
1.00037
1.00078
1.00178
1.00331
1
1
1
1
1
1
1
1
1
1
1
1
1
1
1
1
1
1
1
1
1
1
1
1
1
1
1
1
1
1
1
1.00001
1.00002
1.00004
1.00009
1.00018
1.00037
1.00074
1.00165
1.00287
1
1
1
1
1
1
1
1
1
1
1
1
1
1
1
1
1
1
1
1
1
1
1
1
1
1
1
1
1
1
1.00001
1.00001
1.00003
1.00006
1.00011
1.00023
1.00045
1.00089
1.00175
1.0032
1
1
1
1
1
1
1
1
1
1
1
1
1
1
1
1
1
1
1
1
1
1
1
1
1
1
1
1
1
1
1.00001
1.00001
1.00003
1.00005
1.00011
1.00022
1.00045
1.00091
1.00179
1.00363
1
1
1
1
1
1
1
1
1
1
1
1
1
1
1
1
1
1
1
1
1
1
1
1
1
1
1
1
1
1
1
1.00001
1.00002
1.00004
1.00008
1.00016
1.00033
1.00066
1.00151
1.00298
1
1
1
1
1
1
1
1
1
1
1
1
1
1
1
1
1
1
1
1
1
1
1
1
1
1
1
1
1
1
1
1
1
1
1.00001
1.00002
1.00002
1.00001
1
0.999947
1
1
1
1
1
1
1
1
1
1
1
1
1
1
1
1
1
1
1
1
1
1
1
1
1
1
1
1
1
1
1
1
1
1
1
1
1
1.00001
1.00001
1.00003
1
1
1
1
1
1
1
1
1
1
1
1
1
1
1
1
1
1
1
1
1
1
1
1
1
1
1
1
1
1
1
1
1
1
1
1
1
1
1
1
1
1
1
1
1
1
1
1
1
1
1
1
1
1
1
1
1
1
1
1
1
1
1
1
1
1
1
1
1
1
1
1
1
1
1
1
1
1
1
1
1
1
1
1
1
1
1
1
1
1
1
1
1
1
1
1
1
1
1
1
1
1
1
1
1
1
1
1
1
1
1
1
1
1
1
1
1
1
1
1
1
1
1
1
1
1
1
1
1
1
1
1
1
1
1
1
1
1
1
1
1
1
1
1
1
1
1
1
1
1
1
1
1
1
1
1
1
1
1
1
1
1
1
1
1
1
1
1
1
1
1
1
1
1
1
1
1
1
1
1
1
1
1
1
1
1
1
1
1
1
1
1
1
1
1
1
1
1
1
1
1
1
1
1
1
1
1
1
1
1
1
1
1
1
1
1
1
1
1
1
1
1
1
1
1
1
1
1
1
1
1
1
1
1
1
1
1
1
1
1
1
1
1
1
1
1
1
1
1
1
1
1
1
1
1
1
1
1
1
1
1
1
1
1
1
1
1
1
1
1
1
1
1
1
1
1
1
1
1
1
1
1
1
1
1
1
1
1
1
1
1
1
1
1
1
1
1
1
1
1
1
1
1
1
1
1
1
1
1
1
1
1
1
1
1
1
1
1
1
1
1
1
1
1
1
1
1
1
1
1
1
1
1
1
1
1
1
1
1
1
1
1
1
1
1
1
1
1
1
1
1
1
1
1
1
1
1
1
1
1
1
1
1
1
1
1
1
1
1
1
1
1
1
1
1
1
1
1
1
1
1
1
1
1
1
1
1
1
1
1
1
1
1
1
1
1
1
1
1
1
1
1
1
1
1
1
1
1
1
1
1
1
1
1
1
1
1
1
1
1
1
1
1
1
1
1
1
1
1
1
1
1
1
1
1
1
1
1
1
1
2.06767
2.02616
2.17883
2.27691
2.35847
2.5163
2.59359
2.62541
2.67233
2.74048
2.79208
2.89964
2.92873
2.98742
3.02789
3.0589
3.10608
3.06624
2.97735
2.97455
2.99536
2.85853
2.37618
1.94835
1.67255
1.49045
1.36269
1.32999
1.23389
1.14103
1.10776
1.14382
1.12456
1.04944
1.0275
1.02574
1.09894
1.09427
1.02211
1.08757
2.02856
2.06058
2.3172
2.48462
2.55911
2.71631
2.92265
2.97766
2.94422
2.93248
2.97515
2.87857
2.84872
2.8902
2.92823
2.95499
2.98325
3.03919
3.01191
2.83892
2.64922
2.38697
2.11451
1.85867
1.69605
1.51838
1.45456
1.38991
1.32219
1.24703
1.15434
1.09803
1.11292
1.11898
1.05729
1.01039
1.00268
1.05854
1.08405
1.04092
2.17443
2.19979
2.41047
2.52267
2.643
2.76983
2.83812
2.98809
3.06602
2.8563
2.7879
2.80422
2.80367
2.78786
2.80649
2.83339
2.89519
2.92319
2.79841
2.67488
2.47147
2.37271
2.09391
1.97487
1.91335
1.85787
1.63703
1.33108
1.16325
1.12529
1.09539
1.07462
1.06248
1.07174
1.03612
1.01953
1.06734
1.06772
1.01225
1.07112
2.50993
2.39818
2.41056
2.47958
2.57431
2.78622
3.00286
3.13517
2.97446
2.91068
2.88645
2.85718
2.77895
2.70113
2.66635
2.65393
2.63672
2.68744
2.77404
2.59155
2.53395
2.47023
2.19796
1.98903
1.71429
1.43262
1.33068
1.21654
1.15074
1.12603
1.04393
1.02213
1.01589
1.0743
1.10161
0.98967
0.999834
1.06158
1.07438
0.977611
2.8696
2.57464
2.45124
2.37812
2.41775
2.57027
2.72625
2.80805
2.84795
2.86927
2.8574
2.79736
2.71234
2.59363
2.505
2.45925
2.41457
2.41208
2.42745
2.40125
2.31003
2.22394
2.10868
1.9281
1.72496
1.46931
1.29657
1.24741
1.17078
1.06442
1.05707
1.07005
1.06598
1.03786
1.01237
1.03864
1.03956
1.02691
1.04933
1.0791
2.83798
2.53799
2.38305
2.38709
2.31354
2.48389
2.62633
2.77958
2.86713
2.88109
2.85911
2.77785
2.65374
2.52199
2.39065
2.32987
2.36208
2.31277
2.19196
2.06357
2.01301
1.98483
1.94389
1.8258
1.70035
1.48064
1.29138
1.20746
1.22318
1.11131
1.04769
1.07076
1.08073
1.01901
1.00686
1.05434
1.09969
1.05247
1.00555
1.06337
2.78777
2.44422
2.39554
2.34853
2.30362
2.4512
2.60954
2.7604
2.84447
2.86546
2.86118
2.77435
2.60867
2.45954
2.36127
2.33029
2.24976
2.16457
2.07942
2.02472
1.99362
1.95029
1.90079
1.87498
1.81178
1.55131
1.34431
1.21648
1.1652
1.12029
1.09827
1.06444
1.05276
1.03908
1.01545
1.03374
1.00926
1.00665
1.02463
1.10978
2.80172
2.47908
2.40622
2.29673
2.362
2.5137
2.6359
2.77463
2.81753
2.85307
2.90347
2.88712
2.62506
2.35627
2.18677
2.08991
2.0294
1.99475
1.96037
1.92007
1.87806
1.92067
2.00514
1.97414
1.82435
1.69583
1.52579
1.37387
1.25395
1.15355
1.14703
1.1653
1.05713
1.06135
1.07776
1.04867
1.02999
0.999483
1.02819
1.0788
2.87071
2.52945
2.37893
2.27761
2.28087
2.39756
2.54731
2.72279
2.85265
2.85997
2.8136
2.75346
2.66021
2.5811
2.25729
1.96155
1.87682
1.83772
1.83815
1.85303
1.86297
1.87254
2.00909
1.94548
1.79856
1.67593
1.51706
1.39737
1.31461
1.31791
1.32758
1.1814
1.12847
1.11647
1.07172
1.0362
1.04948
1.10902
1.08337
1.14624
2.89045
2.55674
2.38753
2.31763
2.25943
2.34124
2.43242
2.55583
2.6554
2.71962
2.78191
2.80326
2.77108
2.5759
2.22298
1.87366
1.77056
1.73594
1.748
1.79553
1.88683
1.94731
1.83597
1.77251
1.75963
1.65728
1.54067
1.45807
1.43437
1.46064
1.39055
1.27765
1.23092
1.17225
1.12136
1.07752
1.05174
1.04164
1.12255
1.04719
2.84574
2.4692
2.35602
2.28708
2.29308
2.35184
2.40517
2.46756
2.54149
2.63585
2.68681
2.70726
2.75573
2.68737
2.20475
1.91102
1.77911
1.77461
1.82222
1.81266
1.77271
1.74325
1.76163
1.79267
1.70251
1.64528
1.57146
1.51789
1.48851
1.42375
1.37211
1.19404
1.13088
1.09655
1.14881
1.15133
1.0447
1.03606
1.07977
1.05238
2.78272
2.4738
2.25136
2.24951
2.19938
2.24184
2.28733
2.33886
2.35707
2.41613
2.51897
2.66525
2.67351
2.48889
2.33379
2.11412
1.96286
1.89587
1.77489
1.73607
1.72263
1.68323
1.67324
1.75986
1.67298
1.57414
1.53961
1.50746
1.54055
1.53938
1.3927
1.34627
1.26199
1.19433
1.15666
1.18847
1.16531
1.05068
1.05993
1.10346
2.42858
2.40737
2.28413
2.18902
2.08334
2.07507
2.14415
2.23002
2.21479
2.19568
2.18238
2.13549
2.18682
2.32477
2.3687
2.30951
2.1212
1.91815
1.79638
1.7298
1.69442
1.66874
1.64954
1.66128
1.61643
1.53858
1.52271
1.52961
1.54403
1.48839
1.36508
1.30611
1.24612
1.18154
1.13443
1.1475
1.12374
1.04674
1.0598
1.14807
2.28294
2.34413
2.30141
2.13404
2.06801
1.9749
1.84227
1.80466
1.82565
1.90568
1.82792
1.88786
2.05341
2.22969
2.28493
2.18626
2.03353
1.89515
1.79185
1.71706
1.64432
1.57064
1.53673
1.57783
1.53197
1.47174
1.45481
1.46258
1.48114
1.38249
1.34464
1.29713
1.21925
1.16945
1.19074
1.16784
1.11824
1.06668
1.07328
1.08873
1.95954
2.12853
2.11339
2.02547
1.86131
1.66208
1.63256
1.58372
1.67851
1.72449
1.70713
1.84956
2.02451
2.10618
2.05008
1.99086
1.94312
1.86474
1.68815
1.57026
1.49591
1.41002
1.37535
1.42602
1.39159
1.39475
1.41089
1.40381
1.40273
1.39563
1.29817
1.24191
1.20415
1.1644
1.13454
1.19535
1.19838
1.12378
1.07045
1.05407
1.66396
1.92098
1.84935
1.69357
1.73918
1.62981
1.61421
1.63325
1.61178
1.6131
1.65688
1.79453
1.90544
1.88749
1.89837
1.82714
1.65856
1.50184
1.3431
1.25149
1.23841
1.23487
1.24199
1.32054
1.31041
1.29619
1.30016
1.30816
1.40464
1.36607
1.2666
1.23108
1.1883
1.14472
1.12131
1.18792
1.16666
1.1335
1.10004
1.06537
1.19133
1.03762
0.921875
1.14986
1.6424
1.65507
1.68306
1.61498
1.56467
1.61674
1.66793
1.75207
1.72458
1.75538
1.75322
1.61676
1.42271
1.34729
1.2552
1.19823
1.20829
1.19094
1.18665
1.26094
1.24609
1.2422
1.25611
1.30881
1.39708
1.2975
1.26055
1.24454
1.19345
1.13933
1.13056
1.19102
1.11713
1.13536
1.14982
1.08592
1.05227
1.05664
1.06742
1.15134
1.65147
1.70233
1.68125
1.63867
1.61588
1.63947
1.61158
1.62142
1.69222
1.69014
1.61411
1.42742
1.35876
1.31259
1.22557
1.19464
1.19948
1.13114
1.15288
1.22112
1.20264
1.21407
1.25548
1.35465
1.30347
1.25824
1.26719
1.26254
1.1652
1.128
1.17361
1.1405
1.07574
1.07733
1.17514
1.0848
1.03725
1.05785
1.0834
1.12486
1.51377
1.63193
1.64565
1.66864
1.65685
1.6076
1.60055
1.65445
1.71526
1.68035
1.5412
1.41313
1.39779
1.31437
1.26058
1.24791
1.17025
1.13707
1.17209
1.14689
1.15803
1.24608
1.29262
1.23837
1.26733
1.3322
1.31398
1.1997
1.16263
1.17135
1.17917
1.0897
1.06869
1.0766
1.16941
1.09815
1.03417
1.05644
1.08589
1.13011
1.35672
1.45466
1.53007
1.62378
1.62381
1.62652
1.69393
1.73717
1.71956
1.65285
1.49096
1.45401
1.41958
1.33449
1.31471
1.24541
1.18976
1.20231
1.14654
1.12913
1.17836
1.23773
1.1875
1.20237
1.23394
1.32111
1.32766
1.18645
1.16052
1.18456
1.11502
1.06863
1.07223
1.14815
1.11491
1.10921
1.02875
1.04531
1.08988
1.15293
1.30193
1.34934
1.38054
1.46767
1.58295
1.67148
1.71277
1.7248
1.7198
1.64426
1.56559
1.50131
1.3943
1.37437
1.34774
1.23824
1.18003
1.14589
1.1296
1.16087
1.25195
1.17273
1.13256
1.16239
1.25949
1.36397
1.26209
1.20756
1.16819
1.13381
1.14517
1.1511
1.11074
1.08107
1.0731
1.14994
1.02555
1.0431
1.06895
1.13601
1.21283
1.32674
1.35246
1.399
1.51529
1.62182
1.65221
1.69699
1.71198
1.69758
1.6382
1.51209
1.42688
1.40892
1.35433
1.18931
1.15707
1.14407
1.13945
1.19325
1.2371
1.12505
1.12294
1.19958
1.32167
1.28622
1.23006
1.17806
1.13073
1.12489
1.18771
1.1482
1.08191
1.07173
1.11296
1.13258
1.02114
1.0371
1.06545
1.11247
1.20026
1.29963
1.32081
1.343
1.37973
1.44565
1.55402
1.64549
1.70665
1.70015
1.58242
1.48727
1.44255
1.40969
1.22416
1.17123
1.15152
1.14154
1.18626
1.25002
1.16007
1.12868
1.20137
1.25694
1.26438
1.18469
1.14451
1.13431
1.13249
1.1586
1.19151
1.08624
1.06021
1.08548
1.16575
1.10033
1.01817
1.02948
1.04627
1.07543
1.16313
1.25626
1.26688
1.25846
1.27076
1.34419
1.45199
1.52747
1.58863
1.57294
1.49172
1.42447
1.42096
1.27484
1.19565
1.1691
1.14661
1.17831
1.23723
1.16073
1.12598
1.16615
1.22665
1.20223
1.19512
1.1539
1.10189
1.11059
1.19595
1.155
1.10695
1.12861
1.10699
1.12618
1.12063
1.13847
1.01403
1.02242
1.04129
1.0782
1.17152
1.19344
1.20853
1.19933
1.20371
1.25237
1.32383
1.39415
1.4346
1.42355
1.39709
1.40197
1.28886
1.22666
1.20839
1.18916
1.18662
1.23472
1.1784
1.13444
1.17111
1.21131
1.15596
1.14263
1.16906
1.13735
1.12477
1.1496
1.19255
1.13812
1.10948
1.10529
1.13877
1.07098
1.06474
1.16455
1.01375
1.02387
1.05356
1.08503
1.13179
1.15334
1.23275
1.23717
1.23579
1.20873
1.23266
1.3144
1.35925
1.3794
1.35826
1.28218
1.25129
1.26367
1.27353
1.23067
1.19374
1.16979
1.16355
1.20233
1.17979
1.11356
1.12507
1.15324
1.15165
1.12631
1.14283
1.18429
1.16156
1.10826
1.09142
1.12933
1.10908
1.06463
1.06697
1.16807
1.00864
1.02984
1.07043
1.14398
1.16215
1.16819
1.20496
1.19269
1.22578
1.23042
1.22974
1.26348
1.29669
1.31995
1.26466
1.24632
1.25712
1.29235
1.28656
1.18191
1.15562
1.14054
1.16241
1.19559
1.08661
1.0519
1.0682
1.10873
1.12071
1.12622
1.16756
1.17322
1.11409
1.09847
1.11519
1.1263
1.06794
1.06911
1.09299
1.15912
0.999756
0.998816
0.996689
0.992406
0.983727
0.976688
0.976575
0.97887
0.989196
1.00397
1.07538
1.27239
1.26231
1.2334
1.20208
1.21643
1.23905
1.2183
1.18682
1.17402
1.16626
1.16677
1.17041
1.19924
1.20102
1.1481
1.16205
1.186
1.17425
1.15019
1.15993
1.11303
1.09643
1.1402
1.15791
1.11774
1.06381
1.07149
1.13782
1.09587
1.00006
1.00016
1.00037
1.00068
1.00119
1.00179
1.00232
1.00127
0.998789
0.993413
0.987548
0.979383
0.974004
0.965188
0.958403
0.955564
0.962694
0.962684
0.965207
0.974928
0.97828
0.979127
0.993358
0.991724
0.996805
1.04934
1.08467
1.18603
1.15935
1.15401
1.10304
1.09344
1.11403
1.13904
1.11264
1.12443
1.14545
1.13702
1.15106
1.07284
1.00001
1.00002
1.00004
1.00008
1.00015
1.0003
1.00058
1.00112
1.00212
1.0038
1.00387
1.00572
1.00644
1.0054
1.00858
1.00997
1.00899
1.01043
1.01066
1.0102
1.00943
1.01149
1.0161
1.01664
1.01754
1.05404
1.07333
1.1273
1.1203
1.07827
1.07587
1.10295
1.12703
1.08541
1.08302
1.09069
1.12015
1.1577
1.1234
1.12249
1
1
1.00001
1.00002
1.00003
1.00008
1.00016
1.00035
1.00072
1.00148
1.00297
1.00569
1.00952
1.01538
1.01604
1.01661
1.01699
1.01777
1.019
1.02089
1.02309
1.02597
1.03184
1.0393
1.04579
1.06111
1.08243
1.0776
1.0804
1.09998
1.1281
1.12595
1.07561
1.08168
1.08745
1.10229
1.09511
1.06289
1.06724
1.18335
1
1
1
1
1
1.00001
1.00002
1.00003
1.00007
1.00014
1.00031
1.00067
1.00149
1.00329
1.00685
1.0076
1.00773
1.00793
1.00828
1.00894
1.01017
1.01231
1.01508
1.01841
1.02317
1.03085
1.04522
1.0647
1.09432
1.1048
1.10367
1.08423
1.09639
1.11608
1.10963
1.08273
1.08541
1.10606
1.10827
1.07104
1
1
1
1
1
1
1
1
1.00001
1.00001
1.00003
1.00006
1.00011
1.00021
1.00039
1.0005
1.00056
1.00059
1.00064
1.00073
1.00093
1.00135
1.00224
1.00405
1.00778
1.01576
1.02809
1.04585
1.04805
1.04619
1.05119
1.06532
1.08822
1.08948
1.08699
1.0933
1.09188
1.07491
1.06211
1.09471
1
1
1
1
1
1
1
1
1
1
1
1.00001
1.00001
1.00002
1.00004
1.00007
1.00008
1.0001
1.00014
1.00022
1.00036
1.00065
1.00122
1.00235
1.0047
1.0098
1.01852
1.0345
1.05209
1.06069
1.0718
1.0746
1.07629
1.06726
1.06892
1.08795
1.08589
1.08289
1.07532
1.0493
1
1
1
1
1
1
1
1
1
1
1
1
1
1
1.00001
1.00001
1.00002
1.00004
1.00007
1.00013
1.00025
1.00047
1.00089
1.00173
1.00329
1.00662
1.01242
1.02456
1.04985
1.05247
1.05588
1.05496
1.05299
1.05196
1.05157
1.05119
1.04594
1.05113
1.05531
1.03566
1
1
1
1
1
1
1
1
1
1
1
1
1
1
1
1.00001
1.00001
1.00003
1.00005
1.0001
1.00019
1.00036
1.0007
1.00135
1.00259
1.0051
1.01007
1.0182
1.03052
1.05195
1.06118
1.06022
1.06029
1.06045
1.05762
1.049
1.05089
1.04943
1.06192
1.07736
1
1
1
1
1
1
1
1
1
1
1
1
1
1
1
1
1.00001
1.00001
1.00003
1.00005
1.0001
1.0002
1.00039
1.00077
1.00153
1.00307
1.00622
1.01239
1.02378
1.03644
1.04791
1.05459
1.06265
1.07154
1.07594
1.08729
1.08925
1.08368
1.08388
1.1058
1
1
1
1
1
1
1
1
1
1
1
1
1
1
1
1
1
1
1.00001
1.00002
1.00004
1.00008
1.00015
1.00031
1.00066
1.00141
1.00306
1.00657
1.01377
1.02725
1.03882
1.03812
1.03917
1.04496
1.05114
1.05613
1.0524
1.06149
1.06912
1.04767
1
1
1
1
1
1
1
1
1
1
1
1
1
1
1
1
1
1
1
1
1.00001
1.00002
1.00004
1.00008
1.00015
1.00031
1.00064
1.00138
1.0032
1.00796
1.02015
1.04182
1.04974
1.04949
1.05079
1.05477
1.05791
1.05687
1.05298
1.04604
1
1
1
1
1
1
1
1
1
1
1
1
1
1
1
1
1
1
1
1
1
1.00001
1.00002
1.00003
1.00006
1.00012
1.00023
1.00047
1.00093
1.00184
1.00364
1.00724
1.01476
1.0287
1.05241
1.05455
1.0547
1.0487
1.05209
1.05114
)
;

boundaryField
{
    inlet
    {
        type            fixedValue;
        value           uniform 1;
    }
    outlet
    {
        type            inletOutlet;
        inletValue      uniform 1;
        value           nonuniform List<scalar> 
40
(
1.08758
1.04083
1.07118
0.975035
1.07917
1.06374
1.10988
1.07841
1.1467
1.04681
1.05216
1.10346
1.14821
1.08868
1.05405
1.06534
1.08585
1.08438
1.09765
1.10918
1.15
1.13257
1.09999
1.13849
1.16462
1.16832
1.15932
1.09555
1.07255
1.12246
1.18363
1.07055
1.09491
1.04918
1.03557
1.07735
1.1059
1.0476
1.04604
1.05114
)
;
    }
    top
    {
        type            symmetryPlane;
    }
    bottom
    {
        type            symmetryPlane;
    }
    step
    {
        type            zeroGradient;
    }
    defaultFaces
    {
        type            empty;
    }
}


// ************************************************************************* //
