/*--------------------------------*- C++ -*----------------------------------*\
  =========                 |
  \\      /  F ield         | OpenFOAM: The Open Source CFD Toolbox
   \\    /   O peration     | Website:  https://openfoam.org
    \\  /    A nd           | Version:  6.0
     \\/     M anipulation  |
\*---------------------------------------------------------------------------*/
FoamFile
{
    version     2.0;
    format      ascii;
    class       volVectorField;
    location    "0.5";
    object      U;
}
// * * * * * * * * * * * * * * * * * * * * * * * * * * * * * * * * * * * * * //

dimensions      [0 1 -1 0 0 0 0];

internalField   nonuniform List<vector> 
4800
(
(3 7.00559e-14 0)
(3 6.0822e-13 0)
(3 2.82019e-12 0)
(3 9.84892e-12 0)
(3 2.85442e-11 0)
(3 7.35947e-11 0)
(3 1.75378e-10 0)
(3 3.94251e-10 0)
(3 8.45815e-10 0)
(3 1.7443e-09 0)
(3 3.47493e-09 0)
(3 6.71119e-09 0)
(3 1.26008e-08 0)
(3 2.30568e-08 0)
(2.99999 4.12149e-08 0)
(2.99998 7.21714e-08 0)
(2.99996 1.24223e-07 0)
(2.99992 2.11038e-07 0)
(2.99983 3.55555e-07 0)
(2.99965 5.96872e-07 0)
(2.99929 1.00201e-06 0)
(2.99854 1.68471e-06 0)
(2.997 2.83346e-06 0)
(2.99383 4.75113e-06 0)
(2.98729 7.92443e-06 0)
(2.97364 1.32877e-05 0)
(2.94471 2.37412e-05 0)
(2.88102 5.14431e-05 0)
(2.72684 0.000170422 0)
(2.23804 -0.000249996 0)
(-0.0639763 -0.0277869 0)
(-1.49104 0.0378867 0)
(-1.04194 0.158381 0)
(-0.642921 -0.0287195 0)
(-0.183615 -0.069162 0)
(0.08543 -0.00648104 0)
(0.760573 0.0252489 0)
(0.944668 0.150755 0)
(-0.0383115 0.151193 0)
(-0.198148 0.124468 0)
(3 1.85896e-13 0)
(3 1.65744e-12 0)
(3 7.49851e-12 0)
(3 2.47596e-11 0)
(3 6.87211e-11 0)
(3 1.72586e-10 0)
(3 4.06809e-10 0)
(3 9.16405e-10 0)
(3 1.99113e-09 0)
(3 4.19443e-09 0)
(3 8.5953e-09 0)
(3 1.71771e-08 0)
(3 3.35457e-08 0)
(3 6.41375e-08 0)
(2.99999 1.20248e-07 0)
(2.99998 2.21382e-07 0)
(2.99996 4.00693e-07 0)
(2.99992 7.13541e-07 0)
(2.99983 1.25039e-06 0)
(2.99965 2.15453e-06 0)
(2.99929 3.64162e-06 0)
(2.99854 6.00641e-06 0)
(2.997 9.56833e-06 0)
(2.99383 1.44246e-05 0)
(2.98729 1.97093e-05 0)
(2.97365 2.18803e-05 0)
(2.94471 1.21493e-05 0)
(2.88103 -2.42509e-05 0)
(2.72666 -6.33676e-05 0)
(2.22894 -0.00184582 0)
(-0.0798818 -0.046635 0)
(-1.37349 0.0675225 0)
(-1.05855 0.0393656 0)
(-0.442518 0.0225098 0)
(0.0254507 0.257511 0)
(0.265312 0.272025 0)
(1.00432 0.335023 0)
(0.83639 0.197292 0)
(-0.159181 0.167089 0)
(-0.234575 0.279903 0)
(3 4.4702e-13 0)
(3 3.32925e-12 0)
(3 1.2918e-11 0)
(3 3.75285e-11 0)
(3 9.43251e-11 0)
(3 2.19926e-10 0)
(3 4.92664e-10 0)
(3 1.07848e-09 0)
(3 2.32401e-09 0)
(3 4.94254e-09 0)
(3 1.038e-08 0)
(3 2.15255e-08 0)
(3 4.40711e-08 0)
(3 8.90808e-08 0)
(2.99999 1.77774e-07 0)
(2.99998 3.5031e-07 0)
(2.99996 6.81658e-07 0)
(2.99992 1.30976e-06 0)
(2.99983 2.48436e-06 0)
(2.99965 4.64858e-06 0)
(2.99929 8.5672e-06 0)
(2.99854 1.55063e-05 0)
(2.997 2.7429e-05 0)
(2.99384 4.70677e-05 0)
(2.98729 7.75782e-05 0)
(2.97363 0.000121554 0)
(2.94465 0.000180941 0)
(2.88081 0.000266401 0)
(2.72563 0.000448394 0)
(2.21862 -0.000153223 0)
(-0.00621309 -0.0400308 0)
(-1.13155 -0.161472 0)
(-0.65682 0.0715861 0)
(-0.0811504 0.517826 0)
(0.314982 1.0184 0)
(0.39032 0.753214 0)
(0.922426 0.972576 0)
(0.645052 0.660193 0)
(-0.246418 0.37354 0)
(-0.268399 0.38011 0)
(3 8.65327e-13 0)
(3 5.69598e-12 0)
(3 1.98144e-11 0)
(3 5.32342e-11 0)
(3 1.25599e-10 0)
(3 2.76908e-10 0)
(3 5.90069e-10 0)
(3 1.23806e-09 0)
(3 2.58243e-09 0)
(3 5.37832e-09 0)
(3 1.11984e-08 0)
(3 2.3304e-08 0)
(3 4.84208e-08 0)
(3 1.00337e-07 0)
(2.99999 2.07148e-07 0)
(2.99998 4.2575e-07 0)
(2.99996 8.70683e-07 0)
(2.99992 1.77109e-06 0)
(2.99983 3.58239e-06 0)
(2.99966 7.20317e-06 0)
(2.99929 1.43936e-05 0)
(2.99855 2.858e-05 0)
(2.99701 5.64053e-05 0)
(2.99385 0.000110765 0)
(2.98731 0.000216967 0)
(2.97366 0.000426204 0)
(2.94469 0.00084914 0)
(2.88081 0.00175379 0)
(2.7254 0.00392409 0)
(2.20692 0.00930255 0)
(-0.31625 -0.00868679 0)
(-1.38307 -0.359462 0)
(-0.75634 0.16572 0)
(0.112627 1.06794 0)
(0.634072 2.06137 0)
(0.51871 0.934187 0)
(0.670234 1.33729 0)
(0.611479 1.5184 0)
(-0.251529 0.801262 0)
(-0.269967 0.330243 0)
(3 1.1146e-12 0)
(3 7.11626e-12 0)
(3 2.41427e-11 0)
(3 6.42499e-11 0)
(3 1.51171e-10 0)
(3 3.327e-10 0)
(3 7.05947e-10 0)
(3 1.46843e-09 0)
(3 3.02172e-09 0)
(3 6.18252e-09 0)
(3 1.26142e-08 0)
(3 2.57133e-08 0)
(3 5.24395e-08 0)
(3 1.07113e-07 0)
(2.99999 2.19323e-07 0)
(2.99998 4.50421e-07 0)
(2.99996 9.27821e-07 0)
(2.99992 1.91594e-06 0)
(2.99983 3.96164e-06 0)
(2.99966 8.18963e-06 0)
(2.9993 1.68977e-05 0)
(2.99855 3.475e-05 0)
(2.99703 7.11722e-05 0)
(2.99389 0.000145189 0)
(2.98739 0.000295365 0)
(2.97383 0.000601014 0)
(2.94506 0.00123102 0)
(2.8817 0.00257157 0)
(2.72779 0.00567013 0)
(2.21226 0.01324 0)
(-0.30771 0.0584684 0)
(-1.10967 -0.132855 0)
(-0.550615 -0.26893 0)
(-0.368935 -0.180515 0)
(0.33001 0.215315 0)
(0.54761 0.52095 0)
(0.470569 -0.248539 0)
(0.467925 0.920149 0)
(-0.268931 0.120445 0)
(-0.15455 0.0369618 0)
(3 1.22768e-12 0)
(3 7.79406e-12 0)
(3 2.63296e-11 0)
(3 7.01242e-11 0)
(3 1.65731e-10 0)
(3 3.66842e-10 0)
(3 7.82048e-10 0)
(3 1.62967e-09 0)
(3 3.34586e-09 0)
(3 6.79889e-09 0)
(3 1.37175e-08 0)
(3 2.75579e-08 0)
(3 5.52827e-08 0)
(3 1.11063e-07 0)
(2.99999 2.24077e-07 0)
(2.99998 4.55072e-07 0)
(2.99996 9.31691e-07 0)
(2.99992 1.92362e-06 0)
(2.99983 4.00102e-06 0)
(2.99966 8.36369e-06 0)
(2.9993 1.75101e-05 0)
(2.99856 3.65637e-05 0)
(2.99705 7.58373e-05 0)
(2.99392 0.000155708 0)
(2.98746 0.000315947 0)
(2.97397 0.000634439 0)
(2.94533 0.00126846 0)
(2.88223 0.00255985 0)
(2.72882 0.00527788 0)
(2.22424 0.0143703 0)
(-0.00948232 0.136984 0)
(-0.750477 -0.451215 0)
(-0.0872969 -1.39458 0)
(-0.0867149 -1.31291 0)
(0.269291 -1.66579 0)
(0.394343 -0.90109 0)
(0.23302 -1.54767 0)
(0.282546 -0.902669 0)
(0.210585 -0.662807 0)
(0.119894 -0.0385611 0)
(3 1.53987e-12 0)
(3 9.49448e-12 0)
(3 3.09756e-11 0)
(3 7.99431e-11 0)
(3 1.84302e-10 0)
(3 4.00587e-10 0)
(3 8.43966e-10 0)
(3 1.74884e-09 0)
(3 3.59069e-09 0)
(3 7.33056e-09 0)
(3 1.49062e-08 0)
(3 3.02217e-08 0)
(3 6.11549e-08 0)
(3 1.23661e-07 0)
(2.99999 2.50251e-07 0)
(2.99998 5.0768e-07 0)
(2.99996 1.03428e-06 0)
(2.99992 2.11941e-06 0)
(2.99984 4.37394e-06 0)
(2.99966 9.09698e-06 0)
(2.99931 1.90649e-05 0)
(2.99857 4.022e-05 0)
(2.99707 8.52565e-05 0)
(2.99397 0.000181176 0)
(2.98755 0.000385179 0)
(2.97415 0.000818612 0)
(2.94567 0.00174301 0)
(2.88288 0.00375381 0)
(2.73091 0.0082494 0)
(2.25607 0.0253335 0)
(0.128871 0.19507 0)
(-1.27988 0.224298 0)
(-0.583901 -0.553711 0)
(-0.0928567 -0.841224 0)
(0.30868 -1.06015 0)
(0.369144 -0.494133 0)
(0.331552 -0.714206 0)
(0.284991 -0.505028 0)
(0.322952 0.0726874 0)
(0.114104 0.241907 0)
(3 2.06723e-12 0)
(3 1.23101e-11 0)
(3 3.85236e-11 0)
(3 9.59202e-11 0)
(3 2.15006e-10 0)
(3 4.57569e-10 0)
(3 9.4994e-10 0)
(3 1.95207e-09 0)
(3 4.00055e-09 0)
(3 8.20372e-09 0)
(3 1.68471e-08 0)
(3 3.46298e-08 0)
(3 7.1179e-08 0)
(3 1.46155e-07 0)
(2.99999 2.99606e-07 0)
(2.99998 6.1303e-07 0)
(2.99996 1.2524e-06 0)
(2.99992 2.55693e-06 0)
(2.99984 5.22474e-06 0)
(2.99966 1.07079e-05 0)
(2.99931 2.20695e-05 0)
(2.99859 4.58724e-05 0)
(2.9971 9.6394e-05 0)
(2.99402 0.000205077 0)
(2.98767 0.000441771 0)
(2.97443 0.000962712 0)
(2.94633 0.00212202 0)
(2.88446 0.00475747 0)
(2.73614 0.0110102 0)
(2.29392 0.0320968 0)
(0.141462 0.189891 0)
(-1.3512 0.00983734 0)
(-0.974566 0.0412531 0)
(-0.39466 -0.225069 0)
(-0.0105091 -0.462587 0)
(0.203676 -0.311615 0)
(0.385585 -0.208369 0)
(0.37673 0.0188115 0)
(0.351015 0.488518 0)
(0.0935263 0.437371 0)
(3 2.48996e-12 0)
(3 1.44484e-11 0)
(3 4.38944e-11 0)
(3 1.07005e-10 0)
(3 2.36673e-10 0)
(3 4.99581e-10 0)
(3 1.03173e-09 0)
(3 2.11314e-09 0)
(3 4.32537e-09 0)
(3 8.88309e-09 0)
(3 1.83269e-08 0)
(3 3.79586e-08 0)
(3 7.87904e-08 0)
(3 1.63563e-07 0)
(2.99999 3.38978e-07 0)
(2.99998 7.00527e-07 0)
(2.99996 1.44292e-06 0)
(2.99992 2.9628e-06 0)
(2.99984 6.06886e-06 0)
(2.99967 1.24147e-05 0)
(2.99932 2.53985e-05 0)
(2.9986 5.20589e-05 0)
(2.99712 0.00010713 0)
(2.99408 0.000221887 0)
(2.9878 0.00046384 0)
(2.97472 0.000981854 0)
(2.94698 0.00211408 0)
(2.88608 0.00466987 0)
(2.74118 0.0107781 0)
(2.32124 0.0294382 0)
(0.195833 0.138048 0)
(-1.35833 0.0790432 0)
(-1.09638 0.120983 0)
(-0.599172 0.134903 0)
(-0.1757 -0.0888564 0)
(0.209769 0.189917 0)
(0.440718 0.199034 0)
(0.443896 0.263028 0)
(0.392254 0.576851 0)
(0.218519 0.719033 0)
(3 2.53108e-12 0)
(3 1.44119e-11 0)
(3 4.28971e-11 0)
(3 1.0345e-10 0)
(3 2.28209e-10 0)
(3 4.82513e-10 0)
(3 9.98939e-10 0)
(3 2.04872e-09 0)
(3 4.19319e-09 0)
(3 8.60622e-09 0)
(3 1.77593e-08 0)
(3 3.68675e-08 0)
(3 7.69133e-08 0)
(3 1.60912e-07 0)
(2.99999 3.36782e-07 0)
(2.99998 7.03622e-07 0)
(2.99996 1.46512e-06 0)
(2.99992 3.03786e-06 0)
(2.99984 6.27071e-06 0)
(2.99967 1.28897e-05 0)
(2.99932 2.64023e-05 0)
(2.99861 5.39464e-05 0)
(2.99715 0.000110105 0)
(2.99414 0.000224899 0)
(2.98793 0.000460924 0)
(2.97498 0.00095143 0)
(2.94758 0.00198978 0)
(2.8875 0.00426068 0)
(2.74521 0.00953706 0)
(2.33908 0.0244909 0)
(0.244838 0.0978826 0)
(-1.36371 0.0924374 0)
(-1.1076 0.134953 0)
(-0.691987 0.237098 0)
(-0.105436 0.416607 0)
(0.468458 1.00209 0)
(0.547556 0.770522 0)
(0.536172 0.487659 0)
(0.486271 0.618417 0)
(0.331909 0.909662 0)
(3 2.23031e-12 0)
(3 1.24533e-11 0)
(3 3.64606e-11 0)
(3 8.79824e-11 0)
(3 1.9658e-10 0)
(3 4.23154e-10 0)
(3 8.91394e-10 0)
(3 1.85195e-09 0)
(3 3.81479e-09 0)
(3 7.8259e-09 0)
(3 1.60526e-08 0)
(3 3.3031e-08 0)
(3 6.83292e-08 0)
(3 1.42206e-07 0)
(2.99999 2.97537e-07 0)
(2.99998 6.24676e-07 0)
(2.99996 1.31279e-06 0)
(2.99992 2.75486e-06 0)
(2.99984 5.76089e-06 0)
(2.99967 1.19884e-05 0)
(2.99933 2.48081e-05 0)
(2.99863 5.10403e-05 0)
(2.99718 0.000104447 0)
(2.9942 0.000212812 0)
(2.98805 0.000432568 0)
(2.97523 0.000880078 0)
(2.94809 0.00180268 0)
(2.88864 0.00375767 0)
(2.74817 0.00814519 0)
(2.35102 0.0198754 0)
(0.27296 0.0729279 0)
(-1.37405 0.0843045 0)
(-1.11589 0.147498 0)
(-0.718851 0.244602 0)
(-0.0937524 0.451649 0)
(0.170845 0.344902 0)
(0.510848 0.47412 0)
(0.521825 0.162649 0)
(0.629476 0.225215 0)
(0.439445 1.05871 0)
(3 1.49377e-12 0)
(3 8.20245e-12 0)
(3 2.39081e-11 0)
(3 5.92799e-11 0)
(3 1.38591e-10 0)
(3 3.14182e-10 0)
(3 6.96606e-10 0)
(3 1.51653e-09 0)
(3 3.25092e-09 0)
(3 6.87951e-09 0)
(3 1.4408e-08 0)
(3 2.99448e-08 0)
(3 6.19371e-08 0)
(3 1.27858e-07 0)
(2.99999 2.64062e-07 0)
(2.99998 5.46514e-07 0)
(2.99996 1.13417e-06 0)
(2.99992 2.35925e-06 0)
(2.99984 4.91371e-06 0)
(2.99968 1.02322e-05 0)
(2.99934 2.1274e-05 0)
(2.99864 4.41097e-05 0)
(2.99721 9.1128e-05 0)
(2.99425 0.000187494 0)
(2.98815 0.000384224 0)
(2.97544 0.000785209 0)
(2.94855 0.00160615 0)
(2.88961 0.00331764 0)
(2.75057 0.00706437 0)
(2.35986 0.0165442 0)
(0.287043 0.0561799 0)
(-1.38231 0.0810588 0)
(-1.1138 0.154854 0)
(-0.721142 0.223995 0)
(0.0217918 0.316822 0)
(0.33406 -0.232169 0)
(0.485902 -0.175612 0)
(0.549124 -0.165767 0)
(0.918872 -0.191763 0)
(0.576548 1.73073 0)
(3 5.2673e-13 0)
(3 2.89681e-12 0)
(3 8.96231e-12 0)
(3 2.55601e-11 0)
(3 6.96539e-11 0)
(3 1.80478e-10 0)
(3 4.46113e-10 0)
(3 1.06052e-09 0)
(3 2.44357e-09 0)
(3 5.48898e-09 0)
(3 1.20688e-08 0)
(3 2.60486e-08 0)
(3 5.53169e-08 0)
(3 1.15838e-07 0)
(2.99999 2.39781e-07 0)
(2.99998 4.91936e-07 0)
(2.99996 1.00318e-06 0)
(2.99992 2.03928e-06 0)
(2.99984 4.14335e-06 0)
(2.99968 8.43257e-06 0)
(2.99934 1.72192e-05 0)
(2.99865 3.53139e-05 0)
(2.99723 7.27629e-05 0)
(2.9943 0.000150577 0)
(2.98825 0.00031267 0)
(2.97564 0.000650734 0)
(2.94895 0.00135717 0)
(2.89048 0.00284655 0)
(2.75261 0.00609696 0)
(2.36655 0.0139576 0)
(0.294881 0.0435876 0)
(-1.38479 0.0857937 0)
(-1.11739 0.158689 0)
(-0.713481 0.221232 0)
(0.126237 0.270436 0)
(0.559106 0.058409 0)
(0.577354 -0.022254 0)
(0.793095 0.113662 0)
(1.1904 0.377115 0)
(0.793581 0.879925 0)
(3 -1.87539e-13 0)
(3 -9.79505e-13 0)
(3 -1.86503e-12 0)
(3 8.65541e-13 0)
(3 1.76168e-11 0)
(3 7.42764e-11 0)
(3 2.32248e-10 0)
(3 6.32866e-10 0)
(3 1.59374e-09 0)
(3 3.81424e-09 0)
(3 8.80681e-09 0)
(3 1.97875e-08 0)
(3 4.34838e-08 0)
(3 9.37455e-08 0)
(2.99999 1.98668e-07 0)
(2.99998 4.14542e-07 0)
(2.99996 8.53161e-07 0)
(2.99992 1.73565e-06 0)
(2.99984 3.49987e-06 0)
(2.99968 7.01824e-06 0)
(2.99935 1.40469e-05 0)
(2.99866 2.81675e-05 0)
(2.99724 5.6794e-05 0)
(2.99433 0.00011551 0)
(2.98832 0.000237551 0)
(2.9758 0.000494716 0)
(2.9493 0.00104413 0)
(2.89126 0.00223775 0)
(2.75448 0.00492633 0)
(2.37205 0.0114249 0)
(0.304921 0.033754 0)
(-1.38025 0.100024 0)
(-1.10761 0.169797 0)
(-0.692404 0.256546 0)
(0.140754 0.298154 0)
(0.529925 0.183591 0)
(0.593665 0.184046 0)
(0.828567 0.417102 0)
(1.08307 1.2934 0)
(0.352892 -0.469066 0)
(3 -6.31572e-13 0)
(3 -3.36278e-12 0)
(3 -8.55663e-12 0)
(3 -1.52371e-11 0)
(3 -1.9473e-11 0)
(3 -9.52164e-12 0)
(3 4.63231e-11 0)
(3 2.28015e-10 0)
(3 7.27069e-10 0)
(3 1.98547e-09 0)
(3 4.99669e-09 0)
(3 1.1951e-08 0)
(3 2.76028e-08 0)
(3 6.21277e-08 0)
(2.99999 1.36994e-07 0)
(2.99998 2.96828e-07 0)
(2.99996 6.3298e-07 0)
(2.99992 1.32976e-06 0)
(2.99985 2.75448e-06 0)
(2.99968 5.63317e-06 0)
(2.99935 1.13967e-05 0)
(2.99866 2.28743e-05 0)
(2.99726 4.57124e-05 0)
(2.99436 9.13494e-05 0)
(2.98837 0.000183427 0)
(2.97591 0.000372096 0)
(2.94955 0.000767428 0)
(2.89184 0.00162293 0)
(2.75597 0.00358222 0)
(2.37652 0.00838496 0)
(0.330224 0.0241011 0)
(-1.36793 0.115394 0)
(-1.08621 0.187913 0)
(-0.659646 0.30181 0)
(0.192657 0.403505 0)
(0.52424 0.324622 0)
(0.610403 0.276248 0)
(1.12333 0.522023 0)
(0.917459 0.785357 0)
(-0.0642996 -0.300546 0)
(3 -7.28047e-13 0)
(3 -3.81312e-12 0)
(3 -9.8242e-12 0)
(3 -1.96629e-11 0)
(3 -3.49231e-11 0)
(3 -5.74496e-11 0)
(3 -8.63006e-11 0)
(3 -1.07946e-10 0)
(3 -6.98753e-11 0)
(3 1.85137e-10 0)
(3 1.07548e-09 0)
(3 3.6423e-09 0)
(3 1.03682e-08 0)
(3 2.70015e-08 0)
(2.99999 6.6558e-08 0)
(2.99998 1.57954e-07 0)
(2.99996 3.64273e-07 0)
(2.99993 8.20615e-07 0)
(2.99985 1.81083e-06 0)
(2.99968 3.92001e-06 0)
(2.99935 8.33316e-06 0)
(2.99867 1.74157e-05 0)
(2.99727 3.58451e-05 0)
(2.99438 7.28492e-05 0)
(2.98841 0.000146749 0)
(2.97599 0.000294564 0)
(2.94972 0.000593649 0)
(2.89222 0.00121573 0)
(2.75689 0.00259427 0)
(2.37907 0.00584517 0)
(0.355504 0.0147109 0)
(-1.35097 0.11812 0)
(-1.06795 0.203571 0)
(-0.624235 0.343644 0)
(0.180567 0.467689 0)
(0.552523 0.381391 0)
(0.660585 0.439041 0)
(1.11887 0.50384 0)
(0.618585 -0.667869 0)
(-0.0141417 -0.334706 0)
(3 -5.22043e-13 0)
(3 -2.57189e-12 0)
(3 -6.15558e-12 0)
(3 -1.22703e-11 0)
(3 -2.44145e-11 0)
(3 -5.11522e-11 0)
(3 -1.1015e-10 0)
(3 -2.34123e-10 0)
(3 -4.77834e-10 0)
(3 -9.20984e-10 0)
(3 -1.6501e-09 0)
(3 -2.67285e-09 0)
(3 -3.64574e-09 0)
(3 -3.12455e-09 0)
(2.99999 3.35005e-09 0)
(2.99998 2.79165e-08 0)
(2.99996 1.01362e-07 0)
(2.99993 2.98146e-07 0)
(2.99985 7.91847e-07 0)
(2.99969 1.97446e-06 0)
(2.99935 4.70566e-06 0)
(2.99867 1.0819e-05 0)
(2.99728 2.41245e-05 0)
(2.9944 5.2356e-05 0)
(2.98845 0.000110926 0)
(2.97606 0.000230291 0)
(2.94986 0.000471385 0)
(2.89252 0.000963022 0)
(2.75755 0.00202148 0)
(2.38035 0.00438553 0)
(0.37023 0.00841558 0)
(-1.33144 0.119167 0)
(-1.04363 0.218306 0)
(-0.584386 0.397099 0)
(0.174696 0.491797 0)
(0.629386 0.353045 0)
(0.650009 0.519052 0)
(0.979561 0.562483 0)
(0.762648 -0.250527 0)
(0.105252 -0.318884 0)
(3 -3.06938e-13 0)
(3 -1.23456e-12 0)
(3 -1.93544e-12 0)
(3 -2.4459e-12 0)
(3 -5.28215e-12 0)
(3 -1.84961e-11 0)
(3 -6.17585e-11 0)
(3 -1.7837e-10 0)
(3 -4.57874e-10 0)
(3 -1.07638e-09 0)
(3 -2.36429e-09 0)
(3 -4.91127e-09 0)
(3 -9.70743e-09 0)
(3 -1.82734e-08 0)
(2.99999 -3.25841e-08 0)
(2.99998 -5.41756e-08 0)
(2.99996 -8.07602e-08 0)
(2.99993 -9.61046e-08 0)
(2.99985 -4.30723e-08 0)
(2.99969 2.4302e-07 0)
(2.99935 1.1903e-06 0)
(2.99868 3.83922e-06 0)
(2.99728 1.05944e-05 0)
(2.99441 2.67932e-05 0)
(2.98847 6.38942e-05 0)
(2.97612 0.000145877 0)
(2.94997 0.0003224 0)
(2.89277 0.000699053 0)
(2.75809 0.00153143 0)
(2.3811 0.00336856 0)
(0.383996 0.00467548 0)
(-1.30938 0.127832 0)
(-1.01198 0.240915 0)
(-0.537404 0.452666 0)
(0.139647 0.515958 0)
(0.674208 0.356064 0)
(0.673439 0.554408 0)
(0.839208 0.629081 0)
(0.780206 0.213578 0)
(0.221858 -0.286196 0)
(3 -2.60765e-13 0)
(3 -7.57145e-13 0)
(3 1.74949e-13 0)
(3 3.71086e-12 0)
(3 9.57592e-12 0)
(3 1.42582e-11 0)
(3 6.63273e-12 0)
(3 -4.20336e-11 0)
(3 -1.99338e-10 0)
(3 -6.14881e-10 0)
(3 -1.60473e-09 0)
(3 -3.81202e-09 0)
(3 -8.50489e-09 0)
(3 -1.81148e-08 0)
(2.99999 -3.71746e-08 0)
(2.99998 -7.38495e-08 0)
(2.99996 -1.42136e-07 0)
(2.99993 -2.64144e-07 0)
(2.99985 -4.69783e-07 0)
(2.99969 -7.85594e-07 0)
(2.99936 -1.19138e-06 0)
(2.99868 -1.49388e-06 0)
(2.99728 -1.0015e-06 0)
(2.99441 2.2641e-06 0)
(2.98849 1.34286e-05 0)
(2.97615 4.51374e-05 0)
(2.95006 0.000128044 0)
(2.89297 0.000337753 0)
(2.75858 0.000879116 0)
(2.38169 0.00219727 0)
(0.401182 0.00175841 0)
(-1.28319 0.142212 0)
(-0.977335 0.274109 0)
(-0.486603 0.49776 0)
(0.181693 0.587606 0)
(0.924695 0.840778 0)
(0.702915 0.876827 0)
(0.751339 0.663502 0)
(0.755639 0.579381 0)
(0.272781 -0.144676 0)
(3 -3.014e-13 0)
(3 -7.16213e-13 0)
(3 1.22704e-12 0)
(3 8.11702e-12 0)
(3 2.29327e-11 0)
(3 4.94943e-11 0)
(3 9.172e-11 0)
(3 1.49669e-10 0)
(3 2.07908e-10 0)
(3 2.06523e-10 0)
(3 -2.49299e-11 0)
(3 -9.09223e-10 0)
(3 -3.41439e-09 0)
(3 -9.64564e-09 0)
(2.99999 -2.40288e-08 0)
(2.99998 -5.56576e-08 0)
(2.99996 -1.22878e-07 0)
(2.99993 -2.61966e-07 0)
(2.99985 -5.4275e-07 0)
(2.99969 -1.09477e-06 0)
(2.99935 -2.147e-06 0)
(2.99868 -4.08007e-06 0)
(2.99728 -7.47863e-06 0)
(2.99441 -1.31386e-05 0)
(2.98849 -2.18722e-05 0)
(2.97616 -3.35184e-05 0)
(2.95008 -4.28611e-05 0)
(2.89306 -2.37764e-05 0)
(2.75885 0.00013243 0)
(2.38199 0.000675444 0)
(0.426842 -0.0019257 0)
(-1.25248 0.159158 0)
(-0.94368 0.314073 0)
(-0.434984 0.544509 0)
(0.481897 1.01711 0)
(1.03605 1.83172 0)
(0.588447 1.08618 0)
(0.320931 1.03348 0)
(0.522575 0.725408 0)
(0.368308 0.263747 0)
(3 -1.66017e-13 0)
(3 1.99899e-13 0)
(3 4.39883e-12 0)
(3 1.65855e-11 0)
(3 4.36573e-11 0)
(3 9.824e-11 0)
(3 2.02337e-10 0)
(3 3.91065e-10 0)
(3 7.13949e-10 0)
(3 1.22655e-09 0)
(3 1.95539e-09 0)
(3 2.79974e-09 0)
(3 3.29599e-09 0)
(3 2.09482e-09 0)
(2.99999 -4.15767e-09 0)
(2.99998 -2.31897e-08 0)
(2.99996 -7.21265e-08 0)
(2.99993 -1.88091e-07 0)
(2.99985 -4.50173e-07 0)
(2.99969 -1.02343e-06 0)
(2.99935 -2.2432e-06 0)
(2.99868 -4.76959e-06 0)
(2.99728 -9.86011e-06 0)
(2.99441 -1.98399e-05 0)
(2.98848 -3.88923e-05 0)
(2.97614 -7.42525e-05 0)
(2.95006 -0.000137211 0)
(2.89302 -0.000239718 0)
(2.7588 -0.000367404 0)
(2.38133 -0.00054838 0)
(0.455095 -0.00634973 0)
(-1.21642 0.171684 0)
(-0.90984 0.355645 0)
(-0.383549 0.584385 0)
(0.480355 1.02979 0)
(0.567565 1.22999 0)
(0.510648 0.303899 0)
(0.244153 0.610715 0)
(0.334825 0.848803 0)
(0.231617 0.612279 0)
(3 3.50744e-13 0)
(3 2.96548e-12 0)
(3 1.18491e-11 0)
(3 3.25577e-11 0)
(3 7.55283e-11 0)
(3 1.6123e-10 0)
(3 3.28267e-10 0)
(3 6.45678e-10 0)
(3 1.22942e-09 0)
(3 2.25932e-09 0)
(3 3.98437e-09 0)
(3 6.68663e-09 0)
(3 1.05384e-08 0)
(3 1.52175e-08 0)
(2.99999 1.89988e-08 0)
(2.99998 1.67109e-08 0)
(2.99996 -4.84073e-09 0)
(2.99993 -7.72124e-08 0)
(2.99985 -2.73614e-07 0)
(2.99968 -7.60089e-07 0)
(2.99935 -1.90302e-06 0)
(2.99867 -4.48246e-06 0)
(2.99728 -1.0091e-05 0)
(2.9944 -2.18399e-05 0)
(2.98847 -4.55501e-05 0)
(2.97612 -9.16144e-05 0)
(2.95001 -0.000177297 0)
(2.89293 -0.000326937 0)
(2.75858 -0.000558819 0)
(2.37984 -0.00105781 0)
(0.478081 -0.00911747 0)
(-1.17499 0.183945 0)
(-0.874631 0.391906 0)
(-0.347137 0.601561 0)
(0.426453 0.981886 0)
(0.570167 0.972926 0)
(0.558016 0.230035 0)
(0.410592 0.150931 0)
(0.370577 0.418404 0)
(0.102593 0.590644 0)
(3 1.25868e-12 0)
(3 7.57989e-12 0)
(3 2.34378e-11 0)
(3 5.5652e-11 0)
(3 1.17365e-10 0)
(3 2.34378e-10 0)
(3 4.56892e-10 0)
(3 8.80384e-10 0)
(3 1.6793e-09 0)
(3 3.15513e-09 0)
(3 5.79447e-09 0)
(3 1.03191e-08 0)
(3 1.7685e-08 0)
(3 2.89377e-08 0)
(2.99999 4.47265e-08 0)
(2.99998 6.40395e-08 0)
(2.99996 8.11009e-08 0)
(2.99992 7.77688e-08 0)
(2.99985 4.81577e-09 0)
(2.99968 -2.63414e-07 0)
(2.99935 -1.03411e-06 0)
(2.99867 -3.02421e-06 0)
(2.99727 -7.81849e-06 0)
(2.9944 -1.87114e-05 0)
(2.98846 -4.21055e-05 0)
(2.97609 -8.952e-05 0)
(2.94996 -0.000179584 0)
(2.89282 -0.000337041 0)
(2.75831 -0.000578099 0)
(2.37805 -0.00113902 0)
(0.500974 -0.0099102 0)
(-1.12844 0.199629 0)
(-0.841657 0.418791 0)
(-0.326714 0.608661 0)
(0.365701 0.93642 0)
(0.56952 0.833457 0)
(0.60056 0.373906 0)
(0.644801 -0.068531 0)
(0.303534 0.466457 0)
(-0.00920141 0.686958 0)
(3 2.23815e-12 0)
(3 1.24418e-11 0)
(3 3.53672e-11 0)
(3 7.94457e-11 0)
(3 1.60603e-10 0)
(3 3.08714e-10 0)
(3 5.81057e-10 0)
(3 1.08943e-09 0)
(3 2.0508e-09 0)
(3 3.87417e-09 0)
(3 7.29505e-09 0)
(3 1.35617e-08 0)
(3 2.46625e-08 0)
(3 4.35681e-08 0)
(2.99999 7.444e-08 0)
(2.99998 1.22712e-07 0)
(2.99996 1.94705e-07 0)
(2.99992 2.95554e-07 0)
(2.99985 4.21352e-07 0)
(2.99968 5.3383e-07 0)
(2.99935 4.88182e-07 0)
(2.99867 -1.50515e-07 0)
(2.99727 -2.52498e-06 0)
(2.99439 -9.33038e-06 0)
(2.98844 -2.62952e-05 0)
(2.97607 -6.42443e-05 0)
(2.9499 -0.000140503 0)
(2.89271 -0.00027506 0)
(2.75799 -0.000467817 0)
(2.37608 -0.000949754 0)
(0.524313 -0.00937432 0)
(-1.07786 0.215186 0)
(-0.807397 0.437033 0)
(-0.311208 0.621872 0)
(0.313081 0.907206 0)
(0.563019 0.78723 0)
(0.615921 0.374253 0)
(0.674061 0.0156816 0)
(0.312368 0.41414 0)
(-0.0677501 0.881599 0)
(3 2.66194e-12 0)
(3 1.44316e-11 0)
(3 4.01169e-11 0)
(3 9.00116e-11 0)
(3 1.83618e-10 0)
(3 3.56143e-10 0)
(3 6.71884e-10 0)
(3 1.25261e-09 0)
(3 2.33723e-09 0)
(3 4.402e-09 0)
(3 8.38508e-09 0)
(3 1.60702e-08 0)
(3 3.06829e-08 0)
(3 5.77452e-08 0)
(2.99999 1.06271e-07 0)
(2.99998 1.9055e-07 0)
(2.99996 3.33189e-07 0)
(2.99993 5.70632e-07 0)
(2.99985 9.62256e-07 0)
(2.99968 1.60079e-06 0)
(2.99935 2.60921e-06 0)
(2.99867 4.07724e-06 0)
(2.99727 5.82834e-06 0)
(2.99439 6.82269e-06 0)
(2.98844 3.97466e-06 0)
(2.97605 -9.48642e-06 0)
(2.94985 -4.42913e-05 0)
(2.8926 -0.000107288 0)
(2.75769 -0.000165006 0)
(2.37416 -0.000368425 0)
(0.549565 -0.00725387 0)
(-1.02433 0.22884 0)
(-0.767877 0.449063 0)
(-0.290693 0.640231 0)
(0.283912 0.889364 0)
(0.551745 0.780423 0)
(0.619862 0.394551 0)
(0.729686 0.117401 0)
(0.414159 0.416241 0)
(-0.0784465 1.11503 0)
(3 2.13604e-12 0)
(3 1.15677e-11 0)
(3 3.25694e-11 0)
(3 7.60277e-11 0)
(3 1.63871e-10 0)
(3 3.36979e-10 0)
(3 6.69516e-10 0)
(3 1.29655e-09 0)
(3 2.47218e-09 0)
(3 4.69777e-09 0)
(3 8.99921e-09 0)
(3 1.74892e-08 0)
(3 3.44081e-08 0)
(3 6.78686e-08 0)
(2.99999 1.32534e-07 0)
(2.99998 2.53577e-07 0)
(2.99996 4.72994e-07 0)
(2.99993 8.61542e-07 0)
(2.99985 1.54426e-06 0)
(2.99968 2.7544e-06 0)
(2.99935 4.93525e-06 0)
(2.99867 8.89955e-06 0)
(2.99727 1.60114e-05 0)
(2.99439 2.82695e-05 0)
(2.98844 4.81342e-05 0)
(2.97604 7.83764e-05 0)
(2.94983 0.000124398 0)
(2.89254 0.000208245 0)
(2.75745 0.000426001 0)
(2.37247 0.000804791 0)
(0.575622 -0.00334056 0)
(-0.96997 0.239736 0)
(-0.725001 0.458788 0)
(-0.26178 0.660578 0)
(0.270528 0.879676 0)
(0.541109 0.775238 0)
(0.622102 0.463137 0)
(0.732439 0.235113 0)
(0.576249 0.341873 0)
(-0.0248157 1.27465 0)
(3 1.03529e-12 0)
(3 5.72273e-12 0)
(3 1.69917e-11 0)
(3 4.35985e-11 0)
(3 1.05294e-10 0)
(3 2.42807e-10 0)
(3 5.35408e-10 0)
(3 1.13125e-09 0)
(3 2.30307e-09 0)
(3 4.5629e-09 0)
(3 8.92111e-09 0)
(3 1.74811e-08 0)
(3 3.47406e-08 0)
(3 7.0207e-08 0)
(2.99999 1.43146e-07 0)
(2.99998 2.90377e-07 0)
(2.99996 5.78243e-07 0)
(2.99993 1.12152e-06 0)
(2.99985 2.11861e-06 0)
(2.99969 3.92962e-06 0)
(2.99935 7.25788e-06 0)
(2.99867 1.35437e-05 0)
(2.99728 2.57212e-05 0)
(2.9944 4.94781e-05 0)
(2.98845 9.50941e-05 0)
(2.97606 0.000180175 0)
(2.94987 0.000335744 0)
(2.89257 0.000626532 0)
(2.75743 0.00123007 0)
(2.37142 0.00241277 0)
(0.603064 0.00163502 0)
(-0.91489 0.246802 0)
(-0.679455 0.470315 0)
(-0.22667 0.681209 0)
(0.268422 0.876644 0)
(0.531978 0.786277 0)
(0.617734 0.540981 0)
(0.700668 0.289984 0)
(0.719331 0.305976 0)
(0.0807668 1.31858 0)
(3 1.76226e-13 0)
(3 1.07413e-12 0)
(3 3.96276e-12 0)
(3 1.36077e-11 0)
(3 4.28738e-11 0)
(3 1.2286e-10 0)
(3 3.22891e-10 0)
(3 7.86797e-10 0)
(3 1.79563e-09 0)
(3 3.87787e-09 0)
(3 8.02357e-09 0)
(3 1.61604e-08 0)
(3 3.22941e-08 0)
(3 6.52045e-08 0)
(2.99999 1.34384e-07 0)
(2.99998 2.81875e-07 0)
(2.99996 5.93457e-07 0)
(2.99993 1.2331e-06 0)
(2.99985 2.49707e-06 0)
(2.99969 4.90761e-06 0)
(2.99936 9.41137e-06 0)
(2.99868 1.78565e-05 0)
(2.99728 3.4121e-05 0)
(2.99441 6.65376e-05 0)
(2.98848 0.000132497 0)
(2.97612 0.000266177 0)
(2.94996 0.000530934 0)
(2.89274 0.00104418 0)
(2.75766 0.00206625 0)
(2.37106 0.00411005 0)
(0.62857 0.00681601 0)
(-0.860437 0.252186 0)
(-0.63008 0.487211 0)
(-0.187645 0.703313 0)
(0.273711 0.875988 0)
(0.525342 0.7989 0)
(0.606574 0.606068 0)
(0.679493 0.339135 0)
(0.844324 0.336551 0)
(0.221088 1.28379 0)
(3 6.10631e-15 0)
(3 -1.16605e-15 0)
(3 1.55763e-13 0)
(3 2.08481e-12 0)
(3 1.15458e-11 0)
(3 4.58004e-11 0)
(3 1.51332e-10 0)
(3 4.4175e-10 0)
(3 1.17131e-09 0)
(3 2.86632e-09 0)
(3 6.54981e-09 0)
(3 1.41401e-08 0)
(3 2.92629e-08 0)
(3 5.91798e-08 0)
(2.99999 1.19635e-07 0)
(2.99998 2.46574e-07 0)
(2.99996 5.22027e-07 0)
(2.99993 1.12521e-06 0)
(2.99985 2.42239e-06 0)
(2.99969 5.11125e-06 0)
(2.99936 1.04524e-05 0)
(2.99868 2.07041e-05 0)
(2.99729 4.01295e-05 0)
(2.99443 7.75149e-05 0)
(2.98852 0.000152119 0)
(2.97619 0.000306289 0)
(2.95012 0.000629447 0)
(2.89305 0.00130164 0)
(2.75821 0.00270274 0)
(2.37162 0.00563963 0)
(0.654775 0.0119345 0)
(-0.805521 0.259403 0)
(-0.580526 0.51024 0)
(-0.14696 0.729877 0)
(0.282833 0.874718 0)
(0.52111 0.808463 0)
(0.599212 0.656714 0)
(0.667925 0.416932 0)
(0.941995 0.366041 0)
(0.385517 1.13084 0)
(3 2.51868e-13 0)
(3 1.20909e-12 0)
(3 2.93084e-12 0)
(3 6.23842e-12 0)
(3 1.36728e-11 0)
(3 3.31879e-11 0)
(3 8.95672e-11 0)
(3 2.54374e-10 0)
(3 7.16322e-10 0)
(3 1.93005e-09 0)
(3 4.89925e-09 0)
(3 1.16675e-08 0)
(3 2.61278e-08 0)
(3 5.54379e-08 0)
(2.99999 1.12998e-07 0)
(2.99998 2.25931e-07 0)
(2.99996 4.54641e-07 0)
(2.99993 9.40843e-07 0)
(2.99985 2.0132e-06 0)
(2.99969 4.39193e-06 0)
(2.99936 9.53723e-06 0)
(2.99869 2.01886e-05 0)
(2.9973 4.12242e-05 0)
(2.99445 8.13817e-05 0)
(2.98855 0.00015762 0)
(2.97627 0.000306689 0)
(2.95029 0.000613834 0)
(2.89344 0.00127924 0)
(2.75907 0.0027887 0)
(2.37339 0.0063414 0)
(0.684249 0.01623 0)
(-0.7483 0.269357 0)
(-0.534238 0.529352 0)
(-0.104121 0.759924 0)
(0.294259 0.876467 0)
(0.520254 0.825955 0)
(0.599481 0.710487 0)
(0.669822 0.509882 0)
(1.00519 0.402904 0)
(0.536393 0.838405 0)
(3 5.19502e-13 0)
(3 2.7214e-12 0)
(3 7.32938e-12 0)
(3 1.62506e-11 0)
(3 3.30488e-11 0)
(3 6.47639e-11 0)
(3 1.27798e-10 0)
(3 2.65639e-10 0)
(3 5.98907e-10 0)
(3 1.45377e-09 0)
(3 3.65786e-09 0)
(3 9.14919e-09 0)
(3 2.20917e-08 0)
(3 5.07072e-08 0)
(2.99999 1.10098e-07 0)
(2.99998 2.26933e-07 0)
(2.99996 4.49511e-07 0)
(2.99993 8.74606e-07 0)
(2.99985 1.72086e-06 0)
(2.99969 3.51181e-06 0)
(2.99936 7.47596e-06 0)
(2.99869 1.63011e-05 0)
(2.99731 3.53576e-05 0)
(2.99447 7.44726e-05 0)
(2.98859 0.00015071 0)
(2.97635 0.000294646 0)
(2.95044 0.000569318 0)
(2.89377 0.00112974 0)
(2.75991 0.00241845 0)
(2.37595 0.0057947 0)
(0.720337 0.0179251 0)
(-0.688488 0.282924 0)
(-0.485896 0.543124 0)
(-0.0629311 0.777685 0)
(0.306382 0.883353 0)
(0.525854 0.851722 0)
(0.608954 0.767182 0)
(0.680147 0.611908 0)
(0.998506 0.447382 0)
(0.652437 0.613766 0)
(3 7.3416e-13 0)
(3 4.10395e-12 0)
(3 1.1998e-11 0)
(3 2.84853e-11 0)
(3 6.10631e-11 0)
(3 1.23128e-10 0)
(3 2.38555e-10 0)
(3 4.52069e-10 0)
(3 8.57787e-10 0)
(3 1.68099e-09 0)
(3 3.50056e-09 0)
(3 7.80226e-09 0)
(3 1.82162e-08 0)
(3 4.29743e-08 0)
(2.99999 9.91926e-08 0)
(2.99998 2.19396e-07 0)
(2.99996 4.60591e-07 0)
(2.99993 9.18286e-07 0)
(2.99985 1.75847e-06 0)
(2.99969 3.31263e-06 0)
(2.99937 6.35386e-06 0)
(2.9987 1.28008e-05 0)
(2.99732 2.72542e-05 0)
(2.99449 5.98401e-05 0)
(2.98863 0.000130649 0)
(2.97641 0.000275981 0)
(2.95057 0.000559515 0)
(2.89402 0.0011084 0)
(2.76048 0.00227027 0)
(2.37804 0.00528191 0)
(0.760369 0.0176284 0)
(-0.628026 0.290511 0)
(-0.441323 0.554085 0)
(-0.0241032 0.786158 0)
(0.322764 0.893415 0)
(0.53717 0.870281 0)
(0.626459 0.815003 0)
(0.68749 0.7078 0)
(0.9691 0.502724 0)
(0.76256 0.479906 0)
(3 8.02049e-13 0)
(3 4.82452e-12 0)
(3 1.53331e-11 0)
(3 3.88879e-11 0)
(3 8.80874e-11 0)
(3 1.86458e-10 0)
(3 3.75753e-10 0)
(3 7.27138e-10 0)
(3 1.36117e-09 0)
(3 2.49315e-09 0)
(3 4.55637e-09 0)
(3 8.55192e-09 0)
(3 1.69949e-08 0)
(3 3.62556e-08 0)
(2.99999 8.17466e-08 0)
(2.99998 1.88065e-07 0)
(2.99996 4.26235e-07 0)
(2.99993 9.291e-07 0)
(2.99985 1.9258e-06 0)
(2.99969 3.79758e-06 0)
(2.99937 7.21856e-06 0)
(2.9987 1.35913e-05 0)
(2.99733 2.6314e-05 0)
(2.99451 5.40058e-05 0)
(2.98866 0.000117641 0)
(2.97649 0.000264256 0)
(2.95072 0.000590587 0)
(2.89432 0.00128784 0)
(2.76109 0.00278552 0)
(2.37989 0.00646288 0)
(0.793731 0.0205713 0)
(-0.568851 0.294016 0)
(-0.398693 0.570401 0)
(0.00692742 0.798214 0)
(0.33738 0.902688 0)
(0.553582 0.876861 0)
(0.655122 0.848344 0)
(0.699942 0.783229 0)
(0.930332 0.586682 0)
(0.838487 0.494333 0)
(3 5.44385e-13 0)
(3 3.8774e-12 0)
(3 1.43651e-11 0)
(3 4.01954e-11 0)
(3 9.7607e-11 0)
(3 2.18646e-10 0)
(3 4.63315e-10 0)
(3 9.38279e-10 0)
(3 1.82569e-09 0)
(3 3.43012e-09 0)
(3 6.26888e-09 0)
(3 1.12911e-08 0)
(3 2.04905e-08 0)
(3 3.86511e-08 0)
(2.99999 7.80516e-08 0)
(2.99998 1.70056e-07 0)
(2.99996 3.9076e-07 0)
(2.99993 9.11299e-07 0)
(2.99985 2.08468e-06 0)
(2.99969 4.58014e-06 0)
(2.99937 9.5892e-06 0)
(2.9987 1.92182e-05 0)
(2.99734 3.75002e-05 0)
(2.99452 7.32995e-05 0)
(2.9887 0.000148279 0)
(2.97657 0.000317008 0)
(2.95092 0.000713762 0)
(2.89477 0.00165667 0)
(2.76217 0.00390839 0)
(2.38312 0.0096799 0)
(0.826116 0.0304521 0)
(-0.510339 0.309067 0)
(-0.356463 0.593474 0)
(0.0278136 0.811659 0)
(0.349674 0.912383 0)
(0.572101 0.886575 0)
(0.690363 0.861013 0)
(0.720528 0.831124 0)
(0.893453 0.665742 0)
(0.846859 0.542687 0)
(3 2.15973e-15 0)
(3 1.33293e-12 0)
(3 8.79062e-12 0)
(3 3.08395e-11 0)
(3 8.48424e-11 0)
(3 2.07463e-10 0)
(3 4.73223e-10 0)
(3 1.02773e-09 0)
(3 2.14707e-09 0)