/*--------------------------------*- C++ -*----------------------------------*\
  =========                 |
  \\      /  F ield         | OpenFOAM: The Open Source CFD Toolbox
   \\    /   O peration     | Website:  https://openfoam.org
    \\  /    A nd           | Version:  6.0
     \\/     M anipulation  |
\*---------------------------------------------------------------------------*/
FoamFile
{
    version     2.0;
    format      ascii;
    class       surfaceScalarField;
    location    "1";
    object      phi;
}
// * * * * * * * * * * * * * * * * * * * * * * * * * * * * * * * * * * * * * //

dimensions      [1 0 -1 0 0 0 0];

internalField   nonuniform List<scalar> 
69200
(
0.00016425
1.71032e-12
4.68439e-05
0.000147739
8.6228e-13
1.65105e-05
0.000140513
2.29729e-12
7.2247e-06
0.000135214
1.13674e-12
5.29913e-06
0.000131614
2.29914e-12
3.60149e-06
0.000128991
1.88585e-12
2.62364e-06
0.000126837
5.4553e-12
2.15299e-06
0.000125177
6.68812e-12
1.65852e-06
0.000124145
1.35432e-11
1.03303e-06
0.000122892
2.89225e-11
1.25506e-06
0.000121431
5.24919e-11
1.46357e-06
0.000119782
8.81562e-11
1.65104e-06
0.000117883
1.3735e-10
1.90318e-06
0.000115337
1.81942e-10
2.5517e-06
0.000111006
5.44202e-11
4.34329e-06
0.000103523
-1.49014e-09
7.49905e-06
9.96803e-05
-1.7829e-08
4.00858e-06
0.000111957
2.66499e-07
-1.35603e-05
5.79653e-05
1.61481e-06
5.17826e-05
-1.65604e-06
5.92275e-05
0.00016425
3.62187e-12
4.68439e-05
0.000147739
2.023e-12
1.65106e-05
0.000140513
5.0809e-12
7.2247e-06
0.000135214
2.51286e-12
5.29913e-06
0.000131614
5.25484e-12
3.60148e-06
0.000128991
4.13843e-12
2.62365e-06
0.000126837
1.24175e-11
2.15299e-06
0.000125177
1.36091e-11
1.65852e-06
0.000124145
4.00877e-11
1.033e-06
0.000122892
8.47596e-11
1.25504e-06
0.000121431
1.50029e-10
1.46355e-06
0.000119782
2.51355e-10
1.65102e-06
0.000117883
4.12357e-10
1.90316e-06
0.000115337
6.57684e-10
2.55173e-06
0.000111004
8.66194e-10
4.34346e-06
0.000103516
-5.27783e-10
7.50238e-06
9.97071e-05
-2.22172e-08
3.96015e-06
0.000111688
1.00688e-06
-1.3737e-05
5.87635e-05
3.39354e-06
5.05499e-05
4.39689e-07
5.6337e-05
0.00016425
6.08745e-12
4.68439e-05
0.000147739
3.41819e-12
1.65106e-05
0.000140513
8.65899e-12
7.22469e-06
0.000135214
4.06302e-12
5.29913e-06
0.000131614
9.02681e-12
3.60148e-06
0.000128991
7.01745e-12
2.62365e-06
0.000126837
2.19655e-11
2.15298e-06
0.000125177
2.04325e-11
1.65853e-06
0.000124145
9.14701e-11
1.03295e-06
0.000122892
1.93101e-10
1.25499e-06
0.000121431
3.3564e-10
1.46351e-06
0.000119782
5.59808e-10
1.65098e-06
0.000117882
9.4603e-10
1.90312e-06
0.000115336
1.65787e-09
2.55177e-06
0.000111001
2.93326e-09
4.3436e-06
0.000103504
3.95178e-09
7.50835e-06
9.97451e-05
-1.22343e-08
3.89421e-06
0.000111384
2.35428e-06
-1.40014e-05
5.86811e-05
6.0906e-06
4.94107e-05
4.21407e-06
5.45827e-05
0.00016425
9.2987e-12
4.68439e-05
0.000147739
5.30208e-12
1.65106e-05
0.000140513
1.3423e-11
7.22467e-06
0.000135214
5.85759e-12
5.29914e-06
0.000131614
1.40607e-11
3.60147e-06
0.000128991
1.04652e-11
2.62366e-06
0.000126837
3.52097e-11
2.15297e-06
0.000125177
2.71323e-11
1.65855e-06
0.000124145
1.81163e-10
1.03288e-06
0.000122892
3.825e-10
1.25492e-06
0.000121431
6.57574e-10
1.46344e-06
0.000119782
1.09366e-09
1.65091e-06
0.000117881
1.88093e-09
1.90304e-06
0.000115334
3.46351e-09
2.55176e-06
0.000110998
6.866e-09
4.34357e-06
0.000103486
1.35081e-08
7.51736e-06
9.97779e-05
1.98107e-08
3.81988e-06
0.000110988
4.42322e-06
-1.42911e-05
5.84247e-05
9.87897e-06
4.81776e-05
1.04621e-05
5.18834e-05
0.00016425
1.37342e-11
4.68438e-05
0.000147739
7.75928e-12
1.65106e-05
0.000140513
1.98278e-11
7.22465e-06
0.000135214
7.9506e-12
5.29916e-06
0.000131614
2.08056e-11
3.60146e-06
0.000128991
1.44616e-11
2.62367e-06
0.000126837
5.35193e-11
2.15295e-06
0.000125177
3.38037e-11
1.6586e-06
0.000124145
3.24241e-10
1.03279e-06
0.000122892
6.8531e-10
1.2548e-06
0.00012143
1.17086e-09
1.46332e-06
0.000119781
1.94466e-09
1.6508e-06
0.000117881
3.38177e-09
1.90293e-06
0.000115332
6.41034e-09
2.55176e-06
0.000110993
1.34595e-08
4.34332e-06
0.000103463
3.02835e-08
7.52882e-06
9.98033e-05
8.20109e-08
3.73895e-06
0.000110504
7.31508e-06
-1.46004e-05
5.80332e-05
1.49076e-05
4.68421e-05
1.90598e-05
4.91447e-05
0.00016425
1.99134e-11
4.68438e-05
0.000147739
1.09517e-11
1.65107e-05
0.000140513
2.84334e-11
7.22462e-06
0.000135214
1.03764e-11
5.29918e-06
0.000131614
2.9885e-11
3.60144e-06
0.000128991
1.90288e-11
2.62369e-06
0.000126837
7.84683e-11
2.1529e-06
0.000125177
4.04592e-11
1.6587e-06
0.000124145
5.38687e-10
1.03269e-06
0.000122892
1.14035e-09
1.25463e-06
0.00012143
1.94257e-09
1.46313e-06
0.000119781
3.22746e-09
1.65065e-06
0.000117879
5.66066e-09
1.90282e-06
0.000115329
1.09448e-08
2.55182e-06
0.000110987
2.38274e-08
4.34278e-06
0.000103433
5.75921e-08
7.54092e-06
9.9822e-05
1.85424e-07
3.64757e-06
0.000109934
1.11448e-05
-1.49457e-05
5.75405e-05
2.12979e-05
4.54003e-05
2.9895e-05
4.64091e-05
0.00016425
2.8257e-11
4.68437e-05
0.000147739
1.52769e-11
1.65107e-05
0.000140513
3.98531e-11
7.22457e-06
0.000135214
1.34754e-11
5.2992e-06
0.000131614
4.20061e-11
3.60142e-06
0.000128991
2.35161e-11
2.62373e-06
0.000126837
1.12446e-10
2.15282e-06
0.000125177
4.75389e-11
1.65888e-06
0.000124145
8.46945e-10
1.03256e-06
0.000122892
1.7964e-09
1.25438e-06
0.00012143
3.05814e-09
1.46285e-06
0.00011978
5.09217e-09
1.65042e-06
0.000117878
9.0073e-09
1.90266e-06
0.000115325
1.77073e-08
2.55183e-06
0.000110978
3.96271e-08
4.34177e-06
0.000103396
1.00582e-07
7.55331e-06
9.98362e-05
3.51136e-07
3.53153e-06
0.0001093
1.60196e-05
-1.53398e-05
5.69268e-05
2.92322e-05
4.38331e-05
4.26908e-05
4.38383e-05
0.00016425
3.97109e-11
4.68437e-05
0.000147739
2.08359e-11
1.65108e-05
0.000140513
5.4808e-11
7.22451e-06
0.000135214
1.72188e-11
5.29924e-06
0.000131614
5.78862e-11
3.60138e-06
0.000128991
2.76843e-11
2.62378e-06
0.000126837
1.58293e-10
2.15269e-06
0.000125177
5.42068e-11
1.65919e-06
0.000124145
1.278e-09
1.03242e-06
0.000122892
2.71616e-09
1.25402e-06
0.00012143
4.62751e-09
1.46243e-06
0.00011978
7.73377e-09
1.65006e-06
0.000117876
1.38021e-08
1.90239e-06
0.00011532
2.75418e-08
2.55166e-06
0.000110967
6.3028e-08
4.33992e-06
0.000103349
1.65793e-07
7.56648e-06
9.98481e-05
6.05323e-07
3.38177e-06
0.000108616
2.20585e-05
-1.58051e-05
5.62222e-05
3.89466e-05
4.20759e-05
5.70083e-05
4.15889e-05
0.00016425
5.55886e-11
4.68435e-05
0.000147739
2.75867e-11
1.6511e-05
0.000140513
7.41189e-11
7.22442e-06
0.000135214
2.13148e-11
5.2993e-06
0.000131614
7.78158e-11
3.60133e-06
0.000128991
3.12764e-11
2.62385e-06
0.000126837
2.19627e-10
2.15249e-06
0.000125176
5.87111e-11
1.65965e-06
0.000124145
1.86798e-09
1.03225e-06
0.000122892
3.97704e-09
1.25351e-06
0.00012143
6.78498e-09
1.46181e-06
0.000119779
1.13882e-08
1.64951e-06
0.000117873
2.05023e-08
1.90194e-06
0.000115314
4.14582e-08
2.55118e-06
0.000110953
9.66125e-08
4.33694e-06
0.000103291
2.61035e-07
7.58034e-06
9.98536e-05
9.79702e-07
3.19507e-06
0.000107897
2.93985e-05
-1.63787e-05
5.58516e-05
5.01518e-05
4.02356e-05
7.37971e-05
3.87579e-05
0.00016425
7.67227e-11
4.68434e-05
0.000147739
3.57559e-11
1.65112e-05
0.000140514
9.88412e-11
7.2243e-06
0.000135214
2.53313e-11
5.29937e-06
0.000131614
1.02319e-10
3.60127e-06
0.000128991
3.29998e-11
2.62397e-06
0.000126837
3.00107e-10
2.1522e-06
0.000125176
6.04666e-11
1.66034e-06
0.000124144
2.65989e-09
1.03203e-06
0.000122891
5.67027e-09
1.25278e-06
0.000121429
9.68749e-09
1.4609e-06
0.000119778
1.63287e-08
1.6487e-06
0.000117871
2.96346e-08
1.90122e-06
0.000115307
6.06201e-08
2.55026e-06
0.000110936
1.43387e-07
4.33258e-06
0.000103221
3.95519e-07
7.59477e-06
9.98559e-05
1.51005e-06
2.96233e-06
0.000107209
3.81226e-05
-1.70702e-05
5.51433e-05
6.33204e-05
3.82888e-05
9.18198e-05
3.68323e-05
0.00016425
1.03058e-10
4.68432e-05
0.000147739
4.6301e-11
1.65114e-05
0.000140514
1.29604e-10
7.22415e-06
0.000135214
2.86937e-11
5.29947e-06
0.000131614
1.32474e-10
3.60118e-06
0.000128991
3.06751e-11
2.62413e-06
0.000126838
4.02917e-10
2.15178e-06
0.000125175
6.02485e-11
1.66133e-06
0.000124144
3.70249e-09
1.03174e-06
0.000122891
7.89846e-09
1.25175e-06
0.000121429
1.35125e-08
1.45961e-06
0.000119777
2.2867e-08
1.64752e-06
0.000117868
4.18072e-08
1.90014e-06
0.000115298
8.63946e-08
2.54872e-06
0.000110917
2.06976e-07
4.32625e-06
0.000103137
5.81119e-07
7.60777e-06
9.98418e-05
2.24749e-06
2.68049e-06
0.000106579
4.83004e-05
-1.79047e-05
5.48104e-05
7.8225e-05
3.62575e-05
0.000111833
3.44764e-05
0.000164251
1.36004e-10
4.68429e-05
0.000147739
5.82668e-11
1.65118e-05
0.000140514
1.66453e-10
7.22394e-06
0.000135214
3.00278e-11
5.2996e-06
0.000131614
1.66888e-10
3.60105e-06
0.000128991
2.17818e-11
2.62437e-06
0.000126838
5.33743e-10
2.15119e-06
0.000125174
5.84049e-11
1.66273e-06
0.000124143
5.0473e-09
1.03137e-06
0.000122891
1.07721e-08
1.25034e-06
0.00012143
1.84526e-08
1.45782e-06
0.000119777
3.13447e-08
1.64586e-06
0.000117866
5.76913e-08
1.89855e-06
0.00011529
1.20294e-07
2.54622e-06
0.000110896
2.91414e-07
4.31694e-06
0.000103041
8.3177e-07
7.61713e-06
9.97935e-05
3.27324e-06
2.33821e-06
0.0001062
5.97265e-05
-1.88195e-05
5.45017e-05
9.51662e-05
3.41373e-05
0.000133679
3.23356e-05
0.000164251
1.75749e-10
4.68425e-05
0.000147739
7.05497e-11
1.65122e-05
0.000140514
2.08466e-10
7.22368e-06
0.000135214
2.35201e-11
5.29977e-06
0.000131614
2.06363e-10
3.60088e-06
0.00012899
5.35805e-12
2.62468e-06
0.000126839
6.93864e-10
2.15041e-06
0.000125173
5.00981e-11
1.66464e-06
0.000124141
6.74652e-09
1.03089e-06
0.000122891
1.44043e-08
1.24842e-06
0.00012143
2.47075e-08
1.45536e-06
0.000119778
4.21192e-08
1.64356e-06
0.000117864
7.79965e-08
1.89626e-06
0.000115282
1.63929e-07
2.54216e-06
0.000110877
4.00872e-07
4.3022e-06
0.000102954
1.15812e-06
7.60854e-06
9.98116e-05
4.56734e-06
1.95692e-06
0.000105884
7.30877e-05
-2.04221e-05
5.41482e-05
0.000114341
3.19417e-05
0.000157401
3.01272e-05
0.000164251
2.17881e-10
4.6842e-05
0.000147739
8.23368e-11
1.65128e-05
0.000140514
2.46178e-10
7.22334e-06
0.000135214
6.05584e-12
5.3e-06
0.000131614
2.43295e-10
3.60068e-06
0.00012899
-3.0747e-11
2.62511e-06
0.00012684
8.89694e-10
2.14936e-06
0.000125171
3.18205e-11
1.6672e-06
0.00012414
8.84923e-09
1.03026e-06
0.000122891
1.8906e-08
1.24587e-06
0.000121432
3.24766e-08
1.45208e-06
0.00011978
5.55582e-08
1.64043e-06
0.000117863
1.03475e-07
1.89297e-06
0.000115275
2.19034e-07
2.53598e-06
0.000110861
5.39738e-07
4.28106e-06
0.000102873
1.57245e-06
7.58391e-06
9.98333e-05
6.16456e-06
1.54582e-06
0.000105704
8.89924e-05
-2.28004e-05
5.39209e-05
0.000135754
2.97639e-05
0.000183065
2.79199e-05
0.000164252
2.49216e-10
4.68415e-05
0.000147739
8.89787e-11
1.65135e-05
0.000140515
2.44499e-10
7.22293e-06
0.000135214
-6.19517e-12
5.3003e-06
0.000131615
2.25759e-10
3.60045e-06
0.00012899
-6.74175e-11
2.62566e-06
0.000126841
1.09743e-09
2.14802e-06
0.000125169
-8.52797e-12
1.67058e-06
0.000124138
1.14012e-08
1.02944e-06
0.000122891
2.43765e-08
1.24252e-06
0.000121435
4.19453e-08
1.44774e-06
0.000119783
7.20336e-08
1.63622e-06
0.000117865
1.34977e-07
1.88843e-06
0.000115271
2.87772e-07
2.52733e-06
0.000110847
7.14335e-07
4.25334e-06
0.000102783
2.09717e-06
7.54831e-06
9.98045e-05
8.17065e-06
1.06566e-06
0.000105742
0.00010775
-2.57201e-05
5.37392e-05
0.000159787
2.73779e-05
0.000211027
2.54362e-05
0.000164253
2.67487e-10
4.68406e-05
0.000147739
8.97348e-11
1.65146e-05
0.000140516
1.90952e-10
7.22243e-06
0.000135214
-3.27685e-11
5.30077e-06
0.000131615
2.41676e-10
3.59994e-06
0.00012899
-1.57476e-10
2.62647e-06
0.000126842
1.32052e-09
2.14627e-06
0.000125167
-5.63339e-11
1.67492e-06
0.000124135
1.43757e-08
1.02847e-06
0.000122891
3.0839e-08
1.23823e-06
0.000121439
5.32561e-08
1.44203e-06
0.00011979
9.19823e-08
1.63046e-06
0.00011787
1.73664e-07
1.88187e-06
0.000115271
3.73227e-07
2.51454e-06
0.00011084
9.33524e-07
4.21483e-06
0.000102693
2.76152e-06
7.49026e-06
9.97682e-05
1.0648e-05
5.29661e-07
0.00010603
0.000129857
-2.93922e-05
5.37238e-05
0.000186932
2.45841e-05
0.000241645
2.27627e-05
0.000164254
3.13064e-10
4.68393e-05
0.000147738
7.92376e-11
1.65163e-05
0.000140516
2.2117e-10
7.22145e-06
0.000135213
-9.00903e-11
5.30149e-06
0.000131615
3.72164e-10
3.59919e-06
0.000128989
-4.00379e-10
2.62762e-06
0.000126844
1.67804e-09
2.14398e-06
0.000125163
-1.8621e-10
1.68045e-06
0.000124132
1.77218e-08
1.0271e-06
0.000122893
3.83408e-08
1.23264e-06
0.000121445
6.66065e-08
1.43456e-06
0.000119799
1.15873e-07
1.62275e-06
0.00011788
2.20579e-07
1.87266e-06
0.00011528
4.77884e-07
2.49608e-06
0.000110847
1.20423e-06
4.16219e-06
0.000102617
3.59183e-06
7.40347e-06
9.97218e-05
1.37691e-05
-1.43592e-07
0.000106408
0.000156248
-3.41494e-05
5.39037e-05
0.000217475
2.13861e-05
0.000275875
1.93384e-05
0.000164255
3.73746e-10
4.68379e-05
0.000147738
8.80547e-11
1.65183e-05
0.000140517
3.15248e-10
7.22011e-06
0.000135213
-1.69688e-10
5.30251e-06
0.000131615
6.11494e-10
3.5982e-06
0.000128988
-9.22964e-10
2.62914e-06
0.000126846
2.38982e-09
2.14114e-06
0.000125158
-6.59551e-10
1.68723e-06
0.000124129
2.14499e-08
1.02509e-06
0.000122895
4.70628e-08
1.2254e-06
0.000121455
8.23863e-08
1.42497e-06
0.000119814
1.44413e-07
1.61259e-06
0.000117898
2.77194e-07
1.85941e-06
0.000115301
6.05962e-07
2.46696e-06
0.000110881
1.54238e-06
4.08029e-06
0.000102609
4.66175e-06
7.20202e-06
9.9674e-05
1.77658e-05
-9.91374e-07
0.00010661
0.000188256
-4.00428e-05
5.41407e-05
0.000252489
1.68425e-05
0.000314757
1.49463e-05
0.000164257
4.39064e-10
4.68361e-05
0.000147737
1.34626e-10
1.65209e-05
0.000140518
4.85693e-10
7.21837e-06
0.000135213
-2.70685e-10
5.30388e-06
0.000131616
9.88139e-10
3.59673e-06
0.000128988
-1.81018e-09
2.63112e-06
0.000126848
3.73133e-09
2.13779e-06
0.000125153
-1.93702e-09
1.69503e-06
0.000124126
2.56233e-08
1.02269e-06
0.000122899
5.72329e-08
1.21614e-06
0.000121468
1.00868e-07
1.41256e-06
0.000119836
1.77692e-07
1.59862e-06
0.00011793
3.4331e-07
1.8389e-06
0.000115356
7.57977e-07
2.41906e-06
0.000110989
1.95682e-06
3.94708e-06
0.000102769
6.04262e-06
6.83597e-06
9.99256e-05
2.29756e-05
-2.31683e-06
0.000105918
0.000230164
-4.90283e-05
5.48969e-05
0.00029335
9.51972e-06
0.000361058
8.27992e-06
0.000164259
4.68342e-05
5.27523e-10
0.000147736
1.65237e-05
2.42419e-10
0.000140518
7.21634e-06
6.935e-10
0.000135212
5.30554e-06
-3.6063e-10
0.000131618
3.59473e-06
1.40419e-09
0.000128987
2.63357e-06
-2.79859e-09
0.00012685
2.13419e-06
5.56782e-09
0.000125148
1.70248e-06
-3.83449e-09
0.000124122
1.02022e-06
3.11152e-08
0.000122904
1.20741e-06
6.77957e-08
0.000121486
1.39846e-06
1.19534e-07
0.000119873
1.57794e-06
2.12021e-07
0.000117998
1.80201e-06
4.13658e-07
0.000115494
2.3319e-06
9.25315e-07
0.000111295
3.70937e-06
2.43737e-06
0.000103282
6.20858e-06
7.84014e-06
0.000101064
-5.33903e-06
3.05554e-05
9.89528e-05
-6.3628e-05
0.00029482
5.59201e-05
-6.73732e-06
0.000342399
-3.33708e-06
0.000419972
0.000231114
1.82404e-12
2.5591e-05
0.000226579
3.00974e-12
2.10442e-05
0.00021657
4.49434e-12
1.72348e-05
0.00021185
3.40717e-12
1.00195e-05
0.000208509
5.3318e-12
6.94225e-06
0.000205564
3.55556e-12
5.56766e-06
0.000203076
1.15724e-11
4.6416e-06
0.000201251
-1.26028e-13
3.48364e-06
0.000199291
-9.35003e-12
2.99547e-06
0.00019737
-1.18125e-11
3.17788e-06
0.000195525
-2.83965e-11
3.31179e-06
0.000193764
-1.07945e-10
3.41593e-06
0.000192061
-3.95211e-10
3.61569e-06
0.00019037
-1.33892e-09
4.25973e-06
0.000188512
-4.54607e-09
6.23763e-06
0.000185485
-1.76915e-08
1.05308e-05
0.000173818
-1.06169e-07
1.63381e-05
0.000121316
2.54445e-06
3.30496e-05
7.18193e-05
9.97535e-06
8.97916e-05
1.62896e-05
0.000113876
0.000231114
3.79816e-12
2.5591e-05
0.000226579
6.34949e-12
2.10442e-05
0.00021657
9.59682e-12
1.72348e-05
0.00021185
6.9206e-12
1.00195e-05
0.000208509
1.1232e-11
6.94224e-06
0.000205564
7.61801e-12
5.56766e-06
0.000203076
2.35421e-11
4.6416e-06
0.000201251
6.24137e-12
3.48361e-06
0.000199291
1.37023e-11
2.99544e-06
0.00019737
3.89692e-11
3.17785e-06
0.000195524
5.13168e-11
3.31175e-06
0.000193764
-2.16249e-11
3.41584e-06
0.00019206
-4.04537e-10
3.61548e-06
0.000190369
-1.80722e-09
4.25918e-06
0.00018851
-6.77103e-09
6.23606e-06
0.000185487
-2.79959e-08
1.05235e-05
0.000173754
-1.89319e-07
1.63307e-05
0.000120193
7.00015e-06
3.20249e-05
7.1415e-05
2.18002e-05
8.59916e-05
3.7287e-05
0.000105896
0.000231114
6.19599e-12
2.5591e-05
0.000226579
1.03284e-11
2.10442e-05
0.00021657
1.57307e-11
1.72348e-05
0.00021185
1.08826e-11
1.00195e-05
0.000208509
1.81564e-11
6.94223e-06
0.000205564
1.22537e-11
5.56767e-06
0.000203076
3.61971e-11
4.64159e-06
0.000201251
2.483e-11
3.48358e-06
0.000199291
9.89643e-11
2.99538e-06
0.00019737
2.11068e-10
3.17777e-06
0.000195524
3.40331e-10
3.31165e-06
0.000193763
4.37692e-10
3.41568e-06
0.000192059
3.13364e-10
3.61511e-06
0.000190367
-6.92422e-10
4.25827e-06
0.000188507
-5.09374e-09
6.2338e-06
0.000185488
-2.72944e-08
1.05134e-05
0.00017365
-2.33305e-07
1.63277e-05
0.000119248
1.34042e-05
3.06644e-05
7.04231e-05
3.65093e-05
8.20169e-05
6.30228e-05
9.83904e-05
0.000231114
9.21644e-12
2.5591e-05
0.000226579
1.53589e-11
2.10442e-05
0.00021657
2.36233e-11
1.72348e-05
0.00021185
1.52771e-11
1.00196e-05
0.000208509
2.66086e-11
6.94222e-06
0.000205564
1.77589e-11
5.56768e-06
0.000203076
5.00164e-11
4.64158e-06
0.000201251
6.10561e-11
3.48358e-06
0.000199291
2.76912e-10
2.99523e-06
0.00019737
5.64708e-10
3.17764e-06
0.000195524
9.42136e-10
3.3115e-06
0.000193762
1.45054e-09
3.41542e-06
0.000192057
2.10102e-09
3.61454e-06
0.000190364
2.73771e-09
4.25692e-06
0.000188501
2.24916e-09
6.23076e-06
0.000185488
-1.0985e-08
1.05007e-05
0.000173508
-2.14556e-07
1.6329e-05
0.000118388
2.18829e-05
2.90334e-05
6.94433e-05
5.43974e-05
7.77257e-05
9.23107e-05
9.11704e-05
0.000231114
1.32107e-11
2.5591e-05
0.000226579
2.19313e-11
2.10442e-05
0.00021657
3.39573e-11
1.72348e-05
0.00021185
2.02639e-11
1.00196e-05
0.000208509
3.7191e-11
6.9422e-06
0.000205564
2.4168e-11
5.5677e-06
0.000203076
6.57444e-11
4.64154e-06
0.000201251
1.20869e-10
3.48364e-06
0.000199291
5.8052e-10
2.99496e-06
0.00019737
1.16522e-09
3.17741e-06
0.000195523
1.96852e-09
3.31127e-06
0.000193761
3.20878e-09
3.41505e-06
0.000192055
5.30774e-09
3.61374e-06
0.000190361
9.17726e-09
4.25503e-06
0.000188494
1.67947e-08
6.22669e-06
0.000185489
2.47529e-08
1.04855e-05
0.000173326
-1.09371e-07
1.63383e-05
0.000117584
3.26183e-05
2.71115e-05
6.87292e-05
7.54897e-05
7.3097e-05
0.000124955
8.43565e-05
0.000231114
1.85752e-11
2.5591e-05
0.000226579
3.06363e-11
2.10442e-05
0.00021657
4.76207e-11
1.72347e-05
0.00021185
2.60476e-11
1.00196e-05
0.000208509
5.0553e-11
6.94217e-06
0.000205564
3.13461e-11
5.56772e-06
0.000203076
8.46749e-11
4.64147e-06
0.000201251
2.11005e-10
3.48385e-06
0.000199291
1.04745e-09
2.99449e-06
0.00019737
2.08799e-09
3.17707e-06
0.000195523
3.5495e-09
3.31096e-06
0.00019376
5.9386e-09
3.4146e-06
0.000192053
1.03545e-08
3.61276e-06
0.000190357
1.94852e-08
4.25267e-06
0.000188485
4.05516e-08
6.22114e-06
0.000185485
8.56604e-08
1.04668e-05
0.000173095
1.10197e-07
1.6355e-05
0.000116858
4.57664e-05
2.48747e-05
6.80639e-05
9.99599e-05
6.82153e-05
0.000160557
7.79971e-05
0.000231113
2.57006e-11
2.55909e-05
0.000226579
4.22254e-11
2.10442e-05
0.00021657
6.57049e-11
1.72347e-05
0.00021185
3.25054e-11
1.00197e-05
0.000208509
6.80577e-11
6.94213e-06
0.000205564
3.94684e-11
5.56776e-06
0.000203076
1.08221e-10
4.64136e-06
0.000201251
3.39138e-10
3.48429e-06
0.000199291
1.72401e-09
2.99373e-06
0.00019737
3.42602e-09
3.17654e-06
0.000195522
5.84658e-09
3.31055e-06
0.000193758
9.9244e-09
3.41405e-06
0.000192049
1.77846e-08
3.61165e-06
0.000190351
3.48315e-08
4.24997e-06
0.000188471
7.64365e-08
6.21432e-06
0.000185475
1.80525e-07
1.0443e-05
0.000172791
4.77128e-07
1.63783e-05
0.0001162
6.15208e-05
2.2253e-05
6.75138e-05
0.000127711
6.32627e-05
0.000199041
7.20062e-05
0.000231113
3.5294e-11
2.55909e-05
0.000226579
5.76012e-11
2.10442e-05
0.00021657
8.94259e-11
1.72347e-05
0.00021185
4.02197e-11
1.00197e-05
0.000208509
9.07058e-11
6.94206e-06
0.000205564
4.76255e-11
5.56781e-06
0.000203076
1.38781e-10
4.64117e-06
0.00020125
5.15057e-10
3.48506e-06
0.000199291
2.67035e-09
2.99254e-06
0.00019737
5.29945e-09
3.17577e-06
0.000195521
9.07137e-09
3.31e-06
0.000193756
1.5552e-08
3.41338e-06
0.000192045
2.83698e-08
3.61026e-06
0.000190342
5.69529e-08
4.24655e-06
0.000188453
1.28945e-07
6.20502e-06
0.000185458
3.22973e-07
1.04072e-05
0.00017241
1.04649e-06
1.63827e-05
0.000115608
8.00627e-05
1.92367e-05
6.68505e-05
0.000158817
5.82197e-05
0.000240123
6.64965e-05
0.000231113
4.82821e-11
2.55909e-05
0.000226579
7.7743e-11
2.10441e-05
0.00021657
1.19774e-10
1.72346e-05
0.00021185
4.99474e-11
1.00199e-05
0.000208509
1.19677e-10
6.94197e-06
0.000205564
5.43815e-11
5.56788e-06
0.000203076
1.79063e-10
4.6409e-06
0.000201249
7.51559e-10
3.4863e-06
0.000199292
3.96308e-09
2.99075e-06
0.00019737
7.8596e-09
3.17466e-06
0.00019552
1.34888e-08
3.30925e-06
0.000193753
2.33034e-08
3.41249e-06
0.000192039
4.30748e-08
3.60843e-06
0.000190331
8.80178e-08
4.24187e-06
0.00018843
2.03648e-07
6.1914e-06
0.000185438
5.29487e-07
1.03551e-05
0.000171959
1.88884e-06
1.6345e-05
0.000115169
0.000101494
1.57891e-05
6.63525e-05
0.000193231
5.30953e-05
0.000283042
6.13407e-05
0.000231113
6.52956e-11
2.55908e-05
0.000226579
1.03537e-10
2.10441e-05
0.00021657
1.58181e-10
1.72346e-05
0.00021185
6.12951e-11
1.002e-05
0.000208509
1.56057e-10
6.94185e-06
0.000205564
5.94163e-11
5.56799e-06
0.000203076
2.32606e-10
4.64049e-06
0.000201248
1.06527e-09
3.48818e-06
0.000199292
5.69499e-09
2.98814e-06
0.000197371
1.12887e-08
3.17306e-06
0.000195519
1.94158e-08
3.3082e-06
0.00019375
3.37516e-08
3.41128e-06
0.000192032
6.30388e-08
3.60593e-06
0.000190318
1.30567e-07
4.23535e-06
0.000188402
3.06974e-07
6.17192e-06
0.000185411
8.18618e-07
1.02857e-05
0.000171428
3.08332e-06
1.62539e-05
0.000114859
0.000125981
1.18484e-05
6.5906e-05
0.000230764
4.81719e-05
0.000328485
5.6471e-05
0.000231113
8.64398e-11
2.55908e-05
0.000226579
1.35832e-10
2.1044e-05
0.00021657
2.06658e-10
1.72345e-05
0.00021185
7.24865e-11
1.00202e-05
0.000208509
2.00507e-10
6.94167e-06
0.000205564
6.35348e-11
5.56815e-06
0.000203076
3.04779e-10
4.63991e-06
0.000201247
1.47798e-09
3.49092e-06
0.000199294
7.97346e-09
2.98443e-06
0.000197372
1.57959e-08
3.17082e-06
0.000195519
2.72153e-08
3.30678e-06
0.000193746
4.75508e-08
3.40966e-06
0.000192023
8.95632e-08
3.60256e-06
0.000190301
1.87512e-07
4.22655e-06
0.000188368
4.46348e-07
6.14545e-06
0.000185374
1.21271e-06
1.01979e-05
0.000170808
4.73449e-06
1.60833e-05
0.000114748
0.000153612
7.39852e-06
6.53522e-05
0.000271704
4.3167e-05
0.000375492
5.20352e-05
0.000231113
1.12493e-10
2.55907e-05
0.00022658
1.75208e-10
2.10439e-05
0.00021657
2.64986e-10
1.72344e-05
0.00021185
8.24818e-11
1.00205e-05
0.000208509
2.55438e-10
6.94144e-06
0.000205564
6.6601e-11
5.56837e-06
0.000203076
4.02593e-10
4.6391e-06
0.000201244
2.01808e-09
3.4948e-06
0.000199295
1.09198e-08
2.97926e-06
0.000197374
2.16119e-08
3.16774e-06
0.000195518
3.72875e-08
3.30484e-06
0.000193741
6.54303e-08
3.40749e-06
0.000192013
1.24123e-07
3.59804e-06
0.000190282
2.62201e-07
4.21473e-06
0.000188329
6.30282e-07
6.10978e-06
0.000185328
1.73659e-06
1.00843e-05
0.000170089
6.98522e-06
1.57966e-05
0.000114906
0.000184286
2.59555e-06
6.50919e-05
0.000315746
3.83519e-05
0.000424846
4.72985e-05
0.000231112
1.43686e-10
2.55906e-05
0.00022658
2.21767e-10
2.10438e-05
0.00021657
3.34192e-10
1.72343e-05
0.00021185
9.07169e-11
1.00208e-05
0.000208509
3.19212e-10
6.94112e-06
0.000205564
6.758e-11
5.56868e-06
0.000203077
5.45857e-10
4.63801e-06
0.000201241
2.72087e-09
3.50015e-06
0.000199298
1.46563e-08
2.97221e-06
0.000197376
2.89692e-08
3.16356e-06
0.000195518
5.00327e-08
3.30226e-06
0.000193737
8.81125e-08
3.40466e-06
0.000192002
1.68161e-07
3.59222e-06
0.00019026
3.57912e-07
4.19997e-06
0.000188278
8.67649e-07
6.06727e-06
0.000185229
2.41755e-06
9.96848e-06
0.000169631
9.84375e-06
1.51355e-05
0.000114847
0.000219169
-3.50975e-06
6.43573e-05
0.000362915
3.37186e-05
0.000475593
4.29842e-05
0.000231112
1.78817e-10
2.55905e-05
0.00022658
2.77756e-10
2.10437e-05
0.000216571
4.09248e-10
1.72342e-05
0.00021185
9.6189e-11
1.00213e-05
0.000208509
4.02401e-10
6.9407e-06
0.000205564
7.8559e-11
5.56909e-06
0.000203077
7.57404e-10
4.63656e-06
0.000201237
3.61681e-09
3.50735e-06
0.000199301
1.92991e-08
2.96279e-06
0.000197381
3.81106e-08
3.15802e-06
0.000195519
6.58701e-08
3.29887e-06
0.000193733
1.16363e-07
3.40093e-06
0.000191991
2.23277e-07
3.58456e-06
0.000190235
4.78465e-07
4.18056e-06
0.000188223
1.16858e-06
6.01089e-06
0.000185112
3.28668e-06
9.8173e-06
0.000169358
1.34054e-05
1.41575e-05
0.000114664
0.000258195
-1.01385e-05
6.41913e-05
0.000412809
2.87889e-05
0.000528713
3.82337e-05
0.000231112
2.33661e-10
2.55903e-05
0.000226581
3.50055e-10
2.10435e-05
0.000216571
4.63848e-10
1.72341e-05
0.00021185
1.29085e-10
1.00219e-05
0.000208509
5.18604e-10
6.94017e-06
0.000205564
1.1067e-10
5.56964e-06
0.000203078
1.07478e-09
4.63469e-06
0.000201231
4.68595e-09
3.51686e-06
0.000199305
2.50296e-08
2.9504e-06
0.000197387
4.92626e-08
3.15075e-06
0.000195522
8.5133e-08
3.29444e-06
0.000193729
1.50831e-07
3.39606e-06
0.000191979
2.91001e-07
3.57451e-06
0.00019021
6.27725e-07
4.15513e-06
0.000188167
1.54355e-06
5.9376e-06
0.000184989
4.37644e-06
9.62748e-06
0.000169014
1.79079e-05
1.29262e-05
0.000114221
0.00030198
-1.76642e-05
6.3671e-05
0.000465265
2.39325e-05
0.000583463
3.36148e-05
0.000231111
3.06005e-10
2.55902e-05
0.000226581
4.4212e-10
2.10432e-05
0.000216571
5.41119e-10
1.7234e-05
0.00021185
1.96173e-10
1.00225e-05
0.000208509
6.76005e-10
6.93961e-06
0.000205564
1.00776e-10
5.57028e-06
0.000203078
1.57669e-09
4.6324e-06
0.000201223
6.08509e-09
3.52926e-06
0.000199311
3.17276e-08
2.93421e-06
0.000197396
6.23202e-08
3.14127e-06
0.000195527
1.07875e-07
3.28867e-06
0.000193728
1.92047e-07
3.38969e-06
0.000191969
3.73059e-07
3.56124e-06
0.000190186
8.10671e-07
4.1213e-06
0.000188111
2.00764e-06
5.8376e-06
0.000184873
5.74044e-06
9.35494e-06
0.000168808
2.33638e-05
1.14945e-05
0.000114895
0.000350456
-2.66565e-05
6.37079e-05
0.000520744
1.88026e-05
0.000640923
2.81905e-05
0.00023111
3.71138e-10
2.55902e-05
0.000226582
5.50234e-10
2.10426e-05
0.000216571
7.03496e-10
1.72342e-05
0.00021185
2.2793e-10
1.00231e-05
0.000208509
9.41635e-10
6.93891e-06
0.000205564
-8.78109e-11
5.5712e-06
0.000203078
2.48772e-09
4.62963e-06
0.000201213
7.72256e-09
3.54492e-06
0.00019932
3.90224e-08
2.91357e-06
0.000197409
7.69945e-08
3.12911e-06
0.000195536
1.34063e-07
3.28115e-06
0.00019373
2.40419e-07
3.38117e-06
0.000191964
4.70514e-07
3.5435e-06
0.000190169
1.02926e-06
4.07625e-06
0.000188078
2.56288e-06
5.70598e-06
0.000184834
7.37573e-06
8.99752e-06
0.000168756
2.98481e-05
9.79014e-06
0.000114754
0.000405132
-3.78973e-05
6.39785e-05
0.00057797
1.34788e-05
0.000701456
2.20398e-05
0.000231108
4.5168e-10
2.55901e-05
0.000226584
6.79855e-10
2.10419e-05
0.00021657
9.31658e-10
1.72343e-05
0.00021185
2.59095e-10
1.00239e-05
0.000208508
1.37655e-09
6.93778e-06
0.000205564
-6.38493e-10
5.5728e-06
0.000203078
4.27976e-09
4.62611e-06
0.000201201
8.73553e-09
3.56438e-06
0.000199332
4.61708e-08
2.88751e-06
0.000197427
9.35359e-08
3.11364e-06
0.000195549
1.647e-07
3.27146e-06
0.000193735
2.97158e-07
3.37001e-06
0.000191961
5.84425e-07
3.52009e-06
0.000190155
1.28601e-06
4.01733e-06
0.000188034
3.22702e-06
5.53899e-06
0.000184636
9.39019e-06
8.58186e-06
0.000168363
3.7533e-05
7.74248e-06
0.000114133
0.000466491
-5.01472e-05
6.47222e-05
0.000637088
5.67048e-06
0.000765994
1.42724e-05
0.000231107
5.361e-10
2.559e-05
0.000226586
8.37147e-10
2.10409e-05
0.00021657
1.24709e-09
1.72345e-05
0.00021185
2.82833e-10
1.00251e-05
0.000208509
1.9332e-09
6.93581e-06
0.000205565
-1.76634e-09
5.57569e-06
0.000203078
7.66246e-09
4.62164e-06
0.000201188
5.77605e-09
3.58883e-06
0.000199348
5.49743e-08
2.85319e-06
0.000197449
1.14079e-07
3.09401e-06
0.000195565
2.00628e-07
3.25956e-06
0.000193745
3.60027e-07
3.35565e-06
0.000191971
7.07396e-07
3.48847e-06
0.000190172
1.56493e-06
3.93772e-06
0.000188055
3.96767e-06
5.31928e-06
0.000184476
1.17395e-05
8.05786e-06
0.000168729
4.60561e-05
4.99781e-06
0.00011022
0.000538835
-6.57252e-05
6.75796e-05
0.000692263
-4.54194e-06
0.000836826
4.31905e-06
0.000231105
2.55897e-05
6.39468e-10
0.000226588
2.10399e-05
1.06928e-09
0.00021657
1.72346e-05
1.59364e-09
0.000211849
1.0027e-05
3.11141e-10
0.00020851
6.93243e-06
2.45349e-09
0.000205563
5.58065e-06
-3.11716e-09
0.000203078
4.61624e-06
1.17354e-08
0.000201176
3.61128e-06
-2.5315e-10
0.00019936
2.82388e-06
6.64214e-08
0.000197473
3.07216e-06
1.34945e-07
0.000195596
3.2408e-06
2.34152e-07
0.000193783
3.33165e-06
4.169e-07
0.000192029
3.44241e-06
8.18511e-07
0.000190271
3.82842e-06
1.82075e-06
0.000188244
5.02488e-06
4.6686e-06
0.0001847
7.32018e-06
1.41559e-05
0.000170983
1.4741e-06
5.30145e-05
9.74783e-05
-8.36034e-05
0.000629496
7.24773e-05
-2.27749e-05
0.000731791
-7.97927e-06
0.000913021
0.000224144
7.41859e-13
1.12285e-05
0.000230603
2.48935e-12
1.45848e-05
0.00023554
3.88689e-12
1.22989e-05
0.000234436
4.57272e-12
1.11228e-05
0.00023203
5.1626e-12
9.34791e-06
0.000230265
5.35101e-12
7.33345e-06
0.000228996
1.408e-11
5.91016e-06
0.000227977
-2.4305e-11
4.5036e-06
0.000226011
-6.05087e-11
4.96367e-06
0.000224385
-1.19289e-10
4.80574e-06
0.000223132
-2.58534e-10
4.56845e-06
0.000222165
-6.3773e-10
4.39012e-06
0.000221357
-1.69699e-09
4.43828e-06
0.000220615
-4.75898e-09
5.0299e-06
0.000219946
-1.45033e-08
6.97344e-06
0.00021773
-5.08417e-08
1.27267e-05
0.00020783
-2.27416e-07
2.73672e-05
0.000131353
7.55639e-06
9.53812e-05
7.79744e-05
2.33129e-05
0.000117326
4.71626e-05
0.000143109
0.000224144
1.46938e-12
1.12285e-05
0.000230603
5.01996e-12
1.45848e-05
0.00023554
7.89456e-12
1.22989e-05
0.000234436
9.24762e-12
1.11228e-05
0.00023203
1.03282e-11
9.34791e-06
0.000230265
1.03812e-11
7.33346e-06
0.000228996
2.55526e-11
5.91015e-06
0.000227977
-3.11141e-11
4.50358e-06
0.000226011
-7.8963e-11
4.96362e-06
0.000224385
-1.59022e-10
4.80571e-06
0.000223132
-3.69137e-10
4.5684e-06
0.000222165
-9.82753e-10
4.38995e-06
0.000221356
-2.75568e-09
4.43781e-06