/*--------------------------------*- C++ -*----------------------------------*\
  =========                 |
  \\      /  F ield         | OpenFOAM: The Open Source CFD Toolbox
   \\    /   O peration     | Website:  https://openfoam.org
    \\  /    A nd           | Version:  6.0
     \\/     M anipulation  |
\*---------------------------------------------------------------------------*/
FoamFile
{
    version     2.0;
    format      ascii;
    class       volScalarField;
    location    "3";
    object      p;
}
// * * * * * * * * * * * * * * * * * * * * * * * * * * * * * * * * * * * * * //

dimensions      [1 -1 -2 0 0 0 0];

internalField   nonuniform List<scalar> 
192000
(
0.758338
0.653488
0.611402
0.584044
0.56645
0.55351
0.543643
0.535795
0.529477
0.524006
0.519612
0.515444
0.5124
0.508964
0.507565
0.507798
0.509536
0.512643
0.530714
0.555557
0.674788
0.872004
1.66295
3.47029
4.76474
4.79538
4.76305
4.68288
4.6654
4.67744
4.71974
4.80941
4.89672
4.98557
5.10327
5.26922
5.50971
5.89375
6.51833
7.79256
0.758337
0.653489
0.611403
0.584046
0.566449
0.553511
0.543642
0.535795
0.529477
0.524007
0.519612
0.515445
0.512398
0.508969
0.507549
0.507782
0.509623
0.51254
0.531141
0.55448
0.676764
0.867215
1.667
3.46601
4.76632
4.7968
4.76406
4.68329
4.66599
4.67801
4.72025
4.80964
4.89671
4.98558
5.10328
5.26923
5.50961
5.89348
6.51726
7.79249
0.758337
0.653489
0.611403
0.584046
0.566449
0.553511
0.543642
0.535795
0.529477
0.524007
0.519612
0.515445
0.512398
0.508969
0.507548
0.507781
0.509619
0.512533
0.531113
0.554423
0.676573
0.866625
1.66594
3.46289
4.76803
4.79808
4.76494
4.68378
4.6671
4.67923
4.72158
4.81063
4.89682
4.98549
5.10325
5.26921
5.50943
5.89282
6.51463
7.78798
0.758338
0.653488
0.611402
0.584044
0.56645
0.55351
0.543643
0.535795
0.529478
0.524006
0.519613
0.515444
0.512401
0.508963
0.507562
0.507794
0.509527
0.512623
0.530632
0.555403
0.674218
0.870533
1.65944
3.46141
4.76995
4.79934
4.76589
4.68474
4.66909
4.68139
4.72399
4.81267
4.89727
4.9854
5.10326
5.26926
5.50928
5.89191
6.51056
7.77766
0.758338
0.653489
0.611402
0.584043
0.56645
0.55351
0.543644
0.535795
0.529478
0.524006
0.519614
0.515443
0.512402
0.508961
0.507561
0.507789
0.509532
0.512616
0.530623
0.555444
0.673769
0.870652
1.65494
3.45485
4.77202
4.80122
4.76752
4.68651
4.6719
4.68435
4.72713
4.81525
4.89784
4.9853
5.10317
5.26914
5.50879
5.89034
6.50506
7.76528
0.758338
0.653488
0.611402
0.584044
0.56645
0.55351
0.543643
0.535795
0.529478
0.524007
0.519613
0.515444
0.5124
0.508963
0.507556
0.507787
0.509516
0.512602
0.530524
0.555185
0.673207
0.86828
1.65141
3.44461
4.77463
4.80413
4.77021
4.68935
4.67563
4.68822
4.73109
4.8184
4.8988
4.98557
5.10324
5.26902
5.50807
5.88815
6.49854
7.75239
0.758337
0.653489
0.611403
0.584046
0.566449
0.553511
0.543642
0.535796
0.529477
0.524008
0.519612
0.515446
0.512396
0.508969
0.507541
0.507768
0.509615
0.512527
0.530915
0.554194
0.674255
0.863029
1.64919
3.42788
4.77675
4.80756
4.77367
4.69329
4.68032
4.69301
4.73584
4.82192
4.89989
4.98591
5.10324
5.26862
5.50674
5.8849
6.49082
7.74013
0.758336
0.653489
0.611403
0.584046
0.566448
0.553511
0.543642
0.535796
0.529476
0.524009
0.51961
0.515449
0.512393
0.508972
0.507537
0.507767
0.509596
0.512503
0.530782
0.5539
0.673218
0.859166
1.64395
3.4104
4.77815
4.81079
4.77731
4.6981
4.68598
4.69887
4.74189
4.82592
4.90159
4.98671
5.10343
5.26815
5.50506
5.88087
6.4822
7.72657
0.758336
0.653488
0.611403
0.584047
0.566449
0.553512
0.543642
0.535797
0.529476
0.52401
0.519609
0.515451
0.51239
0.508974
0.507526
0.507751
0.50959
0.512472
0.530649
0.553619
0.672039
0.856226
1.63538
3.38851
4.77973
4.8145
4.78152
4.70374
4.69251
4.70562
4.74895
4.83028
4.90371
4.98779
5.10371
5.26739
5.50278
5.87588
6.47258
7.71256
0.758336
0.653488
0.611403
0.584047
0.566449
0.553512
0.543641
0.535797
0.529475
0.524011
0.519607
0.515453
0.512386
0.508979
0.507509
0.507731
0.50955
0.512407
0.530437
0.553224
0.670596
0.852663
1.62505
3.36182
4.78209
4.81904
4.78654
4.71014
4.6999
4.71325
4.757
4.83541
4.90645
4.98927
5.10414
5.26645
5.50002
5.87012
6.4622
7.69818
0.758336
0.653488
0.611403
0.584047
0.566448
0.553512
0.54364
0.535798
0.529474
0.524013
0.519605
0.515457
0.51238
0.508986
0.507486
0.507705
0.50948
0.512312
0.530146
0.552719
0.668814
0.848481
1.61272
3.33004
4.78549
4.82455
4.79239
4.71712
4.70797
4.72165
4.76588
4.84137
4.90989
4.99113
5.10469
5.26529
5.49678
5.86368
6.45115
7.6832
0.758336
0.653488
0.611403
0.584047
0.566448
0.553512
0.54364
0.535799
0.529473
0.524014
0.519602
0.51546
0.512373
0.508995
0.507454
0.507665
0.509428
0.512212
0.529843
0.552134
0.666791
0.843597
1.59803
3.29099
4.7904
4.83163
4.79959
4.72489
4.71664
4.73064
4.77528
4.848
4.91397
4.99327
5.10527
5.26394
5.49305
5.85661
6.43963
7.66871
0.758337
0.653488
0.611403
0.584047
0.566448
0.553513
0.54364
0.535799
0.529472
0.524016
0.519599
0.515465
0.512364
0.509006
0.507416
0.50762
0.509345
0.512078
0.529451
0.551427
0.664379
0.837795
1.58103
3.24479
4.79662
4.84033
4.80819
4.73342
4.72579
4.74008
4.78508
4.85526
4.91866
4.99571
5.1059
5.26246
5.48878
5.84889
6.42775
7.65521
0.758337
0.653488
0.611404
0.584047
0.566447
0.553513
0.543639
0.5358
0.52947
0.524018
0.519596
0.515471
0.512353
0.50902
0.507369
0.507565
0.509241
0.511915
0.528995
0.5506
0.66163
0.831754
1.5608
3.19115
4.80429
4.85089
4.81821
4.74266
4.73544
4.74995
4.79521
4.86313
4.92397
4.99852
5.1066
5.26082
5.48399
5.84061
6.41564
7.64289
0.758337
0.653488
0.611403
0.584047
0.566447
0.553513
0.543638
0.535802
0.529468
0.524021
0.519592
0.515477
0.512341
0.509034
0.507313
0.507499
0.509107
0.511712
0.528456
0.549689
0.658504
0.82549
1.53696
3.12935
4.81367
4.86318
4.82967
4.75262
4.74548
4.76014
4.80551
4.87142
4.9298
5.00161
5.10716
5.25882
5.47862
5.83174
6.40334
7.63204
0.758339
0.653488
0.611402
0.584045
0.566447
0.553513
0.543638
0.535802
0.529467
0.524023
0.519588
0.515483
0.51233
0.509046
0.507266
0.507442
0.508915
0.5116
0.527546
0.549522
0.653429
0.824065
1.50352
3.06238
4.82506
4.87717
4.84251
4.76322
4.75594
4.77066
4.81603
4.88011
4.93613
5.00507
5.10759
5.25641
5.4726
5.82226
6.39085
7.62218
0.75834
0.653488
0.611402
0.584044
0.566448
0.553513
0.543637
0.535804
0.529465
0.524026
0.519583
0.51549
0.512317
0.509062
0.50721
0.507372
0.508781
0.51138
0.526936
0.548451
0.649501
0.81523
1.47421
2.98339
4.83877
4.89311
4.85694
4.77451
4.7668
4.78153
4.82678
4.88919
4.94297
5.00893
5.10804
5.25364
5.46587
5.81218
6.37813
7.61292
0.758339
0.653488
0.611403
0.584045
0.566447
0.553514
0.543636
0.535805
0.529462
0.524029
0.519577
0.515498
0.5123
0.509083
0.507146
0.507298
0.508653
0.511169
0.526287
0.547153
0.645234
0.805541
1.44143
2.89347
4.85612
4.91128
4.87304
4.78615
4.77758
4.79226
4.83734
4.89828
4.95003
5.01297
5.10847
5.25054
5.45862
5.80174
6.36546
7.60489
0.758338
0.653488
0.611404
0.584047
0.566445
0.553515
0.543633
0.535807
0.529459
0.524033
0.51957
0.515508
0.512282
0.509105
0.507073
0.507211
0.508581
0.510863
0.525926
0.545059
0.642001
0.788855
1.41262
2.78841
4.87738
4.93182
4.89097
4.79835
4.78834
4.8029
4.84764
4.90717
4.95698
5.01689
5.10851
5.24682
5.4507
5.79057
6.35271
7.59898
0.758338
0.653488
0.611404
0.584048
0.566444
0.553516
0.543632
0.535808
0.529456
0.524037
0.519564
0.515517
0.512266
0.509125
0.507007
0.507133
0.508422
0.510605
0.525156
0.543628
0.637057
0.777493
1.37453
2.67743
4.90035
4.95293
4.90936
4.81068
4.79886
4.8133
4.85767
4.91593
4.96395
5.02086
5.1084
5.24248
5.44202
5.77876
6.34002
7.59608
0.75834
0.653488
0.611403
0.584045
0.566445
0.553515
0.543632
0.535809
0.529455
0.52404
0.51956
0.515525
0.512253
0.509141
0.50695
0.507065
0.508195
0.510416
0.524038
0.542939
0.630255
0.772762
1.32618
2.56793
4.92228
4.97354
4.92738
4.8229
4.80892
4.82304
4.86662
4.92372
4.97015
5.02418
5.10759
5.23707
5.43218
5.76615
6.32731
7.59669
0.758341
0.653488
0.611402
0.584044
0.566445
0.553515
0.543631
0.53581
0.529452
0.524043
0.519555
0.515533
0.512239
0.509159
0.506889
0.506988
0.508054
0.510188
0.523226
0.541657
0.625228
0.759873
1.28969
2.45709
4.9316
4.99305
4.94493
4.83622
4.81991
4.8335
4.87579
4.93148
4.97607
5.02712
5.10588
5.23035
5.42051
5.7518
6.31363
7.59941
0.758341
0.653488
0.611402
0.584044
0.566444
0.553516
0.54363
0.535812
0.52945
0.524048
0.519549
0.515542
0.512223
0.509179
0.506824
0.506915
0.507866
0.50995
0.522428
0.540004
0.620299
0.748461
1.25808
2.37075
4.91158
5.00815
4.95963
4.84933
4.8307
4.84371
4.88458
4.93885
4.98159
5.02973
5.10372
5.22281
5.40752
5.73583
6.29852
7.60175
0.758341
0.653488
0.611402
0.584044
0.566443
0.553516
0.543629
0.535814
0.529447
0.524052
0.519543
0.515552
0.512206
0.5092
0.506756
0.506832
0.507745
0.509776
0.521536
0.538986
0.614977
0.737019
1.23164
2.29333
4.86742
5.01908
4.97191
4.86281
4.84176
4.8539
4.89285
4.94566
4.98641
5.03166
5.10079
5.21423
5.39314
5.71821
6.28147
7.60108
0.758341
0.653488
0.611402
0.584044
0.566442
0.553517
0.543627
0.535817
0.529444
0.524058
0.519535
0.515564
0.512186
0.509223
0.506689
0.506755
0.507579
0.509546
0.520776
0.537447
0.610422
0.726281
1.20446
2.22488
4.80871
5.02527
4.98113
4.87579
4.85242
4.86361
4.90052
4.95205
4.99088
5.0331
5.09729
5.20466
5.37739
5.69889
6.26183
7.59578
0.758341
0.653487
0.611401
0.584044
0.566441
0.553519
0.543625
0.535821
0.52944
0.524065
0.519526
0.515577
0.512164
0.509248
0.506617
0.506671
0.50742
0.509343
0.519939
0.536178
0.60577
0.716564
1.17872
2.1638
4.73673
5.0263
4.98673
4.88775
4.86208
4.87232
4.90705
4.95707
4.99407
5.03335
5.09287
5.19415
5.36056
5.67799
6.23916
7.58372
0.75834
0.653488
0.611401
0.584045
0.566441
0.55352
0.543624
0.535824
0.529437
0.524071
0.519517
0.515591
0.512141
0.509275
0.506537
0.506577
0.507223
0.509014
0.519331
0.534056
0.602508
0.705252
1.15717
2.10447
4.65839
5.0238
4.98909
4.89778
4.87058
4.87999
4.91259
4.9609
4.99592
5.03244
5.08719
5.18224
5.34208
5.65497
6.21316
7.56535
0.758337
0.65349
0.611401
0.584046
0.566442
0.55352
0.543624
0.535825
0.529434
0.524076
0.519509
0.515603
0.512118
0.509301
0.506461
0.506483
0.50706
0.50874
0.518616
0.532524
0.598645
0.695642
1.13477
2.04789
4.57367
5.01796
4.98852
4.90577
4.87768
4.88636
4.91696
4.9633
4.99617
5.02989
5.07996
5.16867
5.32196
5.62866
6.18296
7.54054
0.758334
0.653491
0.611401
0.584047
0.566443
0.553521
0.543624
0.535827
0.529432
0.52408
0.5195
0.515615
0.512096
0.509324
0.506384
0.50639
0.506897
0.508488
0.517879
0.531113
0.594577
0.687237
1.11076
1.99412
4.47893
5.00935
4.98568
4.91227
4.88353
4.89151
4.92013
4.96416
4.99499
5.02551
5.07105
5.1533
5.30056
5.59785
6.14794
7.50886
0.75833
0.653494
0.611402
0.584048
0.566444
0.553521
0.543624
0.535827
0.52943
0.524083
0.519493
0.515624
0.512078
0.50934
0.50634
0.50626
0.506738
0.508266
0.517154
0.529833
0.590541
0.679014
1.08722
1.93949
4.37391
4.99808
4.98037
4.91752
4.88804
4.89533
4.92194
4.96349
4.99186
5.01917
5.06018
5.13582
5.27669
5.56294
6.10726
7.46858
0.758324
0.653498
0.611403
0.584049
0.566445
0.55352
0.543625
0.535826
0.529429
0.524084
0.519489
0.51563
0.512065
0.509349
0.506312
0.506144
0.506593
0.507921
0.516719
0.52794
0.588192
0.667467
1.07251
1.8764
4.26512
4.98393
4.97263
4.92162
4.8912
4.89776
4.92224
4.96114
4.98668
5.0108
5.04724
5.11608
5.24981
5.52364
6.05981
7.41809
0.75832
0.653501
0.611404
0.58405
0.566446
0.553519
0.543625
0.535825
0.529428
0.524086
0.519484
0.515636
0.512054
0.509356
0.506285
0.506018
0.50644
0.507718
0.516019
0.526737
0.584523
0.659319
1.05176
1.81971
4.14626
4.96748
4.96328
4.92442
4.8929
4.8987
4.92103
4.95646
4.97925
5.00004
5.0319
5.09399
5.21928
5.47953
6.00348
7.35463
0.758319
0.653501
0.611403
0.58405
0.566446
0.553519
0.543625
0.535826
0.529427
0.524088
0.51948
0.515642
0.512043
0.509361
0.506255
0.505873
0.506263
0.507477
0.515328
0.525482
0.580986
0.652038
1.02833
1.76438
4.01633
4.94899
4.95572
4.92534
4.89341
4.89836
4.91799
4.94973
4.96939
4.98665
5.01393
5.06898
5.18378
5.42975
5.9362
7.27573
0.758322
0.653499
0.611402
0.584048
0.566446
0.553519
0.543624
0.535828
0.529424
0.524092
0.519475
0.515649
0.512034
0.509363
0.506234
0.5057
0.506062
0.507308
0.514476
0.524949
0.575778
0.650397
0.991877
1.71871
3.86714
4.92846
4.95113
4.92538
4.89281
4.8967
4.913
4.94082
4.95706
4.97054
4.99316
5.04019
5.14282
5.37234
5.85734
7.17894
0.758323
0.653499
0.611402
0.584047
0.566445
0.55352
0.543623
0.53583
0.529423
0.524095
0.519472
0.515653
0.512028
0.509361
0.506229
0.505548
0.505879
0.50705
0.513851
0.523815
0.572107
0.644612
0.963911
1.66101
3.70709
4.90674
4.94793
4.92531
4.89069
4.89314
4.90564
4.92914
4.94192
4.95145
4.9689
5.00683
5.0954
5.30574
5.76448
7.05938
0.758325
0.653499
0.611402
0.584046
0.566443
0.553519
0.543622
0.535831
0.529422
0.524098
0.519471
0.515656
0.512026
0.509356
0.506227
0.505431
0.505721
0.506724
0.513418
0.522092
0.57013
0.632383
0.951347
1.58361
3.54628
4.88204
4.94484
4.92422
4.8863
4.88717
4.89575
4.91389
4.92339
4.92903
4.94047
4.96816
5.041
5.22877
5.65443
6.90948
0.758329
0.653498
0.611401
0.584045
0.566442
0.55352
0.54362
0.535833
0.52942
0.5241
0.519469
0.515658
0.512026
0.509345
0.506237
0.505287
0.505552
0.506541
0.512524
0.52084
0.565699
0.625182
0.922936
1.52031
3.36816
4.85892
4.94187
4.92152
4.87951
4.87702
4.88224
4.89453
4.90052
4.9023
4.90627
4.92289
4.97839
5.13929
5.52248
6.71817
0.758338
0.653489
0.611399
0.584045
0.566439
0.553525
0.543616
0.53584
0.529415
0.524107
0.519464
0.515662
0.512026
0.50933
0.506257
0.505091
0.50531
0.506905
0.509641
0.525798
0.547006
0.653738
0.824677
1.52451
3.13511
4.83901
4.93901
4.9172
4.86975
4.86099
4.86349
4.87007
4.87212
4.87
4.86408
4.86966
4.90651
5.03509
5.3618
6.4655
0.75834
0.653488
0.611398
0.584044
0.566439
0.553526
0.543616
0.535841
0.529415
0.524107
0.519466
0.515657
0.512036
0.509305
0.506286
0.504936
0.505125
0.506686
0.50915
0.524731
0.544417
0.644852
0.801226
1.44781
2.91411
4.81712
4.93273
4.90852
4.85424
4.8371
4.83651
4.83729
4.83584
4.82863
4.81136
4.80349
4.82146
4.91165
5.16003
6.11615
0.75834
0.653489
0.611398
0.584044
0.566439
0.553525
0.543616
0.535839
0.529416
0.524103
0.519472
0.515648
0.512052
0.509273
0.506326
0.504779
0.50494
0.506354
0.508623
0.523134
0.541511
0.634266
0.776605
1.36977
2.69157
4.77449
4.92042
4.89352
4.83179
4.80328
4.79772
4.79482
4.7885
4.77431
4.74648
4.7215
4.71832
4.76165
4.8965
5.6027
1.05253
1.04336
1.01973
0.992483
0.973643
0.957343
0.944608
0.93395
0.925081
0.917229
0.910857
0.904664
0.900149
0.894926
0.893918
0.894631
0.897233
0.909119
0.930827
1.01206
1.17256
1.66953
3.00883
6.54562
8.34367
8.32987
8.22831
8.09248
8.0956
8.13515
8.24096
8.38945
8.52498
8.67443
8.87047
9.14834
9.53341
10.1345
11.0055
12.2886
1.05252
1.04336
1.01973
0.992484
0.973641
0.957344
0.944607
0.93395
0.92508
0.917229
0.910857
0.904665
0.900146
0.894935
0.893861
0.894528
0.898417
0.90662
0.938116
0.997213
1.19931
1.63144
3.03403
6.53299
8.34485
8.33117
8.22875
8.0933
8.09648
8.13614
8.24203
8.38969
8.52481
8.6742
8.87025
9.14808
9.53294
10.1334
10.9993
12.2915
1.05252
1.04336
1.01973
0.992484
0.973641
0.957343
0.944607
0.93395
0.925081
0.917229
0.910858
0.904665
0.900146
0.894935
0.893859
0.894526
0.898412
0.906607
0.938064
0.997099
1.19889
1.63044
3.0314
6.52642
8.34537
8.33131
8.22813
8.09446
8.09798
8.13804
8.24397
8.3903
8.52455
8.67378
8.86983
9.1476
9.53197
10.1309
10.9896
12.2836
1.05253
1.04336
1.01973
0.992482
0.973642
0.957342
0.944608
0.933949
0.925082
0.917229
0.910859
0.904663
0.900151
0.894923
0.893915
0.894626
0.897231
0.909051
0.930685
1.0116
1.17149
1.66661
3.0012
6.52609
8.34521
8.33047
8.22702
8.0964
8.10043
8.14109
8.24685
8.39141
8.52435
8.67328
8.86926
9.1469
9.53042
10.1271
10.9779
12.2624
1.05253
1.04336
1.01973
0.992482
0.973642
0.957342
0.944608
0.93395
0.925082
0.917229
0.91086
0.904662
0.900154
0.894918
0.89392
0.894638
0.897302
0.909001
0.930805
1.01126
1.1707
1.66587
2.99182
6.51231
8.34453
8.32983
8.22664
8.09932
8.10393
8.1453
8.25082
8.39314
8.52426
8.67267
8.86847
9.14576
9.52797
10.1216
10.9626
12.2395
1.05253
1.04336
1.01973
0.992482
0.973642
0.957343
0.944608
0.93395
0.925082
0.91723
0.910859
0.904663
0.900151
0.894919
0.893899
0.894607
0.897205
0.908967
0.930498
1.01108
1.16973
1.66187
2.98652
6.49149
8.34373
8.32952
8.22703
8.10305
8.10827
8.15049
8.25577
8.39534
8.52419
8.67188
8.86733
9.14396
9.52433
10.1138
10.944
12.2167
1.05252
1.04336
1.01973
0.992484
0.97364
0.957344
0.944606
0.933952
0.925081
0.917231
0.910856
0.904667
0.900142
0.894931
0.893837
0.894518
0.898299
0.90656
0.937522
0.997196
1.19276
1.62454
2.99904
6.45537
8.34218
8.32958
8.22875
8.10812
8.11395
8.15713
8.26212
8.39827
8.52446
8.67113
8.86589
9.14142
9.51927
10.1037
10.9216
12.1971
1.05252
1.04336
1.01973
0.992484
0.97364
0.957344
0.944605
0.933953
0.925079
0.917233
0.910854
0.90467
0.900137
0.894936
0.893839
0.894533
0.898339
0.906732
0.937337
0.997495
1.18997
1.62034
2.98775
6.42253
8.33853
8.3279
8.23006
8.1136
8.12024
8.16465
8.26944
8.40155
8.52493
8.67032
8.86404
9.13797
9.51264
10.091
10.8966
12.1754
1.05252
1.04336
1.01973
0.992485
0.973639
0.957345
0.944605
0.933954
0.925078
0.917235
0.910851
0.904674
0.900131
0.89494
0.893818
0.894498
0.898354
0.906404
0.937368
0.995947
1.18978
1.6121
2.97387
6.38159
8.33544
8.32689
8.23239
8.12008
8.12749
8.17312
8.27778
8.40537
8.52576
8.66955
8.86183
9.13367
9.50455
10.0763
10.8695
12.1525
1.05252
1.04336
1.01973
0.992485
0.973639
0.957346
0.944604
0.933955
0.925077
0.917237
0.910848
0.904678
0.900124
0.894945
0.893787
0.89446
0.898284
0.906272
0.937002
0.995111
1.18739
1.6057
2.95499
6.33219
8.33289
8.32654
8.23545
8.12711
8.13531
8.18219
8.28685
8.40982
8.52688
8.66871
8.85911
9.12838
9.49493
10.0596
10.8406
12.1289
1.05252
1.04336
1.01973
0.992485
0.973639
0.957346
0.944604
0.933955
0.925075
0.917239
0.910845
0.904682
0.900117
0.894951
0.893746
0.894417
0.898143
0.90633
0.936264
0.995003
1.18271
1.60114
2.9309
6.27378
8.33142
8.32715
8.23927
8.13442
8.14342
8.19156
8.29633
8.41484
8.52835
8.6677
8.85579
9.12204
9.48379
10.0412
10.8099
12.1043
1.05252
1.04336
1.01973
0.992485
0.973639
0.957346
0.944603
0.933957
0.925073
0.917241
0.910841
0.904687
0.900107
0.89496
0.893686
0.894337
0.898063
0.905868
0.935958
0.992802
1.18105
1.58919
2.90629
6.20256
8.33219
8.32996
8.24489
8.14233
8.152
8.2012
8.30604
8.42041
8.53026
8.66658
8.85185
9.11461
9.47118
10.0211
10.778
12.0799
1.05252
1.04336
1.01973
0.992484
0.973638
0.957347
0.944602
0.933958
0.925071
0.917244
0.910836
0.904693
0.900095
0.89497
0.893615
0.894251
0.897915
0.905586
0.935272
0.991272
1.17726
1.57838
2.87627
6.11946
8.33439
8.33468
8.25205
8.15067
8.16083
8.21089
8.31574
8.42635
8.53246
8.66528
8.84719
9.10598
9.457
9.9993
10.7447
12.0566
1.05252
1.04336
1.01973
0.992484
0.973638
0.957347
0.944601
0.933959
0.925069
0.917247
0.910831
0.9047
0.90008
0.894983
0.89353
0.894147
0.897726
0.905254
0.934438
0.989526
1.17259
1.56689
2.8409
6.02382
8.33819
8.34211
8.26021
8.15935
8.16985
8.22053
8.32526
8.43253
8.53483
8.66371
8.84171
9.09603
9.4411
9.97577
10.7101
12.0347
1.05252
1.04336
1.01973
0.992484
0.973638
0.957346
0.9446
0.93396
0.925067
0.91725
0.910826
0.904707
0.900065
0.894995
0.893425
0.894015
0.897436
0.9049
0.933206
0.988029
1.16597
1.55729
2.79756
5.91534
8.34476
8.35204
8.26992
8.16835
8.17903
8.23007
8.33452
8.43883
8.53745
8.66189
8.83533
9.08469
9.42342
9.95047
10.6741
12.0143
1.05253
1.04336
1.01973
0.992483
0.973638
0.957346
0.9446
0.933961
0.925065
0.917254
0.910821
0.904715
0.900051
0.895002
0.893364
0.893959
0.896277
0.906615
0.925994
0.997783
1.13936
1.57413
2.72937
5.79907
8.3537
8.36393
8.28096
8.17734
8.18804
8.23927
8.34333
8.44498
8.54009
8.6598
8.82797
9.07185
9.40386
9.92337
10.6369
11.9951
1.05253
1.04336
1.01973
0.992481
0.973638
0.957346
0.944599
0.933963
0.925062
0.917258
0.910814
0.904724
0.900034
0.895017
0.893271
0.893842
0.896095
0.906192
0.925094
0.995345
1.13288
1.5588
2.6771
5.66242
8.3657
8.3783
8.29347
8.18616
8.19675
8.24802
8.35156
8.45072
8.54245
8.65725
8.81959
9.05749
9.38242
9.89462
10.5986
11.9764
1.05253
1.04336
1.01973
0.992482
0.973637
0.957347
0.944597
0.933965
0.925058
0.917263
0.910805
0.904736
0.90001
0.89504
0.893144
0.893689
0.895862
0.90567
0.924055
0.992516
1.12651
1.53946
2.62365
5.50668
8.38346
8.39609
8.30757
8.19482
8.20516
8.25631
8.35913
8.45597
8.54443
8.65416
8.8102
9.04161
9.3591
9.86437
10.5592
11.9581
1.05253
1.04336
1.01973
0.992483
0.973635
0.957348
0.944595
0.933968
0.925053
0.917268
0.910795
0.904749
0.899984
0.895069
0.892988
0.893482
0.896523
0.903167
0.928884
0.978348
1.13942
1.48833
2.58671
5.32519
8.40746
8.41718
8.323
8.20339
8.21327
8.26411
8.3659
8.46058
8.54589
8.65047
8.79978
9.02412
9.33378
9.83252
10.5192
11.9403
1.05253
1.04336
1.01973
0.992483
0.973635
0.957349
0.944593
0.93397
0.925049
0.917273
0.910787
0.904761
0.899963
0.89509
0.892875
0.893338
0.896296
0.902681
0.927613
0.975497
1.13165
1.46741
2.52259
5.13661
8.43502
8.43943
8.33849
8.21178
8.22113
8.27145
8.37182
8.46437
8.54658
8.64608
8.78816
9.00469
9.30608
9.79855
10.4775
11.924
1.05253
1.04336
1.01973
0.992483
0.973636
0.957348
0.944592
0.933971
0.925046
0.917278
0.91078
0.904771
0.899946
0.895104
0.892803
0.893258
0.895142
0.904136
0.920606
0.983655
1.10339
1.47768
2.43065
4.95084
8.46159
8.46085
8.35265
8.21979
8.22859
8.27833
8.37692
8.46733
8.54649
8.64091
8.77537
8.98341
9.27591
9.76219
10.4335
11.9089
1.05253
1.04336
1.01973
0.992481
0.973636
0.957348
0.944591
0.933972
0.925043
0.917283
0.910773
0.904782
0.899928
0.895121
0.8927
0.893132
0.894966
0.903592
0.919609
0.980195
1.09569
1.45497
2.36371
4.75436
8.47997
8.47988
8.36581
8.2273
8.23532
8.28406
8.38051
8.4687
8.54503
8.63421
8.76083
8.95986
9.24294
9.72291
10.3866
11.8945
1.05253
1.04336
1.01973
0.992481
0.973635
0.957348
0.94459
0.933975
0.925039
0.917289
0.910765
0.904794
0.899906
0.895142
0.892571
0.892966
0.894593
0.903149
0.918049
0.977457
1.08658
1.43447
2.29807
4.568
8.47965
8.49503
8.37763
8.23458
8.24158
8.28876
8.38262
8.46848
8.54175
8.62573
8.74425
8.93376
9.20689
9.68037
10.3362
11.8783
1.05253
1.04336
1.01972
0.99248
0.973633
0.957349
0.944587
0.933979
0.925035
0.917296
0.910755
0.904808
0.899882
0.895165
0.892449
0.892821
0.894486
0.902443
0.917317
0.973253
1.0801
1.40903
2.23982
4.38751
8.45914
8.5048
8.38819
8.24162
8.24722
8.29225
8.38292
8.46667
8.5366
8.61537
8.72559
8.90508
9.16781
9.63485
10.2817
11.8573
1.05253
1.04336
1.01972
0.992479
0.973632
0.95735
0.944586
0.933983
0.92503
0.917305
0.910743
0.904825
0.899854
0.895192
0.892316
0.89266
0.894229
0.901865
0.916077
0.969871
1.0723
1.38703
2.18152
4.23066
8.40445
8.50714
8.39678
8.24822
8.25217
8.29463
8.38166
8.46289
8.52943
8.60285
8.70467
8.87364
9.12568
9.5862
10.2229
11.8292
1.05253
1.04336
1.01972
0.992479
0.973631
0.957352
0.944584
0.933988
0.925025
0.917315
0.910729
0.904845
0.899819
0.895228
0.892167
0.892478
0.893965
0.901267
0.914922
0.966456
1.06493
1.3658
2.12545
4.09939
8.3126
8.50246
8.40253
8.25355
8.25586
8.29558
8.37857
8.45723
8.5202
8.58822
8.68164
8.83957
9.0804
9.534
10.1594
11.7919
1.05253
1.04336
1.01972
0.992481
0.97363
0.957354
0.944581
0.933994
0.925018
0.917327
0.910713
0.904868
0.899779
0.895271
0.892001
0.892269
0.893612
0.900717
0.913308
0.963627
1.05637
1.34664
2.0687
3.97261
8.20783
8.49405
8.40336
8.25707
8.25792
8.29493
8.37363
8.44938
8.50852
8.57111
8.65618
8.80279
9.03197
9.47719
10.0906
11.7442
1.05253
1.04336
1.01972
0.992484
0.973629
0.957359
0.944577
0.934001
0.92501
0.91734
0.910694
0.904894
0.899737
0.895316
0.891848
0.892092
0.893429
0.899979
0.912458
0.959533
1.04941
1.3258
2.01316
3.85094
8.09031
8.48249
8.40044
8.25891
8.25809
8.29257
8.36688
8.43914
8.49414
8.55111
8.62787
8.76293
8.98048
9.41448
10.0155
11.6853
1.05252
1.04336
1.01972
0.992487
0.973627
0.957364
0.944574
0.934009
0.925002
0.917352
0.910676
0.904918
0.899695
0.895362
0.891687
0.891897
0.893164
0.899333
0.911269
0.9562
1.04052
1.31082
1.95142
3.74471
7.94877
8.46561
8.39338
8.25919
8.25654
8.28843
8.35813
8.42636
8.47693
8.52793
8.59631
8.71953
8.9258
9.34423
9.93237
11.6137
1.05252
1.04336
1.01972
0.992492
0.973625
0.957369
0.94457
0.934016
0.924993
0.917364
0.910658
0.904941
0.899656
0.895401
0.891535
0.891697
0.892838
0.898745
0.909834
0.95342
1.033
1.29367
1.89851
3.6402
7.78399
8.44328
8.38193
8.25826
8.253
8.28244
8.34737
8.41104
8.4567
8.50149
8.56138
8.67236
8.86659
9.26672
9.84002
11.5269
1.05251
1.04335
1.01973
0.992498
0.973621
0.957375
0.944565
0.934024
0.924984
0.917375
0.910641
0.904962
0.899622
0.895435
0.891403
0.891543
0.892998
0.897009
0.912626
0.942886
1.04216
1.24906
1.88892
3.49713
7.61304
8.41714
8.36579
8.25606
8.24744
8.27438
8.33433
8.39297
8.43321
8.47156
8.52276
8.62098
8.80181
9.18103
9.73641
11.4221
1.05251
1.04335
1.01973
0.992502
0.973619
0.957379
0.944561
0.934029
0.924977
0.917384
0.910629
0.904978
0.899594
0.895461
0.89128
0.891384
0.892715
0.896591
0.911403
0.940467
1.03522
1.23084
1.84924
3.38058
7.42143
8.38786
8.34698
8.25224
8.23999
8.26416
8.31877
8.37188
8.40641
8.43807
8.48044
8.56526
8.73066
9.08642
9.61974
11.296
1.05251
1.04335
1.01972
0.992503
0.973619
0.957381
0.944559
0.934032
0.924973
0.917391
0.910619
0.904992
0.899571
0.895481
0.891145
0.891197
0.892364
0.895974
0.91004
0.937163
1.02943
1.21193
1.81184
3.26978
7.20728
8.35459
8.32659
8.24741
8.23059
8.25155
8.30016
8.34735
8.3759
8.40055
8.43435
8.50481
8.65149
8.98103
9.48729
11.1449
1.05252
1.04335
1.01972
0.9925
0.97362
0.957379
0.94456
0.934032
0.924971
0.917394
0.910614
0.905
0.899554
0.895492
0.89103
0.890897
0.891715
0.896361
0.905216
0.941512
1.00555
1.22884
1.71615
3.21128
6.95851
8.31881
8.30665
8.24252
8.2194
8.23653
8.27819
8.31904
8.34132
8.35872
8.3836
8.43875
8.56337
8.86316
9.3369
10.9633
1.05252
1.04335
1.01972
0.992497
0.97362
0.957378
0.94456
0.934033
0.92497
0.917397
0.91061
0.905007
0.899541
0.895496
0.890958
0.890659
0.891417
0.89577
0.904083
0.938786
0.998512
1.21522
1.66833
3.1045
6.69339
8.27973
8.28789
8.23624
8.20593
8.21871
8.25257
8.28648
8.30227
8.31224
8.32706
8.36543
8.46523
8.73095
9.16482
10.744
1.05252
1.04336
1.01972
0.992495
0.973618
0.957377
0.944559
0.934034
0.924969
0.9174
0.910607
0.905011
0.899532
0.895499
0.890894
0.890538
0.891397
0.894356
0.906344
0.929526
1.00892
1.16766
1.67791
2.94101
6.42128
8.23569
8.27145
8.22684
8.18877
8.19747
8.22299
8.24905
8.25828
8.26115
8.2639
8.28387
8.35656
8.58327
8.96684
10.4751
1.05252
1.04336
1.01972
0.992491
0.973619
0.957374
0.944561
0.934032
0.924971
0.917399
0.910608
0.905011
0.899529
0.895491
0.890851
0.890308
0.891096
0.893863
0.905175
0.92696
1.00241
1.15163
1.63566
2.82295
6.12132
8.19472
8.25632
8.21588
8.16773
8.17158
8.18826
8.20603
8.20858
8.20449
8.19171
8.19387
8.23571
8.41796
8.73686
10.1412
1.05253
1.04336
1.01972
0.992483
0.973625
0.957366
0.944567
0.934025
0.924978
0.917393
0.910615
0.905003
0.899536
0.895467
0.89083
0.889993
0.890616
0.894175
0.901633
0.930003
0.982993
1.16246
1.5429
2.75313
5.77263
8.15912
8.24435
8.2031
8.14257
8.13901
8.1474
8.15635
8.15368
8.14129
8.1112
8.0903
8.10278
8.2334
8.46561
9.71427
1.05253
1.04336
1.01972
0.992481
0.973628
0.957363
0.944569
0.934022
0.924981
0.917388
0.910621
0.904994
0.899548
0.895435
0.890832
0.889733
0.890314
0.893639
0.900585
0.927372
0.977464
1.14481
1.49779
2.62435
5.40873
8.125
8.23201
8.18761
8.11246
8.09747
8.09903
8.09923
8.09185
8.06953
8.02146
7.9766
7.95111
8.02718
8.14194
9.15108
1.05253
1.04336
1.01972
0.992482
0.973628
0.957363
0.94457
0.934019
0.924983
0.917382
0.910628
0.904981
0.899566
0.895394
0.89086
0.889447
0.889969
0.89301
0.899496
0.924426
0.97121
1.12676
1.45285
2.48847
5.03417
8.08408
8.22231
8.1712
8.07752
8.04669
8.04085
8.03512
8.02059
7.98772
7.92331
7.85509
7.78406
7.79381
7.7493
8.37195
1.06613
1.10994
1.11434
1.11126
1.10353
1.09289
1.08436
1.07614
1.0689
1.06231
1.05678
1.05125
1.04707
1.04254
1.04255
1.04375
1.04724
1.06426
1.09133
1.20177
1.40161
2.06991
3.79231
8.55384
10.1915
10.1207
9.91159
9.78408
9.80668
9.88908
10.0547
10.2192
10.3676
10.5386
10.7604
11.0674
11.4768
12.0654
12.8025
13.6765
1.06612
1.10995
1.11434
1.11126
1.10353
1.09289
1.08436
1.07614
1.0689
1.06231
1.05678
1.05125
1.04706
1.04254
1.0425
1.04361
1.04861
1.06031
1.10122
1.18081
1.43554
2.0234
3.82525
8.54055
10.1908
10.1202
9.911
9.78522
9.80794
9.8904
10.0556
10.2193
10.3675
10.5384
10.76
11.0669
11.4757
12.0628
12.7939
13.6718
1.06612
1.10995
1.11433
1.11126
1.10353
1.09289
1.08436
1.07614
1.0689
1.06231
1.05678
1.05125
1.04706
1.04254
1.0425
1.04361
1.0486
1.06029
1.10115
1.1807
1.43497
2.02229
3.82188
8.53228
10.1884
10.1175
9.90853
9.78678
9.80995
9.893
10.0572
10.2196
10.3672
10.5379
10.7593
11.0659
11.4735
12.0574
12.7788
13.6603
1.06613
1.10995
1.11434
1.11126
1.10353
1.09289
1.08436
1.07614
1.0689
1.06231
1.05678
1.05125
1.04707
1.04253
1.04255
1.04375
1.04726
1.06413
1.09132
1.20088
1.40084
2.06546
3.78334
8.52857
10.1847
10.1132
9.90513
9.78909
9.81298
9.89712
10.0597
10.2202
10.3669
10.5373
10.7584
11.0645
11.4703
12.0492
12.7592
13.6429
1.06613
1.10995
1.11434
1.11126
1.10353
1.09289
1.08436
1.07614
1.0689
1.06231
1.05678
1.05125
1.04707
1.04252
1.04253
1.04378
1.04771
1.06339
1.09404
1.19535
1.4084
2.05396
3.77836
8.5097
10.1792
10.108
9.90178
9.79198
9.81673
9.90234
10.0628
10.221
10.3666
10.5364
10.7569
11.062
11.4651
12.0374
12.7342
13.6228
1.06612
1.10995
1.11434
1.11126
1.10353
1.09289
1.08436
1.07614
1.0689
1.06231
1.05678
1.05125
1.04707
1.04252
1.04253
1.04369
1.04725
1.06391
1.09118
1.19991
1.39945
2.0586
3.76742
8.48423
10.1725
10.1022
9.89866
9.79517
9.82093
9.90838
10.0665
10.222
10.3661
10.5349
10.7546
11.0581
11.4575
12.0218
12.7044
13.5996
1.06612
1.10995
1.11433
1.11126
1.10353
1.09289
1.08436
1.07615
1.0689
1.06232
1.05678
1.05125
1.04706
1.04253
1.0424
1.04339
1.04899
1.05898
1.1028
1.17642
1.43724
2.00132
3.79252
8.44002
10.164
10.0959
9.89626
9.79896
9.82573
9.91518
10.071
10.2231
10.3655
10.5331
10.7514
11.0525
11.447
12.0024
12.6702
13.5741
1.06612
1.10996
1.11433
1.11126
1.10353
1.09289
1.08436
1.07615
1.0689
1.06232
1.05678
1.05126
1.04705
1.04253
1.04243
1.04347
1.04892
1.06028
1.10062
1.18116
1.42645
2.00611
3.77308
8.4003
10.1531
10.0872
9.89303
9.80261
9.83058
9.92233
10.0758
10.2243
10.3647