/*--------------------------------*- C++ -*----------------------------------*\
  =========                 |
  \\      /  F ield         | OpenFOAM: The Open Source CFD Toolbox
   \\    /   O peration     | Website:  https://openfoam.org
    \\  /    A nd           | Version:  6.0
     \\/     M anipulation  |
\*---------------------------------------------------------------------------*/
FoamFile
{
    version     2.0;
    format      ascii;
    class       volScalarField;
    location    "3";
    object      T;
}
// * * * * * * * * * * * * * * * * * * * * * * * * * * * * * * * * * * * * * //

dimensions      [0 0 0 1 0 0 0];

internalField   nonuniform List<scalar> 
192000
(
0.896125
0.861489
0.844609
0.833234
0.825426
0.819532
0.814908
0.811178
0.808074
0.805439
0.80317
0.801212
0.799494
0.798112
0.797598
0.797708
0.799319
0.801971
0.815991
0.841093
0.932192
1.10916
1.65142
2.09063
2.19962
2.19986
2.19357
2.18446
2.17979
2.18127
2.19228
2.20183
2.21537
2.22399
2.24293
2.25925
2.29973
2.3317
2.46413
2.25809
0.896126
0.861487
0.844615
0.833229
0.825433
0.819526
0.814916
0.811172
0.808083
0.805432
0.803179
0.801204
0.799505
0.798103
0.797604
0.7977
0.799422
0.802004
0.816486
0.840447
0.93443
1.10886
1.65366
2.08624
2.19537
2.19564
2.18924
2.1802
2.17555
2.17702
2.18786
2.19702
2.2103
2.21879
2.23747
2.25364
2.29388
2.32559
2.45914
2.248
0.896126
0.861487
0.844615
0.833229
0.825433
0.819526
0.814916
0.811172
0.808083
0.805432
0.803179
0.801204
0.799505
0.798102
0.797603
0.797699
0.79942
0.801994
0.816466
0.84035
0.93428
1.10812
1.65296
2.08611
2.1955
2.19609
2.18971
2.18076
2.17643
2.17791
2.18905
2.1981
2.21133
2.21987
2.23864
2.25485
2.29508
2.32687
2.46005
2.24937
0.896125
0.861489
0.844609
0.833233
0.825426
0.819532
0.814908
0.811178
0.808074
0.80544
0.80317
0.801212
0.799494
0.798111
0.797597
0.797706
0.799311
0.801951
0.815927
0.840887
0.93176
1.10721
1.64948
2.09045
2.20097
2.20208
2.19579
2.18692
2.18331
2.1849
2.19682
2.20625
2.21969
2.22846
2.24774
2.26426
2.30493
2.33718
2.46929
2.26363
0.896129
0.861485
0.844613
0.833229
0.825431
0.819527
0.814912
0.811174
0.808078
0.805435
0.803174
0.801207
0.799498
0.798106
0.797599
0.797693
0.799285
0.802226
0.815911
0.842313
0.93175
1.11063
1.64772
2.09025
2.20187
2.2035
2.19732
2.1887
2.18577
2.18749
2.19997
2.20954
2.22292
2.23183
2.25141
2.26812
2.30903
2.34154
2.47329
2.2705
0.896125
0.861489
0.844609
0.833233
0.825426
0.819532
0.814908
0.811178
0.808074
0.80544
0.80317
0.801212
0.799494
0.79811
0.797594
0.797701
0.799298
0.801956
0.815823
0.840781
0.930924
1.10547
1.64472
2.09005
2.20306
2.20496
2.19878
2.19027
2.1878
2.18955
2.20257
2.21188
2.22535
2.23434
2.25408
2.2709
2.31189
2.34455
2.47558
2.27484
0.896131
0.861481
0.844619
0.833224
0.825438
0.81952
0.81492
0.811166
0.808087
0.805427
0.803184
0.801199
0.799508
0.798096
0.797602
0.797683
0.799358
0.802398
0.816284
0.841493
0.932684
1.10742
1.64479
2.08522
2.19965
2.20179
2.19569
2.18748
2.18537
2.18719
2.20035
2.20938
2.22246
2.23139
2.25104
2.26782
2.30862
2.3412
2.4721
2.2699
0.896128
0.861484
0.844617
0.833227
0.825435
0.819523
0.814918
0.811169
0.808085
0.80543
0.803182
0.801202
0.799506
0.798098
0.797598
0.797691
0.799367
0.802114
0.816135
0.840106
0.931513
1.10134
1.64236
2.0862
2.20238
2.20444
2.19825
2.19011
2.18828
2.19008
2.20357
2.21231
2.22536
2.23429
2.25395
2.27074
2.31147
2.34402
2.47417
2.27083
0.896132
0.861479
0.844621
0.833223
0.825439
0.819519
0.814921
0.811165
0.808088
0.805426
0.803184
0.801198
0.799508
0.798093
0.797595
0.797677
0.799336
0.802315
0.816029
0.840646
0.930821
1.09973
1.63703
2.08329
2.20199
2.20436
2.19838
2.1906
2.18916
2.1911
2.20481
2.21335
2.22629
2.23527
2.25495
2.27176
2.31239
2.34498
2.47458
2.27081
0.896131
0.86148
0.84462
0.833223
0.825438
0.81952
0.814921
0.811166
0.808087
0.805427
0.803184
0.801198
0.799507
0.798091
0.797586
0.797666
0.79931
0.802258
0.815862
0.840264
0.92968
1.0964
1.63107
2.08084
2.20238
2.2049
2.19898
2.19153
2.19042
2.19246
2.20637
2.21474
2.22754
2.23657
2.25625
2.27305
2.31357
2.34619
2.47529
2.27069
0.896126
0.861485
0.844616
0.833228
0.825435
0.819525
0.814917
0.81117
0.808084
0.805431
0.803181
0.801202
0.799504
0.798093
0.797571
0.797657
0.799286
0.801966
0.815633
0.839057
0.928029
1.09153
1.62451
2.07953
2.20449
2.20714
2.20119
2.194
2.1932
2.19554
2.20963
2.21792
2.2307
2.23986
2.2596
2.27644
2.31691
2.34961
2.47835
2.27255
0.896131
0.861481
0.844619
0.833224
0.825437
0.819521
0.81492
0.811167
0.808086
0.805428
0.803183
0.801199
0.799506
0.798086
0.797556
0.797629
0.799228
0.802099
0.815402
0.8393
0.926675
1.08839
1.61508
2.07446
2.20378
2.20693
2.20113
2.19447
2.194
2.19692
2.21112
2.21937
2.23214
2.24139
2.26119
2.27805
2.31851
2.35136
2.48004
2.27343
0.89613
0.861482
0.844618
0.833225
0.825436
0.819522
0.814919
0.811168
0.808086
0.805428
0.803182
0.801199
0.799505
0.798082
0.797535
0.797605
0.799173
0.801975
0.8151
0.838606
0.924782
1.0828
1.60478
2.06922
2.20333
2.20663
2.20079
2.19449
2.19422
2.19761
2.21185
2.22002
2.2327
2.24196
2.26178
2.27862
2.31896
2.35191
2.4805
2.27273
0.896129
0.861483
0.844618
0.833226
0.825435
0.819523
0.814918
0.811169
0.808085
0.805429
0.803182
0.801199
0.799504
0.798078
0.79751
0.797574
0.799108
0.801828
0.81475
0.837869
0.922537
1.07767
1.59264
2.06357
2.20313
2.20669
2.20073
2.19459
2.19453
2.19837
2.21267
2.2208
2.2334
2.24265
2.26258
2.27937
2.31955
2.35265
2.48147
2.27181
0.896124
0.861489
0.844613
0.833231
0.825432
0.819528
0.814915
0.811173
0.808082
0.805433
0.803179
0.801203
0.799501
0.798074
0.797479
0.797537
0.79903
0.801606
0.814366
0.836991
0.920112
1.07209
1.57846
2.05602
2.20185
2.20561
2.19947
2.19359
2.19364
2.19784
2.21214
2.22022
2.23267
2.24184
2.26171
2.27842
2.31841
2.35169
2.48096
2.26916
0.896124
0.861491
0.844608
0.833235
0.825425
0.819533
0.814907
0.811179
0.808073
0.80544
0.80317
0.801209
0.799491
0.798076
0.797442
0.797506
0.798875
0.801337
0.813524
0.836507
0.915046
1.06885
1.56336
2.05324
2.20538
2.20857
2.20173
2.19543
2.19518
2.19948
2.21345
2.22129
2.23345
2.24244
2.262
2.27852
2.31812
2.35146
2.48102
2.26672
0.896124
0.86149
0.844607
0.833235
0.825425
0.819533
0.814906
0.811179
0.808073
0.80544
0.80317
0.801209
0.79949
0.798069
0.797412
0.797464
0.798782
0.801206
0.813044
0.836027
0.912223
1.0611
1.54219
2.04614
2.20657
2.21054
2.20358
2.19765
2.19771
2.20252
2.2166
2.22449
2.23649
2.24535
2.26474
2.28103
2.32008
2.35336
2.48263
2.26574
0.896122
0.861492
0.844606
0.833237
0.825423
0.819535
0.814905
0.811181
0.808072
0.805441
0.803169
0.801209
0.799488
0.798063
0.797378
0.797424
0.798694
0.801021
0.812527
0.834656
0.908435
1.05361
1.52117
2.03672
2.20654
2.21069
2.20355
2.19754
2.19795
2.20326
2.21772
2.22587
2.23831
2.2473
2.26706
2.28339
2.32253
2.35628
2.48684
2.26692
0.896122
0.861491
0.84461
0.833234
0.825428
0.819531
0.814911
0.811176
0.808079
0.805436
0.803177
0.801203
0.799496
0.798049
0.797351
0.797373
0.798661
0.801046
0.812353
0.833666
0.906806
1.04214
1.4945
2.01887
2.20015
2.20559
2.19912
2.19379
2.19497
2.201
2.21592
2.22426
2.23692
2.24598
2.2658
2.2823
2.3216
2.35578
2.48774
2.26692
0.896118
0.861496
0.844607
0.833238
0.825425
0.819534
0.814908
0.81118
0.808076
0.80544
0.803174
0.801206
0.799494
0.798044
0.797314
0.797332
0.798571
0.800684
0.811745
0.831884
0.902552
1.03124
1.47071
2.00246
2.19226
2.19741
2.19066
2.18577
2.1876
2.19472
2.21112
2.22029
2.2337
2.24299
2.2631
2.27981
2.31924
2.35402
2.48743
2.2655
0.896118
0.861498
0.844601
0.833243
0.825418
0.81954
0.814899
0.811187
0.808066
0.805447
0.803164
0.801213
0.799482
0.798045
0.797271
0.797295
0.798404
0.800217
0.810727
0.830553
0.895824
1.02381
1.44528
1.99207
2.18822
2.1905
2.18298
2.17566
2.17661
2.18297
2.19894
2.20808
2.22232
2.23206
2.2531
2.27056
2.31136
2.3476
2.48469
2.26277
0.896118
0.861497
0.844601
0.833242
0.825418
0.81954
0.8149
0.811186
0.808067
0.805447
0.803164
0.801212
0.799482
0.798037
0.797238
0.797247
0.798283
0.800268
0.810028
0.830224
0.89223
1.0148
1.4014
1.98231
2.18915
2.19096
2.18323
2.17417
2.17449
2.18008
2.19453
2.20268
2.2153
2.22417
2.24355
2.26033
2.3002
2.33664
2.47595
2.25545
0.896111
0.861506
0.844593
0.83325
0.825411
0.819548
0.814893
0.811194
0.80806
0.805455
0.803158
0.801219
0.799475
0.798037
0.797198
0.797212
0.798219
0.799767
0.80942
0.828444
0.887698
1.00762
1.3743
1.97276
2.1937
2.19716
2.18761
2.17677
2.17536
2.18019
2.19379
2.2015
2.21325
2.22153
2.23957
2.25564
2.29398
2.33028
2.46968
2.24671
0.896118
0.861498
0.844601
0.833241
0.825418
0.81954
0.8149
0.811186
0.808067
0.805447
0.803165
0.801211
0.799481
0.798022
0.79717
0.797162
0.798105
0.799864
0.808552
0.827976
0.883056
0.999288
1.35756
1.95731
2.19663
2.20578
2.19558
2.18583
2.18342
2.187
2.19881
2.20523
2.21512
2.22258
2.23909
2.25464
2.29169
2.32795
2.46794
2.24271
0.896112
0.861504
0.844595
0.833248
0.825412
0.819547
0.814894
0.811193
0.808062
0.805453
0.80316
0.801216
0.799475
0.798021
0.79713
0.797123
0.798025
0.799551
0.80798
0.826499
0.879394
0.990735
1.33711
1.94003
2.19729
2.21189
2.20218
2.1919
2.19047
2.19387
2.20543
2.21259
2.22228
2.22921
2.24418
2.25859
2.29321
2.32918
2.46875
2.24295
0.896107
0.86151
0.844589
0.833255
0.825406
0.819553
0.814889
0.8112
0.808057
0.805459
0.803156
0.801221
0.79947
0.798019
0.79709
0.797079
0.797919
0.799452
0.807249
0.825458
0.875405
0.983311
1.31772
1.93036
2.19731
2.21698
2.20811
2.19768
2.19612
2.19921
2.21038
2.21722
2.22691
2.23387
2.24864
2.26327
2.29766
2.33356
2.47274
2.24534
0.896115
0.861501
0.844598
0.833245
0.825415
0.819544
0.814897
0.81119
0.808065
0.80545
0.803164
0.801211
0.799476
0.798
0.797057
0.797025
0.797851
0.798911
0.807026
0.823192
0.873434
0.974732
1.30438
1.9207
2.19775
2.2232
2.2152
2.20523
2.20305
2.20576
2.21618
2.22266
2.23189
2.23856
2.25273
2.26712
2.30078
2.33741
2.47843
2.25191
0.896143
0.861468
0.844627
0.833212
0.825444
0.81951
0.814927
0.811157
0.808094
0.805416
0.803193
0.801176
0.799504
0.797958
0.797046
0.796947
0.797744
0.798726
0.806496
0.822009
0.87059
0.967467
1.28925
1.90514
2.1958
2.22822
2.2216
2.21274
2.21031
2.21276
2.22232
2.22849
2.23703
2.24329
2.25655
2.27055
2.30306
2.33989
2.48205
2.25758
0.896166
0.86144
0.844652
0.833183
0.82547
0.819481
0.814952
0.811128
0.808119
0.805387
0.803218
0.801146
0.799528
0.79792
0.797032
0.796874
0.797643
0.79851
0.805941
0.820817
0.867513
0.960734
1.27323
1.88595
2.19099
2.23161
2.22662
2.21936
2.21738
2.21994
2.22904
2.23495
2.243
2.24887
2.26129
2.27472
2.30625
2.34241
2.48565
2.26463
0.896195
0.861406
0.844683
0.833149
0.8255
0.819446
0.814982
0.811093
0.808149
0.805351
0.803247
0.80111
0.799556
0.797879
0.797025
0.796789
0.797526
0.798332
0.80542
0.819097
0.864274
0.950908
1.25682
1.86314
2.18248
2.23183
2.22936
2.22335
2.22227
2.22525
2.23437
2.24034
2.24818
2.25378
2.26557
2.27841
2.30906
2.3444
2.48843
2.27033
0.896251
0.861339
0.844743
0.83308
0.825561
0.819376
0.815043
0.811023
0.80821
0.805282
0.803308
0.80104
0.799614
0.797807
0.797056
0.796676
0.797443
0.798137
0.805235
0.817464
0.862712
0.94508
1.24787
1.84966
2.1756
2.23215
2.23153
2.22604
2.22572
2.22909
2.23834
2.24464
2.25278
2.25834
2.26987
2.28222
2.31181
2.34623
2.49136
2.27757
0.89628
0.861305
0.844774
0.833045
0.825591
0.819341
0.815073
0.810987
0.80824
0.805246
0.803337
0.801005
0.799643
0.797768
0.797055
0.796593
0.79732
0.798034
0.804783
0.815736
0.859814
0.935428
1.23287
1.8312
2.17154
2.23498
2.23458
2.22912
2.22823
2.23146
2.24038
2.24642
2.25499
2.26067
2.27247
2.28453
2.31428
2.3474
2.49316
2.28392
0.896293
0.861289
0.844788
0.833028
0.825606
0.819324
0.815088
0.81097
0.808255
0.805228
0.803353
0.800986
0.799657
0.797744
0.797036
0.796507
0.797205
0.797872
0.804307
0.814631
0.857199
0.929833
1.21491
1.80873
2.16269
2.23917
2.23917
2.23468
2.23269
2.23553
2.24336
2.24844
2.25634
2.26174
2.27307
2.28473
2.31367
2.3463
2.49328
2.28866
0.896269
0.861318
0.844759
0.833059
0.825576
0.819356
0.815058
0.811003
0.808225
0.805261
0.803323
0.801018
0.799625
0.797772
0.796967
0.796445
0.797061
0.797739
0.803569
0.814111
0.85305
0.921667
1.18395
1.76799
2.14724
2.23799
2.24082
2.23843
2.23711
2.24014
2.24735
2.252
2.25888
2.26364
2.2737
2.28453
2.31234
2.34374
2.49229
2.29324
0.896262
0.861328
0.84475
0.833069
0.825567
0.819366
0.815049
0.811013
0.808216
0.805271
0.803314
0.801029
0.799614
0.79778
0.796928
0.796371
0.796952
0.797574
0.803107
0.813254
0.850098
0.916405
1.16109
1.73249
2.12497
2.23242
2.2391
2.23849
2.23897
2.24295
2.25014
2.25507
2.26179
2.26616
2.27496
2.28454
2.30957
2.33913
2.4889
2.29583
0.896259
0.861331
0.844748
0.833071
0.825565
0.819368
0.815048
0.811015
0.808216
0.805274
0.803313
0.801031
0.799612
0.797779
0.796905
0.796301
0.796888
0.797379
0.802866
0.812257
0.848596
0.914279
1.15346
1.70445
2.10813
2.22462
2.23313
2.23437
2.23713
2.24318
2.25116
2.25657
2.2638
2.26826
2.27686
2.28531
2.30756
2.33432
2.48423
2.29609
0.896244
0.861349
0.844731
0.83309
0.825548
0.819388
0.81503
0.811036
0.808197
0.805295
0.803294
0.801052
0.799591
0.797799
0.796861
0.796244
0.796771
0.797284
0.802565
0.809746
0.8461
0.905663
1.13286
1.66295
2.09194
2.22242
2.23046
2.23106
2.23347
2.24041
2.25011
2.25622
2.26451
2.26904
2.2773
2.28512
2.30543
2.32767
2.47396
2.29312
0.896125
0.86149
0.844605
0.833235
0.825423
0.819533
0.814906
0.81118
0.808074
0.805438
0.803173
0.801194
0.799469
0.797937
0.796712
0.796282
0.796382
0.797985
0.799911
0.813571
0.832279
0.919344
1.06931
1.58584
2.05726
2.21523
2.22559
2.22772
2.23026
2.23631
2.24676
2.25499
2.26421
2.26995
2.27766
2.28495
2.30443
2.32193
2.46425
2.28578
0.896117
0.8615
0.844596
0.833244
0.825414
0.819544
0.814897
0.811191
0.808065
0.805449
0.803163
0.801206
0.799457
0.797947
0.796679
0.79621
0.796277
0.7977
0.800234
0.812036
0.833194
0.909796
1.0522
1.53541
2.02146
2.20545
2.22084
2.22609
2.22899
2.23466
2.245
2.25242
2.26275
2.26944
2.27731
2.28337
2.30096
2.31177
2.44258
2.26978
0.896119
0.861497
0.844599
0.833241
0.825417
0.819541
0.814899
0.811188
0.808067
0.805446
0.803165
0.801204
0.799457
0.797943
0.79666
0.796126
0.796173
0.79747
0.799841
0.810757
0.830921
0.901247
1.03137
1.4887
1.97789
2.18515
2.21047
2.22232
2.22962
2.23828
2.25108
2.26072
2.27085
2.27721
2.28465
2.28935
2.30389
2.30713
2.4164
2.21403
1.00317
0.996909
0.990522
0.98343
0.97791
0.973361
0.969642
0.966539
0.963846
0.961565
0.959515
0.957791
0.956179
0.955152
0.95504
0.955778
0.9571
0.964414
0.975746
1.02164
1.10421
1.39218
2.09451
2.50646
2.5957
2.59081
2.57933
2.57625
2.57783
2.58393
2.59951
2.60909
2.62464
2.63638
2.6609
2.68319
2.73118
2.77158
2.88367
2.67719
1.00317
0.99685
0.990582
0.983367
0.977972
0.973297
0.969706
0.966473
0.963911
0.961498
0.959581
0.957723
0.956247
0.955077
0.955122
0.955631
0.957245
0.965496
0.97735
1.01881
1.11145
1.38175
2.06839
2.49879
2.58959
2.58544
2.57394
2.57071
2.57224
2.57823
2.59412
2.60369
2.61904
2.63069
2.65503
2.67716
2.72489
2.76495
2.87869
2.68062
1.00317
0.99685
0.990582
0.983367
0.977972
0.973297
0.969706
0.966473
0.963911
0.961499
0.959582
0.957723
0.956247
0.955076
0.955121
0.95563
0.957242
0.965482
0.977325
1.01874
1.11124
1.38126
2.06776
2.49878
2.59002
2.58613
2.57468
2.57143
2.57289
2.57889
2.59484
2.60439
2.61967
2.6313
2.6556
2.67767
2.72519
2.76498
2.87863
2.6833
1.00317
0.996908
0.990523
0.983429
0.97791
0.973361
0.969643
0.966539
0.963846
0.961565
0.959516
0.95779
0.95618
0.95515
0.95504
0.955777
0.957091
0.964384
0.975652
1.02144
1.10374
1.39023
2.09171
2.50536
2.59605
2.59199
2.58071
2.57754
2.57888
2.58498
2.6007
2.60983
2.62522
2.63687
2.66117
2.68325
2.73039
2.76998
2.8819
2.68483
1.00317
0.996905
0.990526
0.983425
0.977914
0.973356
0.969647
0.966533
0.963852
0.961559
0.959521
0.957784
0.956185
0.955144
0.955051
0.955786
0.957094
0.964375
0.975587
1.02162
1.10377
1.38959
2.0876
2.50201
2.59368
2.59025
2.57961
2.57658
2.57827
2.58459
2.60039
2.60932
2.62488
2.63659
2.66101
2.68313
2.73009
2.7697
2.88125
2.68673
1.00317
0.996908
0.990523
0.983429
0.97791
0.97336
0.969643
0.966539
0.963847
0.961565
0.959516
0.95779
0.956179
0.955147
0.955035
0.955769
0.957075
0.964335
0.975551
1.02102
1.10284
1.38715
2.08727
2.50439
2.59733
2.59391
2.58355
2.58015
2.58184
2.58803
2.60344
2.61222
2.62744
2.63911
2.66338
2.68537
2.73177
2.7711
2.88175
2.68676
1.00317
0.996855
0.990577
0.983372
0.977967
0.973301
0.969702
0.966478
0.963907
0.961503
0.959577
0.957727
0.956242
0.955076
0.95509
0.955773
0.957127
0.96572
0.976742
1.01921
1.10704
1.37716
2.05847
2.49393
2.59
2.58781
2.57824
2.5753
2.57744
2.58425
2.59993
2.6089
2.62412
2.63582
2.66015
2.68211
2.72828
2.76748
2.87957
2.68713
1.00317
0.996854
0.990578
0.983371
0.977968
0.973301
0.969702
0.966478
0.963907
0.961503
0.959578
0.957727
0.956242
0.955077
0.955095
0.955764
0.957174
0.965686
0.976594
1.01995
1.10578
1.37502
2.05947
2.49688
2.59414
2.59127
2.58152
2.57826
2.58012
2.58731
2.60246
2.61127
2.62603
2.63759
2.66162
2.68327
2.72862
2.76722
2.87909
2.68834
1.00317
0.996861
0.990572
0.983378
0.977962
0.973307
0.969696
0.966483
0.963902
0.961508
0.959572
0.957731
0.956236
0.95508
0.955069
0.955899
0.95705
0.966263
0.976303
1.02029
1.10426
1.3713
2.05074
2.49253
2.59286
2.5909
2.58195
2.57873
2.58087
2.5885
2.60356
2.61228
2.62677
2.63819
2.66203
2.6834
2.728
2.76601
2.87815
2.68896
1.00317
0.996861
0.990571
0.983378
0.977961
0.973307
0.969696
0.966483
0.963901
0.961508
0.959572
0.957731
0.956236
0.955076
0.955059
0.955879
0.957021
0.966173
0.976125
1.01983
1.103
1.36781
2.04351
2.48899
2.59224
2.59063
2.58218
2.57904
2.58141
2.58928
2.60447
2.61312
2.62732
2.63861
2.66229
2.68343
2.72738
2.76482
2.87729
2.6904
1.00317
0.996847
0.990585
0.983364
0.977975
0.973293
0.96971
0.966469
0.963915
0.961494
0.959586
0.957717
0.956249
0.955056
0.955068
0.955707
0.957088
0.965429
0.976071
1.01858
1.10191
1.36467
2.03798
2.48729
2.59377
2.59212
2.58406
2.58058
2.58296
2.59086
2.60602
2.61455
2.62847
2.63953
2.66299
2.68379
2.72695
2.76379
2.87653
2.69291
1.00317
0.996862
0.99057
0.983379
0.97796
0.973308
0.969695
0.966484
0.963901
0.961508
0.959572
0.95773
0.956235
0.955062
0.955024
0.955814
0.956929
0.965912
0.975623
1.01863
1.09969
1.35886
2.02525
2.48032
2.59237
2.59079
2.58374
2.58048
2.58322
2.59144
2.60669
2.61521
2.6291
2.63998
2.66322
2.68375
2.72617
2.76256
2.87562
2.69515
1.00317
0.996864
0.990567
0.983381
0.977958
0.973309
0.969693
0.966486
0.963899
0.96151
0.95957
0.957731
0.956233
0.955054
0.954998
0.955777
0.95686
0.965774
0.975284
1.01788
1.09781
1.35274
2.01346
2.47425
2.59201
2.5903
2.58371
2.58044
2.58335
2.59183
2.60712
2.61563
2.62946
2.64014
2.66302
2.6834
2.72532
2.76134
2.87485
2.69691
1.00317
0.996865
0.990567
0.983381
0.977957
0.973309
0.969693
0.966486
0.963898
0.961509
0.95957
0.957729
0.956233
0.955042
0.95497
0.955718
0.956785
0.965548
0.974901
1.01683
1.09555
1.34619
1.99878
2.4676
2.59152
2.58983
2.58362
2.58034
2.58352
2.59223
2.6075
2.61603
2.62967
2.64009
2.66254
2.68268
2.72393
2.75947
2.87366
2.69945
1.00318
0.996844
0.990588
0.983359
0.977979
0.973287
0.969714
0.966463
0.963921
0.961486
0.959593
0.957705
0.956256
0.955004
0.954956
0.955511
0.956754
0.964736
0.974628
1.01427
1.09308
1.34002
1.98119
2.45709
2.58913
2.58774
2.58252
2.57951
2.58316
2.59217
2.60756
2.61625
2.62987
2.64008
2.66189
2.6818
2.72253
2.75767
2.87249
2.70193
1.00317
0.996907
0.990524
0.983427
0.977912
0.973357
0.969645
0.966535
0.96385
0.96156
0.959521
0.957778
0.956182
0.95507
0.954861
0.955492
0.956624
0.963076
0.973108
1.01368
1.08644
1.33818
1.98264
2.45018
2.58748
2.58582
2.5803
2.57738
2.5815
2.59094
2.60667
2.61554
2.62943
2.6396
2.66108
2.68077
2.72106
2.75582
2.87107
2.70409
1.00317
0.996914
0.990516
0.98343
0.977907
0.973359
0.969641
0.966536
0.963847
0.961559
0.959519
0.957776
0.95618
0.955057
0.954828
0.955437
0.956533
0.962888
0.972615
1.01268
1.08395
1.32848
1.96471
2.44338
2.58769
2.58572
2.57992
2.57625
2.58043
2.58972
2.60562
2.61431
2.6284
2.63847
2.65954
2.67913
2.71907
2.75389
2.87025
2.7071
1.00317
0.996908
0.990523
0.983428
0.977911
0.973358
0.969644
0.966536
0.963849
0.96156
0.959521
0.957776
0.956182
0.955042
0.954786
0.955373
0.956431
0.962574
0.972112
1.01073
1.07971
1.31807
1.94085
2.4328
2.58677
2.58476
2.57918
2.5749
2.57922
2.58839
2.60428
2.61283
2.6269
2.63675
2.65715
2.67652
2.71584
2.75012
2.86809
2.71211
1.00317
0.996853
0.990578
0.983366
0.97797
0.973294
0.969707
0.966469
0.963914
0.961491
0.959588
0.957704
0.95625
0.954951
0.954803
0.955267
0.95635
0.96376
0.972463
1.00959
1.07911
1.30074
1.89179
2.41776
2.5845
2.58249
2.57749
2.57303
2.57794
2.58703
2.60282
2.61125
2.62538
2.63508
2.655
2.6741
2.71324
2.74714
2.86592
2.71433
1.00318
0.996844
0.990587
0.983356
0.977979
0.973284
0.969716
0.966458
0.963924
0.96148
0.959598
0.957692
0.95626
0.954925
0.954775
0.95515
0.95627
0.963345
0.971954
1.00724
1.07552
1.28787
1.8577
2.39755
2.57867
2.57699
2.57333
2.56932
2.57576
2.58482
2.60063
2.6089
2.62292
2.63245
2.65192
2.67061
2.70944
2.74309
2.8631
2.71658
1.00317
0.996914
0.990517
0.983434
0.977904
0.973364
0.969638
0.966541
0.963843
0.961565
0.959516
0.957777
0.956177
0.955003
0.954663
0.955172
0.956112
0.961778
0.970398
1.0056
1.06858
1.27951
1.85026
2.38448
2.57352
2.57154
2.56711
2.56403
2.57149
2.58144
2.5978
2.6065
2.62053
2.62997
2.64909
2.6673
2.70553
2.73882
2.8603
2.71697
1.00317
0.996918
0.990511
0.983434
0.977901
0.973363
0.969637
0.966539
0.963843
0.961561
0.959517
0.957772
0.956179
0.954984
0.954631
0.955111
0.95601
0.961479
0.969812
1.00397
1.06442
1.2678
1.8135
2.37479
2.56763
2.56561
2.5605
2.5577
2.56565
2.57615
2.59334
2.60256
2.61721
2.62676
2.6459
2.66382
2.70153
2.73437
2.85682
2.71659
1.00316
0.996918
0.990512
0.983437
0.977899
0.973368
0.969633
0.966545
0.963839
0.961568
0.959513
0.957778
0.956173
0.954975
0.954578
0.95502
0.95589
0.961126
0.969246
1.0016
1.06007
1.25673
1.77013
2.3594
2.55925
2.55769
2.55301
2.55043
2.55901
2.56959
2.58747
2.59731
2.6125
2.62247
2.64177
2.65964
2.69745
2.73032
2.85386
2.71465
1.00317
0.996918
0.990511
0.983434
0.977901
0.973364
0.969637
0.96654
0.963843
0.961561
0.959519
0.957769
0.956179
0.954952
0.954545
0.954971
0.955792
0.960847
0.968569
1.00002
1.05546
1.24436
1.72764
2.33619
2.54901
2.54805
2.54488
2.54227
2.5518
2.56237
2.58053
2.59097
2.60653
2.61684
2.63618
2.65393
2.69196
2.72511
2.85108
2.71412
1.00316
0.996918
0.99051
0.983434
0.9779
0.973363
0.969636
0.96654
0.963843
0.961561
0.959519
0.957767
0.956179
0.954935
0.9545
0.954897
0.955673
0.960534
0.967957
0.998268
1.05145
1.23253
1.68957
2.31497
2.54047
2.54031
2.53779
2.53484
2.54496
2.55532
2.57353
2.5844
2.60024
2.61095
2.63011
2.64759
2.68565
2.71906
2.84721
2.71479
1.00316
0.996915
0.990513
0.983431
0.977903
0.973361
0.969639
0.966537
0.963846
0.961558
0.959522
0.957762
0.956182
0.954915
0.954451
0.954813
0.955562
0.960183
0.967321
0.996274
1.04704
1.22263
1.64229
2.30127
2.53478
2.53654
2.53297
2.52964
2.5388
2.54971
2.56712
2.57795
2.59358
2.60453
2.62336
2.64054
2.67852
2.71209
2.84324
2.71623
1.00317
0.996907
0.990522
0.983426
0.977911
0.973356
0.969646
0.966533
0.963853
0.961554
0.959529
0.957756
0.956188
0.954893
0.954399
0.954695
0.955463
0.959778
0.966702
0.994076
1.04305
1.21297
1.59584
2.28669
2.52926
2.5352
2.5293
2.52646
2.53306
2.54555
2.56216
2.5728
2.58788
2.59871
2.61696
2.63355
2.67087
2.7042
2.83665
2.71892
1.00317
0.996908
0.990524
0.983425
0.977914
0.973354
0.969651
0.96653
0.963859
0.961549
0.959536
0.957749
0.956196
0.95487
0.954356
0.954627
0.955348
0.959502
0.966016
0.99269
1.03837
1.20354
1.55297
2.26693
2.52293
2.53402
2.52679
2.52381
2.52917
2.54096
2.55738
2.56784
2.58262
2.59316
2.61105
2.62712
2.66332
2.69651
2.83082
2.72192
1.00317
0.996904
0.99053
0.983423
0.97792
0.973353
0.969656
0.966528
0.963865
0.961546
0.959542
0.957744
0.956202
0.954851
0.954307
0.954541
0.955239
0.959168
0.9653
0.991033
1.03323
1.19533
1.52019
2.24223
2.51611
2.53306
2.52588
2.5223
2.52703
2.53755
2.55308
2.56314
2.57751
2.5878
2.60522
2.6206
2.65558
2.68774
2.82138
2.72379
1.00318
0.996905
0.990533
0.983428
0.977921
0.973358
0.969657
0.966533
0.963864
0.961551
0.959542
0.957747
0.956201
0.954839
0.954247
0.954469
0.955097
0.958817
0.964708
0.989211
1.02968
1.18591
1.48598
2.21603
2.50566
2.53162
2.52584
2.52176
2.52597
2.53542
2.54977
2.55894
2.57253
2.58222
2.59963
2.61459
2.64858
2.68017
2.81396
2.72429
1.00319
0.996879
0.990564
0.983401
0.977954
0.973329
0.969691
0.966503
0.9639
0.961519
0.959579
0.957713
0.956238
0.954792
0.954239
0.954359
0.95503
0.959556
0.96466
0.990004
1.02882
1.16931
1.47767
2.21489
2.49548
2.52984
2.52511
2.52245
2.52608
2.53438
2.54798
2.5558
2.56847
2.57668
2.59326
2.60755
2.64048
2.67068
2.8022
2.72325
1.00319
0.996881
0.990566
0.983405
0.977955
0.973334
0.969691
0.966508
0.9639
0.961523
0.959579
0.957716
0.956237
0.954783
0.954189
0.954299
0.954957
0.959105
0.9641
0.988607
1.02559
1.15902
1.45905
2.19527
2.49006
2.53073
2.52508
2.52358
2.52652
2.53413
2.54692
2.55384
2.56537
2.57257
2.58758
2.60095
2.63283
2.66301
2.79337
2.72143
1.00319
0.996885
0.990563
0.98341
0.977952
0.973338
0.969688
0.966512
0.963898
0.961527
0.959577
0.957719
0.956233
0.95477
0.95413
0.954214
0.954827
0.958749
0.963435
0.986821
1.02277
1.1473
1.4459
2.18298
2.47923
2.5307
2.52431
2.52412
2.52636
2.53357
2.54585
2.55238
2.56279
2.56899
2.58196
2.59365
2.62236
2.65103
2.77976
2.71742
1.00318
0.996925
0.99052
0.983451
0.977907
0.973381
0.969643
0.966556
0.963851
0.961572
0.95953
0.957763
0.956184
0.954802
0.95401
0.954195
0.954618
0.957608
0.962324
0.983039
1.01584
1.14661
1.40409
2.13003
2.47265
2.5299
2.52533
2.52352
2.52538
2.53162
2.54369
2.55076
2.56046
2.56606
2.57784
2.58832
2.61448
2.64178
2.76782
2.70941
1.00318
0.996934
0.99051
0.98346
0.977897
0.97339
0.969633
0.966565
0.963842
0.961581
0.95952
0.957772
0.956172
0.954802
0.953949
0.954105
0.954499
0.957315
0.961736
0.981563
1.01251
1.13676
1.38047
2.06653
2.45432
2.53142
2.52787
2.52415
2.52554
2.53031
2.53997
2.54749
2.55772
2.56253
2.57221
2.58087
2.60287
2.62781
2.75135
2.70051
1.00318
0.996918
0.990525
0.983441
0.977914
0.97337
0.969652
0.966544
0.963861
0.961559
0.959541
0.957749
0.956192
0.954771
0.953938
0.953982
0.954441
0.957831
0.961678
0.982403
1.01242
1.12138
1.37419
2.07187
2.43475
2.53022
2.52929
2.52588
2.52649
2.52995
2.53748
2.54285
2.55396
2.55954
2.56893
2.57596
2.5951
2.6152
2.73518
2.68233
1.00318
0.99693
0.990512
0.983452
0.977901
0.973382
0.969638
0.966556
0.963848
0.961572
0.959527
0.957761
0.956175
0.954778
0.953879
0.953909
0.954329
0.957473
0.961135
0.981004
1.0094
1.11287
1.3512
2.05287
2.41952
2.52861
2.52905
2.52691
2.52686
2.53004
2.53596
2.53957
2.54797
2.55325
2.56171
2.5679
2.58337
2.59831
2.71313
2.66494
1.00316
0.996945
0.990483
0.983466
0.977872
0.973398
0.969608
0.966574
0.963816
0.961591
0.959494
0.957783
0.956138
0.954795
0.953788
0.953836
0.954329
0.955798
0.963273
0.97397
1.01146
1.0935
1.33141
1.97199
2.40744
2.5301
2.52973
2.52804
2.52635
2.52992
2.53508
2.53811
2.54484
2.54957
2.55677
2.56158
2.57598
2.58108
2.68864
2.62966
1.00316
0.996941
0.990487
0.983462
0.977875
0.973395
0.969611
0.966571
0.963819
0.961589
0.959496
0.957781
0.956137
0.95479
0.953747
0.953715
0.954433
0.955419
0.96351
0.972051
1.01087
1.08246
1.30613
1.89895
2.38109
2.52924
2.52888
2.52772
2.52428
2.52775
2.53272
2.53495
2.53989
2.54282
2.54806
2.55047
2.56348
2.56324
2.65369
2.59175
1.00316
0.996941
0.990488
0.983464
0.977875
0.973396
0.96961
0.966573
0.963818
0.961591
0.959494
0.957784
0.956132
0.954791
0.953703
0.953622
0.954227
0.955175
0.96268
0.970675
1.00707
1.07308
1.28058
1.83825
2.33944
2.5231
2.52675
2.52749
2.52465
2.52739
2.53247
2.53451
2.5387
2.54026
2.54345
2.5434
2.55056
2.54026
2.61888
2.51127
1.02214
1.02696
1.024
1.02128
1.01827
1.01495
1.01204
1.00945
1.0071
1.00509
1.00321
1.00162
1.00012
0.999303
0.999237
1.00006
1.00169
1.01004
1.02408
1.07638
1.18022
1.50354
2.30561
2.63747
2.69489
2.68236
2.67059
2.66593
2.66731
2.67439
2.68882
2.69759
2.71062
2.71966
2.73873
2.75309
2.78407
2.80301
2.87463
2.71356
1.02215
1.02695
1.02405
1.02123
1.01832
1.0149
1.01209
1.0094
1.00715
1.00504
1.00327
1.00157
1.00017
0.999242
0.999336
0.999758
1.00278
1.00775
1.02937
1.06662
1.19356
1.49014
2.26878
2.63278
2.69098
2.67871
2.6676
2.66308
2.66497
2.67214
2.68679
2.69569
2.70899
2.71812
2.73734
2.75159
2.78222
2.80018
2.87176
2.71847
1.02215
1.02695
1.02405
1.02123
1.01832
1.0149
1.01209
1.0094
1.00715
1.00504
1.00327
1.00157
1.00017
0.999242
0.999334
0.999757
1.00278
1.00775
1.02933
1.06655
1.19331
1.48952
2.26834
2.63287
2.69138
2.6793
2.66839
2.66411
2.66624
2.67347
2.68823
2.69701
2.71034
2.71947
2.73862
2.75269
2.7833
2.79996
2.87148
2.72141
1.02214
1.02696
1.024
1.02128
1.01827
1.01495
1.01204
1.00945
1.0071
1.00509
1.00322
1.00162
1.00012
0.999298
0.999239
1.00007
1.00169
1.01002
1.02394
1.07611
1.17919
1.50141
2.30207
2.63614
2.69488
2.68297
2.67196
2.66812
2.6703
2.67763
2.6924
2.701
2.71424
2.7233
2.74231
2.75619
2.7873
2.80177
2.87295
2.72112
1.02214
1.02696
1.02403
1.02125
1.0183
1.01492
1.01207
1.00942
1.00713
1.00506
1.00324
1.00159
1.00015
0.999268
0.999304
0.999706
1.00349
1.00806
1.03092
1.06833
1.1883
1.49994
2.28313
2.63145
2.69094
2.67986
2.66947
2.66637
2.66921
2.67716
2.69219
2.70065
2.71409
2.72322
2.74231
2.75606
2.78731
2.80025
2.8725
2.72206
1.02214
1.02696
1.024
1.02128
1.01828
1.01494
1.01204
1.00945
1.00711
1.00509
1.00322
1.00162
1.00012
0.99929
0.999228
1.00006
1.00167
1.00998
1.02379
1.07585
1.17805
1.49661
2.29789
2.63514
2.69527
2.68374
2.67369
2.6702
2.67306
2.68105
2.69567
2.70367
2.71683
2.72576
2.74449
2.75774
2.78883
2.79977
2.87249
2.72187
1.02215
1.02695
1.02407
1.02121
1.01834
1.01488
1.01211
1.00938
1.00717
1.00502
1.00328
1.00155
1.00019
0.99921
0.999324
0.999717
1.00256
1.00769
1.02859
1.06663
1.19145
1.47875
2.25437
2.62623
2.68913
2.67896
2.67028
2.66783
2.67177
2.68074
2.69591
2.70391
2.71756
2.72663
2.74563
2.75864
2.78957
2.79852
2.87193
2.72218
1.02215
1.02695
1.02406
1.02122
1.01833
1.01489
1.01209
1.0094
1.00716
1.00504
1.00327
1.00156
1.00018
0.999226
0.999283
0.999961
1.00181
1.01083
1.02518
1.07281
1.18289
1.48138
2.27119
2.631
2.69479
2.6835
2.67423
2.67153
2.67518
2.68401