/*--------------------------------*- C++ -*----------------------------------*\
  =========                 |
  \\      /  F ield         | OpenFOAM: The Open Source CFD Toolbox
   \\    /   O peration     | Website:  https://openfoam.org
    \\  /    A nd           | Version:  6.0
     \\/     M anipulation  |
\*---------------------------------------------------------------------------*/
FoamFile
{
    version     2.0;
    format      ascii;
    class       volScalarField;
    location    "4";
    object      T;
}
// * * * * * * * * * * * * * * * * * * * * * * * * * * * * * * * * * * * * * //

dimensions      [0 0 0 1 0 0 0];

internalField   nonuniform List<scalar> 
24000
(
0.884388
0.84092
0.818646
0.802127
0.790614
0.785842
0.785331
0.786782
0.79365
0.815236
0.87514
1.03793
1.57804
2.14495
2.22359
2.23905
2.27451
2.33344
2.56253
2.4019
0.884386
0.840923
0.818643
0.802128
0.790608
0.785833
0.785319
0.786766
0.793625
0.815186
0.875041
1.03778
1.57885
2.1463
2.22594
2.2419
2.27777
2.33833
2.56883
2.41325
0.88438
0.840929
0.818636
0.802132
0.790595
0.785816
0.785291
0.78673
0.793564
0.815062
0.874776
1.03726
1.57889
2.1469
2.2278
2.24414
2.28069
2.34208
2.57376
2.4231
0.88437
0.840939
0.818625
0.802138
0.790572
0.785788
0.785246
0.786672
0.793464
0.814853
0.874314
1.03629
1.57793
2.14685
2.22943
2.2461
2.28318
2.34538
2.57764
2.43145
0.884356
0.840954
0.818609
0.802148
0.79054
0.78575
0.785183
0.78659
0.79332
0.814551
0.87363
1.03478
1.57571
2.14607
2.23082
2.24778
2.28527
2.34836
2.58055
2.43855
0.884336
0.840974
0.818588
0.802162
0.790498
0.7857
0.7851
0.786481
0.793129
0.814145
0.8727
1.03265
1.57201
2.14451
2.23221
2.2494
2.28709
2.3511
2.58255
2.44445
0.884312
0.841
0.81856
0.802179
0.790446
0.785638
0.784996
0.786343
0.792885
0.813624
0.871498
1.02983
1.5667
2.14208
2.23346
2.25084
2.28865
2.35354
2.58361
2.44913
0.884282
0.841032
0.818527
0.802201
0.790381
0.785564
0.784869
0.786174
0.792585
0.812979
0.869998
1.02624
1.55938
2.13866
2.23455
2.25209
2.28992
2.3556
2.5838
2.45247
0.884246
0.84107
0.818486
0.802228
0.790304
0.785476
0.784717
0.785972
0.792224
0.812198
0.868173
1.02179
1.54972
2.13394
2.2354
2.25304
2.2908
2.35695
2.58296
2.45474
0.884203
0.841116
0.818439
0.802261
0.790214
0.785374
0.784539
0.785734
0.791797
0.811273
0.865998
1.01639
1.53724
2.12763
2.23582
2.25337
2.291
2.35682
2.58049
2.45575
0.884154
0.84117
0.818384
0.802301
0.790111
0.785259
0.784335
0.78546
0.791302
0.810195
0.863458
1.00998
1.52299
2.11983
2.23601
2.25349
2.29047
2.35621
2.57733
2.45585
0.884097
0.841233
0.818321
0.802347
0.789995
0.785135
0.784101
0.785144
0.790733
0.808955
0.860531
1.00228
1.50603
2.10925
2.23525
2.25268
2.28872
2.35411
2.57336
2.4555
0.884007
0.841341
0.81822
0.80244
0.789846
0.785044
0.783755
0.784767
0.7901
0.807559
0.85716
0.993096
1.48486
2.09546
2.23287
2.25017
2.28526
2.34941
2.56771
2.45422
0.883881
0.841488
0.818085
0.80257
0.789674
0.784969
0.783323
0.784323
0.789385
0.80599
0.853299
0.982196
1.45489
2.07716
2.22783
2.24508
2.27979
2.34195
2.5571
2.4504
0.883725
0.841673
0.817922
0.802739
0.789481
0.784905
0.782826
0.783813
0.788582
0.804253
0.849016
0.969712
1.4195
2.05297
2.21737
2.23473
2.27086
2.33249
2.54906
2.44377
0.88362
0.841772
0.817837
0.802807
0.789394
0.784697
0.782363
0.783289
0.787719
0.802373
0.844416
0.955799
1.38486
2.02789
2.20539
2.22173
2.25436
2.31256
2.53214
2.43504
0.883733
0.841641
0.817943
0.802669
0.78945
0.784282
0.781929
0.782741
0.786784
0.800372
0.839108
0.943947
1.27231
1.98856
2.18492
2.2033
2.24024
2.29492
2.50784
2.41931
0.883842
0.841512
0.818045
0.802537
0.789506
0.783865
0.781491
0.78219
0.785861
0.798424
0.834315
0.931949
1.21572
1.94467
2.17128
2.18816
2.22175
2.27576
2.48736
2.39587
0.883949
0.841378
0.818148
0.8024
0.789561
0.783445
0.781049
0.781635
0.784935
0.796493
0.829742
0.920326
1.17794
1.89669
2.16107
2.18501
2.20687
2.25078
2.45396
2.36804
0.884081
0.841211
0.818279
0.802232
0.789641
0.783009
0.780597
0.78107
0.783998
0.794543
0.825123
0.908528
1.1412
1.83655
2.15016
2.184
2.2078
2.23695
2.4152
2.29931
0.99727
0.99023
0.981596
0.97211
0.965509
0.964862
0.965937
0.971519
0.988068
1.03079
1.13819
1.41469
2.06762
2.462
2.51088
2.52639
2.56321
2.66119
2.8105
2.7318
0.99727
0.990229
0.981595
0.972107
0.965503
0.964849
0.96592
0.971489
0.988007
1.03065
1.13788
1.41395
2.06772
2.46266
2.51191
2.52771
2.56468
2.66259
2.80965
2.7378
0.997271
0.990226
0.981594
0.972101
0.965491
0.964822
0.965884
0.971427
0.98788
1.03037
1.13719
1.41216
2.06653
2.46279
2.5127
2.52874
2.56587
2.66313
2.8079
2.7427
0.997272
0.990222
0.981591
0.972092
0.965472
0.964781
0.965828
0.971331
0.98768
1.02992
1.1361
1.40925
2.06394
2.46233
2.51334
2.52958
2.56687
2.66294
2.80613
2.74684
0.997274
0.990216
0.981587
0.972078
0.965446
0.964725
0.96575
0.971197
0.9874
1.02929
1.13456
1.40509
2.05991
2.46113
2.51369
2.5301
2.56753
2.66195
2.80414
2.75
0.997276
0.990208
0.981583
0.972062
0.965411
0.964651
0.96565
0.971021
0.987034
1.02847
1.13252
1.39959
2.0541
2.45938
2.51462
2.53095
2.56833
2.66025
2.80194
2.75282
0.997278
0.990198
0.981577
0.972041
0.965368
0.964558
0.965523
0.9708
0.986571
1.02742
1.12994
1.39259
2.04652
2.45689
2.51564
2.53192
2.56921
2.65827
2.79952
2.75475
0.997281
0.990187
0.98157
0.972016
0.965317
0.964446
0.965369
0.970531
0.986005
1.02614
1.12676
1.38399
2.03689
2.45371
2.51661
2.53279
2.56985
2.65573
2.79689
2.75602
0.997285
0.990174
0.981562
0.971986
0.965256
0.964313
0.965186
0.970209
0.985329
1.02461
1.12295
1.37369
2.02505
2.44956
2.51751
2.53358
2.57034
2.65204
2.79345
2.75647
0.997289
0.990159
0.981554
0.971953
0.965186
0.964159
0.964974
0.969834
0.984536
1.02281
1.11848
1.36162
2.01095
2.44388
2.51797
2.5339
2.57011
2.64837
2.78895
2.7562
0.997294
0.990142
0.981544
0.971916
0.965107
0.963985
0.964731
0.969404
0.983625
1.02074
1.11335
1.34788
1.99393
2.43637
2.51784
2.53371
2.56939
2.64225
2.78411
2.75514
0.9973
0.990125
0.981535
0.971877
0.965021
0.963789
0.964457
0.968917
0.982598
1.0184
1.10784
1.333
1.97408
2.42723
2.51708
2.53298
2.5677
2.63625
2.77731
2.75273
0.997301
0.990108
0.981523
0.971836
0.964929
0.963553
0.964159
0.968389
0.981476
1.01583
1.1019
1.31696
1.94891
2.4162
2.51569
2.53131
2.56501
2.63005
2.7695
2.74886
0.997298
0.990091
0.981511
0.971801
0.964825
0.963262
0.963814
0.967806
0.980266
1.01308
1.09551
1.30023
1.91783
2.40219
2.51252
2.52708
2.55948
2.62171
2.75934
2.74101
0.997286
0.990082
0.981494
0.971785
0.964702
0.962912
0.963412
0.967162
0.978972
1.01018
1.08872
1.28284
1.88268
2.38458
2.50848
2.52223
2.55261
2.61148
2.74866
2.73177
0.997278
0.990074
0.981479
0.971781
0.964569
0.962523
0.96297
0.966466
0.977598
1.00713
1.08159
1.2647
1.84342
2.36494
2.50153
2.51452
2.54293
2.59857
2.73245
2.71255
0.997304
0.990082
0.981488
0.971803
0.964449
0.962129
0.96252
0.96575
0.97618
1.00402
1.07424
1.24795
1.79851
2.34068
2.49113
2.50393
2.5313
2.58408
2.71504
2.69514
0.997347
0.99007
0.981519
0.971807
0.964351
0.961705
0.962076
0.965029
0.974747
1.00087
1.0669
1.23044
1.75457
2.30861
2.47526
2.48817
2.51507
2.56095
2.6903
2.65947
0.997407
0.990043
0.981566
0.971797
0.964267
0.961271
0.96164
0.964306
0.973296
0.997662
1.05941
1.21211
1.70318
2.27025
2.45336
2.47042
2.49838
2.53772
2.65435
2.62326
0.997471
0.990012
0.981617
0.971781
0.964193
0.960844
0.961215
0.963587
0.971839
0.99443
1.05187
1.19232
1.66042
2.2163
2.42588
2.44495
2.47538
2.5058
2.60784
2.54735
1.02466
1.03098
1.02719
1.02364
1.02141
1.02151
1.02373
1.03276
1.05741
1.11885
1.26835
1.73254
2.39954
2.61282
2.63159
2.63719
2.65769
2.74323
2.81256
2.77404
1.02466
1.03098
1.02718
1.02364
1.0214
1.0215
1.02371
1.03272
1.05733
1.11866
1.26794
1.73071
2.3984
2.61338
2.63281
2.63917
2.66036
2.74564
2.81179
2.77723
1.02466
1.03098
1.02717
1.02364
1.02139
1.02149
1.02368
1.03265
1.05717
1.11826
1.26709
1.72675
2.39594
2.61349
2.63374
2.64088
2.66289
2.74716
2.81061
2.78008
1.02466
1.03098
1.02716
1.02363
1.02136
1.02146
1.02362
1.03253
1.0569
1.11763
1.26573
1.72049
2.39195
2.61293
2.63431
2.64229
2.66531
2.74692
2.80881
2.78248
1.02465
1.03098
1.02715
1.02362
1.02132
1.02143
1.02355
1.03238
1.05654
1.11676
1.2638
1.71168
2.38618
2.61163
2.63445
2.6433
2.6674
2.7455
2.80692
2.78445
1.02465
1.03097
1.02712
1.0236
1.02128
1.02138
1.02346
1.03217
1.05606
1.1156
1.26126
1.69997
2.37832
2.60978
2.6338
2.64358
2.66887
2.74308
2.80445
2.7856
1.02465
1.03097
1.0271
1.02359
1.02122
1.02133
1.02334
1.0319
1.05546
1.11414
1.258
1.6853
2.36799
2.60722
2.63275
2.64341
2.66974
2.73943
2.80177
2.78605
1.02464
1.03097
1.02706
1.02357
1.02115
1.02126
1.0232
1.03158
1.05472
1.11234
1.25399
1.66696
2.35532
2.60399
2.63166
2.64288
2.66983
2.73465
2.79767
2.78563
1.02464
1.03097
1.02703
1.02355
1.02107
1.02118
1.02304
1.0312
1.05383
1.11017
1.24918
1.64444
2.33989
2.59973
2.63034
2.64228
2.66951
2.7297
2.79359
2.78441
1.02463
1.03097
1.02698
1.02352
1.02098
1.02109
1.02284
1.03075
1.05278
1.10761
1.24354
1.61737
2.32133
2.59352
2.62836
2.64093
2.66832
2.72294
2.78865
2.78181
1.02463
1.03097
1.02693
1.0235
1.02087
1.02098
1.02262
1.03023
1.05158
1.10468
1.23693
1.58867
2.29698
2.58445
2.62618
2.6392
2.66791
2.71625
2.78307
2.77901
1.02462
1.03097
1.02688
1.02347
1.02076
1.02087
1.02237
1.02965
1.05021
1.10146
1.22863
1.56749
2.27051
2.57454
2.62202
2.63536
2.66701
2.70835
2.77655
2.77368
1.02461
1.03097
1.02682
1.02345
1.02063
1.02074
1.02208
1.029
1.04871
1.09794
1.21966
1.54332
2.23838
2.56381
2.61812
2.63018
2.66441
2.69858
2.76783
2.7684
1.02461
1.03097
1.02675
1.02347
1.02048
1.02057
1.02174
1.02828
1.0471
1.09423
1.21056
1.51714
2.20703
2.55092
2.61435
2.62534
2.65959
2.68975
2.75789
2.75703
1.02459
1.03098
1.02666
1.02356
1.02028
1.02031
1.02132
1.02748
1.04539
1.09033
1.20117
1.49044
2.17625
2.53729
2.6099
2.61942
2.65209
2.6797
2.74385
2.74684
1.02458
1.03099
1.0266
1.02363
1.02009
1.01999
1.02084
1.02661
1.04357
1.08623
1.19133
1.46279
2.13975
2.52334
2.60559
2.61291
2.64266
2.66789
2.73042
2.72547
1.02458
1.031
1.0266
1.02367
1.01996
1.01964
1.02033
1.0257
1.04168
1.08198
1.18113
1.43436
2.09956
2.50612
2.59965
2.60501
2.63078
2.65314
2.70925
2.70636
1.02458
1.03101
1.02661
1.02371
1.01983
1.01927
1.0198
1.02476
1.03973
1.07762
1.17071
1.40583
2.05539
2.48536
2.59084
2.5959
2.61798
2.63695
2.68947
2.66809
1.02459
1.03101
1.02662
1.02375
1.0197
1.01891
1.01928
1.02382
1.03777
1.07323
1.16026
1.37819
2.00643
2.46077
2.57824
2.58383
2.60253
2.61595
2.65742
2.62813
1.0246
1.03102
1.02664
1.02378
1.01959
1.01858
1.01877
1.02289
1.03582
1.06888
1.14996
1.35187
1.94896
2.43248
2.56348
2.57023
2.58735
2.59368
2.62471
2.55604
1.02125
1.03462
1.04068
1.04326
1.04488
1.04699
1.05302
1.06782
1.10272
1.18667
1.38912
2.067
2.6279
2.75091
2.73978
2.73982
2.74546
2.78466
2.81433
2.76709
1.02125
1.03462
1.04068
1.04325
1.04487
1.04699
1.053
1.06778
1.10263
1.18645
1.38861
2.06523
2.62713
2.75035
2.74046
2.74098
2.74818
2.78596
2.81368
2.76928
1.02125
1.03462
1.04068
1.04325
1.04486
1.04697
1.05297
1.06769
1.10244
1.18599
1.38751
2.06164
2.62531
2.74895
2.74077
2.74145
2.75038
2.78513
2.81206
2.77114
1.02125
1.03462
1.04067
1.04324
1.04485
1.04695
1.05291
1.06756
1.10213
1.18527
1.38575
2.05596
2.6223
2.74667
2.74081
2.74131
2.75211
2.78526
2.80931
2.77221
1.02125
1.03462
1.04066
1.04323
1.04483
1.04692
1.05283
1.06738
1.10171
1.18425
1.38325
2.0479
2.61782
2.74332
2.74056
2.74083
2.75354
2.78524
2.80653
2.77286
1.02124
1.03462
1.04065
1.04321
1.04481
1.04688
1.05273
1.06714
1.10116
1.18291
1.37992
2.037
2.61177
2.73991
2.73958
2.73994
2.75393
2.78429
2.80345
2.7731
1.02124
1.03462
1.04064
1.0432
1.04478
1.04683
1.05261
1.06684
1.10045
1.18119
1.37563
2.02319
2.60365
2.73617
2.73739
2.73901
2.75482
2.78216
2.80039
2.77271
1.02124
1.03462
1.04063
1.04318
1.04474
1.04678
1.05245
1.06647
1.09958
1.17908
1.37023
2.00702
2.59213
2.7311
2.73424
2.73709
2.75656
2.77829
2.79609
2.77155
1.02123
1.03462
1.04061
1.04316
1.0447
1.04671
1.05227
1.06602
1.09852
1.17652
1.36365
1.9874
2.57808
2.72401
2.7297
2.73423
2.75702
2.77417
2.79109
2.76963
1.02123
1.03462
1.04059
1.04313
1.04466
1.04664
1.05205
1.0655
1.09728
1.17348
1.35581
1.96437
2.56023
2.71662
2.72424
2.73041
2.75622
2.76948
2.78572
2.76562
1.02122
1.03462
1.04057
1.0431
1.04461
1.04655
1.0518
1.06489
1.09584
1.16997
1.34671
1.93742
2.53839
2.70872
2.7178
2.72532
2.75383
2.76409
2.77739
2.76149
1.02122
1.03462
1.04054
1.04307
1.04456
1.04646
1.05153
1.0642
1.09421
1.166
1.33645
1.90686
2.51092
2.69887
2.71098
2.72013
2.74821
2.75846
2.77085
2.75274
1.02121
1.03462
1.04052
1.04305
1.0445
1.04635
1.05121
1.06344
1.0924
1.16165
1.32513
1.87468
2.47864
2.68447
2.7022
2.71324
2.74329
2.75021
2.75928
2.74601
1.02121
1.03462
1.04051
1.04303
1.04445
1.04621
1.05085
1.0626
1.09046
1.15699
1.31379
1.83411
2.45418
2.6697
2.69389
2.70562
2.73244
2.74201
2.75108
2.7319
1.02121
1.03462
1.0405
1.04303
1.04438
1.04601
1.05044
1.06169
1.0884
1.15199
1.30258
1.78181
2.43304
2.65699
2.68556
2.69823
2.72654
2.72972
2.7355
2.72113
1.0212
1.03462
1.0405
1.04303
1.04431
1.04578
1.04998
1.0607
1.08618
1.14666
1.29049
1.72822
2.40205
2.64665
2.67755
2.68663
2.71439
2.71857
2.72413
2.69771
1.02121
1.03462
1.04051
1.04304
1.04424
1.04553
1.04949
1.05965
1.08383
1.141
1.27783
1.66931
2.36571
2.63149
2.67171
2.67881
2.7038
2.70203
2.70429
2.67877
1.02121
1.03462
1.04052
1.04306
1.04417
1.04528
1.04899
1.05856
1.08138
1.13511
1.2645
1.61211
2.32296
2.61129
2.6597
2.66548
2.69046
2.6878
2.68641
2.64038
1.02121
1.03462
1.04053
1.04307
1.0441
1.04505
1.04849
1.05745
1.07887
1.12923
1.25027
1.56933
2.27394
2.58994
2.65107
2.65426
2.67465
2.66687
2.65971
2.60099
1.02121
1.03463
1.04053
1.04309
1.04405
1.04485
1.04801
1.05635
1.07638
1.12345
1.23646
1.5294
2.22987
2.56438
2.63633
2.64134
2.65838
2.64921
2.63117
2.53315
1.0103
1.02128
1.03014
1.03695
1.04179
1.04698
1.0567
1.07724
1.12283
1.23023
1.49327
2.37237
2.73439
2.78788
2.77774
2.77181
2.7854
2.7958
2.79725
2.77809
1.0103
1.02128
1.03014
1.03695
1.04179
1.04697
1.05668
1.0772
1.12274
1.23001
1.49274
2.37095
2.73399
2.78767
2.77788
2.77251
2.78835
2.79521
2.79592
2.77952
1.0103
1.02128
1.03014
1.03695
1.04178
1.04696
1.05665
1.07711
1.12254
1.22955
1.4916
2.36787
2.73294
2.78709
2.77776
2.77241
2.79182
2.7937
2.7944
2.78091
1.0103
1.02128
1.03013
1.03694
1.04177
1.04694
1.05659
1.07698
1.12222
1.22881
1.48976
2.36265
2.73123
2.78608
2.777
2.77215
2.79262
2.79226
2.79194
2.78151
1.0103
1.02128
1.03013
1.03693
1.04176
1.04691
1.05651
1.07679
1.12178
1.22776
1.48713
2.3549
2.72873
2.785
2.77575
2.77162
2.79206
2.79094
2.78851
2.78123
1.0103
1.02128
1.03013
1.03692
1.04174
1.04688
1.05641
1.07654
1.1212
1.22636
1.4836
2.34422
2.72542
2.78353
2.7744
2.77048
2.79073
2.78895
2.78524
2.78013
1.0103
1.02128
1.03012
1.03691
1.04172
1.04684
1.05629
1.07623
1.12046
1.22456
1.47903
2.3304
2.72099
2.78183
2.77236
2.76919
2.78791
2.78613
2.78041
2.7782
1.0103
1.02128
1.03011
1.03689
1.0417
1.04679
1.05613
1.07584
1.11954
1.22233
1.47329
2.31331
2.71497
2.77957
2.77012
2.76761
2.78477
2.78278
2.77657
2.77452
1.0103
1.02127
1.0301
1.03688
1.04167
1.04673
1.05594
1.07537
1.11842
1.21961
1.46628
2.29227
2.70745
2.77674
2.76723
2.76497
2.78088
2.77869
2.7692
2.77142
1.0103
1.02127
1.03009
1.03686
1.04164
1.04667
1.05572
1.07481
1.11709
1.21637
1.45791
2.26678
2.69843
2.77315
2.76421
2.7622
2.77645
2.7731
2.76439
2.7649
1.0103
1.02127
1.03008
1.03684
1.04161
1.04659
1.05547
1.07417
1.11555
1.21259
1.44812
2.23636
2.68769
2.76875
2.75958
2.75835
2.77127
2.76848
2.75417
2.76032
1.0103
1.02127
1.03008
1.03682
1.04158
1.04651
1.05518
1.07343
1.11378
1.20827
1.43693
2.20119
2.67504
2.76322
2.75573
2.75364
2.76492
2.76018
2.74778
2.75041
1.0103
1.02127
1.03007
1.0368
1.04155
1.04642
1.05486
1.07261
1.11181
1.20343
1.42455
2.15998
2.66084
2.7561
2.74886
2.74851
2.75813
2.75436
2.73418
2.74308
1.0103
1.02126
1.03006
1.03679
1.04152
1.04631
1.05449
1.07169
1.10964
1.19815
1.41104
2.11657
2.64329
2.74775
2.74252
2.742
2.75059
2.74333
2.726
2.7275
1.0103
1.02126
1.03006
1.03678
1.04149
1.04617
1.05408
1.07068
1.10727
1.19241
1.39627
2.07065
2.62238
2.73647
2.73358
2.73535
2.74173
2.73544
2.70901
2.71437
1.01029
1.02126
1.03006
1.03679
1.04146
1.04602
1.05362
1.06957
1.10468
1.18614
1.38025
2.01862
2.59667
2.72388
2.72403
2.72701
2.73321
2.72068
2.69803
2.69125
1.01029
1.02126
1.03006
1.03679
1.04144
1.04585
1.05312
1.06838
1.10188
1.17937
1.36262
1.96492
2.56212
2.70743
2.71258
2.71728
2.7224
2.70962
2.67738
2.66679
1.0103
1.02126
1.03006
1.03679
1.04141
1.04568
1.05261
1.06711
1.0989
1.17214
1.3441
1.90444
2.5204
2.69068
2.69843
2.70784
2.71169
2.69052
2.66173
2.63155
1.0103
1.02126
1.03007
1.0368
1.04139
1.04552
1.05208
1.0658
1.0958
1.16472
1.32458
1.85271
2.46789
2.67552
2.68385
2.69647
2.69834
2.67568
2.63502
2.58728
1.0103
1.02126
1.03007
1.03679
1.04138
1.04537
1.05155
1.06446
1.09266
1.15718
1.30651
1.78485
2.42991
2.65027
2.67222
2.68585
2.686
2.65331
2.61218
2.52484
1.00367
1.00927
1.01628
1.02288
1.02858
1.03484
1.047
1.07226
1.12749
1.25698
1.58276
2.61669
2.77123
2.78265
2.78133
2.77644
2.79466
2.78939
2.80831
2.77741
1.00367
1.00927
1.01628
1.02288
1.02858
1.03483
1.04698
1.07222
1.12741
1.25678
1.58228
2.61584
2.77085
2.7823
2.78104
2.77637
2.79471
2.78876
2.80707
2.77853
1.00367
1.00927
1.01628
1.02288
1.02858
1.03482
1.04695
1.07214
1.12722
1.25636
1.58121
2.61368
2.77
2.7815
2.78022
2.77582
2.7944
2.78763
2.80467
2.77825
1.00367
1.00927
1.01628
1.02288
1.02857
1.03481
1.0469
1.07202
1.12693
1.25568
1.57948
2.60963
2.76876
2.7803
2.77892
2.77463
2.79317
2.78555
2.80171
2.77742
1.00367
1.00927
1.01628
1.02287
1.02856
1.03479
1.04683
1.07184
1.12651
1.2547
1.57699
2.6031
2.76726
2.77907
2.7773
2.7734
2.79082
2.78302
2.79621
2.77577
1.00367
1.00927
1.01628
1.02287
1.02855
1.03476
1.04674
1.07161
1.12596
1.25338
1.57358
2.59424
2.76519
2.7776
2.77551
2.77157
2.78827
2.77937
2.79252
2.77291
1.00367
1.00927
1.01627
1.02286
1.02854
1.03472
1.04662
1.07131
1.12525
1.25167
1.56913
2.58282
2.7625
2.77599
2.77319
2.76947
2.78534
2.77571
2.78526
2.77046
1.00367
1.00927
1.01627
1.02285
1.02853
1.03468
1.04647
1.07094
1.12436
1.24954
1.56349
2.56883
2.75885
2.77402
2.77041
2.76716
2.78141
2.7699
2.7808
2.7651
1.00367
1.00926
1.01627
1.02284
1.02851
1.03463
1.04629
1.07049
1.12328
1.24694
1.55659
2.55101
2.75469
2.7718
2.76749
2.76417
2.77696
2.76546
2.77153
2.76108
1.00367
1.00926
1.01627
1.02283
1.02849
1.03457
1.04609
1.06995
1.12199
1.24381
1.54827
2.52983
2.74971
2.76915
2.76394
2.76081
2.77181
2.7575
2.76592
2.75245
1.00367
1.00926
1.01626
1.02282
1.02847
1.03451
1.04584
1.06932
1.12048
1.24014
1.53845
2.50474
2.74391
2.76615
2.76048
2.75703
2.76641
2.75276
2.75417
2.7461
1.00367
1.00926
1.01626
1.02281
1.02845
1.03443
1.04556
1.0686
1.11873
1.23588
1.52705
2.47558
2.73689
2.76242
2.75588
2.75221
2.75959
2.74307
2.74718
2.7342
1.00368
1.00926
1.01626
1.0228
1.02843
1.03435
1.04525
1.06777
1.11674
1.23104
1.5141
2.44155
2.72882
2.75827
2.75162
2.74709
2.75266
2.73721
2.73266
2.72348
1.00368
1.00925
1.01626
1.02279
1.02841
1.03425
1.04489
1.06684
1.11451
1.2256
1.4996
2.40256
2.71895
2.75338
2.74552
2.74133
2.74434
2.72529
2.72355
2.70761
1.00368
1.00925
1.01625
1.02278
1.0284
1.03414
1.04448
1.0658
1.11202
1.21952
1.48349
2.35736
2.70703
2.74874
2.74081
2.73473
2.73618
2.71709
2.70635
2.69054
1.00368
1.00925
1.01625
1.02277
1.02838
1.03402
1.04403
1.06465
1.10925
1.21275
1.46558
2.30561
2.69193
2.74297
2.73447
2.72801
2.72628
2.70277
2.6938
2.66787
1.00367
1.00925
1.01625
1.02277
1.02837
1.03389
1.04354
1.06337
1.10619
1.20528
1.44569
2.2483
2.6717
2.73766
2.72911
2.7202
2.71748
2.69101
2.67391
2.64158
1.00367
1.00925
1.01624
1.02276
1.02835
1.03375
1.04302
1.062
1.10287
1.19711
1.42427
2.18043
2.65058
2.72807
2.72187
2.71252
2.70601
2.67393
2.65723
2.60648
1.00367
1.00925
1.01624
1.02276
1.02834
1.03362
1.04247
1.06053
1.09932
1.18839
1.40143
2.10898
2.62206
2.71825
2.71396
2.70424
2.69644
2.6585
2.63195
2.56284
1.00366
1.00926
1.01624
1.02275
1.02833
1.0335
1.0419
1.059
1.09561
1.17923
1.378
2.02772
2.59198
2.6978
2.7054
2.69717
2.68355
2.63962
2.60852
2.50082
1.00081
1.00305
1.00638
1.01113
1.01618
1.02289
1.03634
1.06468
1.12748
1.27593
1.66196
2.78009
2.78127
2.76305
2.76977
2.76821
2.78887
2.79415
2.80812
2.776
1.00081
1.00305
1.00638
1.01113
1.01618
1.02288
1.03632
1.06464
1.1274
1.27576
1.66155
2.77943
2.78086
2.76277
2.76906
2.7676
2.78844
2.79345
2.80692
2.77604
1.00081
1.00304
1.00638
1.01113
1.01618
1.02287
1.0363
1.06457
1.12724
1.27539
1.66063
2.77768
2.78016
2.76189
2.76742
2.76656
2.78746
2.79261
2.80428
2.77514
1.00081
1.00304
1.00638
1.01113
1.01617
1.02286
1.03625
1.06446
1.12699
1.2748
1.6591
2.77443
2.77928
2.76049
2.765
2.76421
2.78527
2.79049
2.80147
2.77236
1.00081
1.00304
1.00638
1.01112
1.01617
1.02283
1.03619
1.06431
1.12662
1.27394
1.65686
2.76916
2.77855
2.75838
2.76225
2.76159
2.78261
2.78815
2.7954
2.76973
1.00081
1.00304
1.00639
1.01112
1.01616
1.0228
1.0361
1.0641
1.12613
1.27277
1.65372
2.76249
2.77704
2.75584
2.75914
2.75812
2.77699
2.78407
2.79166
2.76378
1.00082
1.00303
1.00639
1.01111
1.01615
1.02276
1.03599
1.06383
1.12549
1.27125
1.64958
2.75404
2.77505
2.75294
2.75582
2.75443
2.77351
2.77998
2.78368
2.75975
1.00082
1.00303
1.00639
1.0111
1.01614
1.02272
1.03586
1.0635
1.12469
1.26935
1.64432
2.74351
2.77294
2.75012
2.75163
2.75078
2.76679
2.77443
2.77892
2.75086
1.00082
1.00302
1.00639
1.01109
1.01613
1.02267
1.03569
1.06309
1.12372
1.267
1.63788
2.72998
2.77119
2.74697
2.74797
2.74603
2.7624
2.7686
2.7688
2.7453
1.00082
1.00302
1.00639
1.01109
1.01611
1.0226
1.0355
1.0626
1.12255
1.26417
1.6301
2.71345
2.76886
2.74564
2.7424
2.74116
2.75328
2.76171
2.76289
2.73334
1.00082
1.00302
1.00638
1.01108
1.01609
1.02253
1.03527
1.06203
1.12116
1.26081
1.62089
2.69343
2.76621
2.74381
2.7392
2.73564
2.74812
2.75402
2.75035
2.72589
1.00082
1.00302
1.00638
1.01107
1.01606
1.02245
1.035
1.06135
1.11954
1.25688
1.61002
2.67116
2.76194
2.74384
2.73252
2.73047
2.73782
2.74601
2.74315
2.7108
1.00082
1.00301
1.00638
1.01106
1.01604
1.02235
1.0347
1.06058
1.11766
1.25234
1.59739
2.64595
2.75612
2.74405
2.72912
2.72353
2.73207
2.73574
2.728
2.70009
1.00082
1.00301
1.00637
1.01105
1.01601
1.02225
1.03434
1.05969
1.11552
1.24713
1.58286
2.61685
2.74858
2.74324
2.72296
2.71815
2.72051
2.72609
2.71941
2.6816
1.00081
1.00301
1.00637
1.01104
1.01598
1.02212
1.03394
1.05867
1.11308
1.24118
1.56639
2.58204
2.73983
2.74068
2.7209
2.71056
2.71418
2.71219
2.70173
2.66636
1.00081
1.00301
1.00636
1.01103
1.01595
1.02199
1.03349
1.05753
1.11032
1.23445
1.54775
2.54163
2.72847
2.73676
2.71734
2.70554
2.70138
2.70032
2.69085
2.64235
1.00081
1.00301
1.00635
1.01102
1.01591
1.02183
1.03299
1.05625
1.10722
1.22686
1.52674
2.49491
2.71484
2.73209
2.7149
2.69797
2.69455
2.68284
2.66981
2.61936
1.00081
1.00301
1.00634
1.011
1.01587
1.02167
1.03244
1.05482
1.10376
1.21835
1.50344
2.43834
2.69991
2.72664
2.71156
2.69287
2.68043
2.66933
2.6536
2.58409
1.0008
1.00301
1.00634
1.01098
1.01584
1.02152
1.03184
1.05326
1.09995
1.209
1.47768
2.37534
2.67997
2.7182
2.70821
2.6865
2.67339
2.64795
2.62672
2.54362
1.0008
1.00301
1.00633
1.01096
1.01581
1.02136
1.0312
1.05156
1.09582
1.19877
1.45019
2.29285
2.66097
2.70925
2.70366
2.68267
2.65904
2.63258
2.6027
2.4813
1.00018
1.00068
1.00186
1.00433
1.00812
1.01476
1.02864
1.05876
1.12694
1.28989
1.73044
2.84946
2.77736
2.77977
2.77341
2.75996
2.77632
2.79242
2.80306
2.76348
1.00018
1.00068
1.00186
1.00433
1.00812
1.01476
1.02863
1.05873
1.12688
1.28975
1.73008
2.8489
2.77688
2.77981
2.77217
2.75838
2.77379
2.79182
2.80207
2.76251
1.00018
1.00068
1.00186
1.00433
1.00811
1.01475
1.02861
1.05867
1.12674
1.28945
1.72926
2.84765
2.77605
2.77953
2.77013
2.75697
2.77178
2.79083
2.79977
2.76126
1.00018
1.00068
1.00186
1.00432
1.00811
1.01473
1.02857
1.05858
1.12652
1.28894
1.72784
2.8456
2.77499
2.77867
2.76728
2.7546
2.76769
2.78821
2.79722
2.75787
1.00018
1.00068
1.00186
1.00432
1.0081
1.01471
1.02851
1.05844
1.1262
1.28821
1.72573
2.84253
2.77438
2.77639
2.76468
2.75214
2.76428
2.78457
2.79123
2.75531
1.00018
1.00068
1.00186
1.00432
1.00809
1.01468
1.02843
1.05826
1.12577
1.28721
1.7228
2.8384
2.77397
2.77274
2.76179
2.74987
2.76006
2.78054
2.78752
2.75002
1.00018
1.00068
1.00186
1.00431
1.00808
1.01464
1.02833
1.05802
1.12521
1.2859
1.71893
2.83299
2.7744
2.76847
2.75741
2.74662
2.75527
2.774
2.77942
2.74609
1.00018
1.00067
1.00185
1.0043
1.00806
1.01459
1.02821
1.05772
1.12451
1.28425
1.714
2.82641
2.77466
2.7642
2.75276
2.74335
2.75029
2.76843
2.7747
2.73878
1.00018
1.00067
1.00185
1.00429
1.00804
1.01453
1.02805
1.05736
1.12364
1.2822
1.7079
2.8184
2.77548
2.75576
2.74901
2.73898
2.74468
2.75943
2.76492
2.73363
1.00018
1.00067
1.00185
1.00428
1.00801
1.01446
1.02787
1.05692
1.12259
1.27972
1.70052
2.80896
2.77601
2.74758
2.74485
2.73537
2.73889
2.75315
2.75865
2.72429
1.00018
1.00067
1.00184
1.00427
1.00798
1.01437
1.02765
1.05639
1.12134
1.27675
1.69172
2.79779
2.77679
2.73533
2.73805
2.73035
2.73214
2.74152
2.74773
2.71697
1.00018
1.00067
1.00184
1.00426
1.00795
1.01427
1.02739
1.05577
1.11986
1.27324
1.68133
2.78518
2.77432
2.72781
2.7318
2.72599
2.72564
2.73424
2.73931
2.70569
1.00018
1.00066
1.00183
1.00424
1.0079
1.01415
1.02708
1.05504
1.11813
1.26913
1.66914
2.77115
2.76861
2.71734
2.72572
2.71902
2.71767
2.72054
2.72642
2.69553
1.00018
1.00066
1.00182
1.00422
1.00786
1.01401
1.02673
1.0542
1.11613
1.26432
1.65511
2.75224
2.7614
2.71
2.71923
2.71435
2.70979
2.71145
2.71546
2.68118
1.00017
1.00066
1.00182
1.0042
1.0078
1.01385
1.02633
1.05323
1.11381
1.25875
1.63907
2.7283
2.75294
2.70355
2.71139
2.70666
2.7007
2.69586
2.69972
2.66685
1.00017
1.00065
1.00181
1.00417
1.00773
1.01366
1.02586
1.05211
1.11115
1.25231
1.62074
2.69924
2.74473
2.6974
2.70578
2.70175
2.69224
2.68412
2.68471
2.64707
1.00017
1.00065
1.00179
1.00414
1.00766
1.01345
1.02533
1.05084
1.10811
1.24492
1.5999
2.66358
2.73545
2.69428
2.69786
2.69371
2.68238
2.6665
2.66464
2.62507
1.00017
1.00064
1.00178
1.0041
1.00758
1.01322
1.02473
1.04939
1.10463
1.23646
1.57616
2.62074
2.72351
2.69503
2.69238
2.68809
2.67355
2.65199
2.64375
2.59328
1.00017
1.00064
1.00177
1.00407
1.0075
1.01301
1.02409
1.04779
1.10076
1.22697
1.54913
2.57102
2.70682
2.69692
2.68408
2.67899
2.66273
2.63246
2.61709
2.55204
1.00017
1.00063
1.00175
1.00401
1.00745
1.01275
1.02336
1.04599
1.09642
1.21621
1.51914
2.49841
2.692
2.69663
2.68341
2.67363
2.65402
2.61506
2.58746
2.49112
1.00006
1.00021
1.00067
1.0019
1.0047
1.01092
1.02472
1.05571
1.12738
1.30048
1.77969
2.89087
2.76118
2.79436
2.77691
2.75728
2.76563
2.77949
2.78062
2.76277
1.00006
1.00021
1.00067
1.0019
1.0047
1.01091
1.0247
1.05568
1.12732
1.30035
1.77946
2.89029
2.76102
2.79454
2.77538
2.75551
2.76335
2.77689
2.77793
2.76173
1.00006
1.00021
1.00067
1.0019
1.00469
1.0109
1.02468
1.05563
1.1272
1.30008
1.77886
2.88912
2.76063
2.79434
2.77248
2.75364
2.76217
2.77338
2.7758
2.76063
1.00005
1.0002
1.00066
1.00189
1.00469
1.01089
1.02464
1.05555
1.12701
1.29964
1.7778
2.88731
2.76007
2.79385
2.76864
2.75087
2.75943
2.76992
2.77228
2.7584
1.00005
1.0002
1.00066
1.00189
1.00468
1.01086
1.02459
1.05543
1.12674
1.29899
1.77621
2.88475
2.75955
2.79295
2.76494
2.74719
2.75533
2.76253
2.76668
2.75615
1.00005
1.0002
1.00066
1.00188
1.00466
1.01083
1.02452
1.05526
1.12636
1.29809
1.774
2.88138
2.75896
2.79175
2.7604
2.7442
2.75226
2.75838
2.76338
2.75161
1.00005
1.0002
1.00066
1.00188
1.00465
1.01079
1.02443
1.05505
1.12587
1.29694
1.77058
2.87721
2.7584
2.78981
2.75573
2.73967
2.74723
2.74993
2.75716
2.74844
1.00005
1.0002
1.00065
1.00187
1.00462
1.01074
1.02431
1.05479
1.12525
1.2955
1.76597
2.87207
2.75737
2.78786
2.75087
2.73605
2.7432
2.74495
2.75156
2.74177
1.00005
1.0002
1.00065
1.00186
1.0046
1.01068
1.02417
1.05446
1.12448
1.29371
1.76029
2.86574
2.7569
2.78384
2.74556
2.73044
2.73636
2.73599
2.74465
2.73741
1.00005
1.0002
1.00064
1.00184
1.00456
1.0106
1.02399
1.05406
1.12354
1.29152
1.75343
2.85808
2.75692
2.77832
2.74245
2.72662
2.73184
2.73058
2.73664
2.72809
1.00005
1.00019
1.00064
1.00183
1.00452
1.01051
1.02378
1.05358
1.12242
1.28889
1.74526
2.84906
2.75688
2.77096
2.7372
2.72085
2.72366
2.72122
2.72948
2.72233
1.00005
1.00019
1.00063
1.00181
1.00448
1.0104
1.02353
1.05301
1.12109
1.28576
1.73562
2.83863
2.75618
2.76322
2.73418
2.71656
2.71843
2.71423
2.71935
2.71013
1.00005
1.00019
1.00062
1.00179
1.00442
1.01027
1.02324
1.05234
1.11951
1.28204
1.72433
2.82647
2.75543
2.75294
2.72799
2.71062
2.70913
2.70453
2.71084
2.70258
1.00005
1.00018
1.00061
1.00176
1.00436
1.01012
1.02289
1.05155
1.11766
1.27766
1.71115
2.81252
2.75402
2.74529
2.72284
2.70617
2.70374
2.6952
2.6977
2.68675
1.00005
1.00018
1.00059
1.00173
1.00428
1.00994
1.02249
1.05064
1.11551
1.27254
1.69591
2.79618
2.75288
2.73442
2.71278
2.70027
2.69364
2.68443
2.68644
2.67609
1.00004
1.00017
1.00058
1.00169
1.00419
1.00974
1.02203
1.04957
1.113
1.26657
1.67834
2.7773
2.75045
2.72424
2.70677
2.69546
2.68823
2.6719
2.66867
2.65443
1.00004
1.00016
1.00056
1.00165
1.00409
1.0095
1.02149
1.04833
1.1101
1.25962
1.65801
2.75539
2.74526
2.71119
2.69931
2.6889
2.67704
2.66014
2.65325
2.63532
1.00004
1.00016
1.00054
1.0016
1.00398
1.00924
1.02087
1.04691
1.10672
1.25152
1.63441
2.72854
2.73454
2.69997
2.69766
2.68427
2.67108
2.64357
2.63023
2.60124
1.00004
1.00015
1.00052
1.00155
1.00385
1.00894
1.02016
1.04525
1.10281
1.24207
1.60714
2.69023
2.71984
2.68777
2.69242
2.67866
2.65894
2.6296
2.60773
2.56192
1.00003
1.00014
1.00049
1.00149
1.00371
1.0086
1.01936
1.04337
1.09832
1.23107
1.57556
2.63311
2.70541
2.69109
2.68995
2.6756
2.65186
2.60923
2.57616
2.49732
1.00005
1.00018
1.00053
1.00147
1.00388
1.0097
1.02327
1.05459
1.12805
1.30728
1.79833
2.90697
2.75124
2.79381
2.77903
2.75874
2.76097
2.76286
2.76776
2.76185
1.00005
1.00018
1.00053
1.00147
1.00388
1.0097
1.02326
1.05457
1.128
1.30716
1.79811
2.90632
2.75123
2.79429
2.77738
2.75663
2.75898
2.75994
2.76444
2.75922
1.00005
1.00018
1.00053
1.00147
1.00387
1.00969
1.02324
1.05452
1.12789
1.30692
1.79754
2.90514
2.75108
2.79437
2.77404
2.75407
2.75738
2.75852
2.76379
2.75786
1.00005
1.00018
1.00053
1.00146
1.00387
1.00967