/*--------------------------------*- C++ -*----------------------------------*\
  =========                 |
  \\      /  F ield         | OpenFOAM: The Open Source CFD Toolbox
   \\    /   O peration     | Website:  https://openfoam.org
    \\  /    A nd           | Version:  6.0
     \\/     M anipulation  |
\*---------------------------------------------------------------------------*/
FoamFile
{
    version     2.0;
    format      ascii;
    class       volVectorField;
    location    "4";
    object      U;
}
// * * * * * * * * * * * * * * * * * * * * * * * * * * * * * * * * * * * * * //

dimensions      [0 1 -1 0 0 0 0];

internalField   nonuniform List<vector> 
24000
(
(3.08435 -1.89726e-07 -0.139496)
(3.1101 3.94962e-07 -0.150071)
(3.12401 -1.2815e-08 -0.152846)
(3.13423 2.38466e-06 -0.152637)
(3.14086 2.01608e-06 -0.152594)
(3.1432 1.36588e-05 -0.153419)
(3.14272 2.63585e-05 -0.153724)
(3.14057 4.23412e-05 -0.154941)
(3.13371 6.69798e-05 -0.158214)
(3.11468 0.000112117 -0.16624)
(3.06368 0.000201752 -0.185473)
(2.91695 0.000378553 -0.232555)
(2.45487 0.000720821 -0.368121)
(1.69129 0.0028814 -0.48419)
(1.58114 0.00222163 -0.475397)
(1.55075 0.00179832 -0.477195)
(1.48803 0.00132968 -0.484087)
(1.34097 0.000699942 -0.497009)
(0.972311 -0.000317351 -0.550538)
(0.73027 -0.000678843 -0.492827)
(3.08435 -6.46013e-07 -0.139495)
(3.1101 1.24112e-06 -0.150072)
(3.12401 -1.97634e-08 -0.152846)
(3.13423 7.46291e-06 -0.152637)
(3.14086 6.39166e-06 -0.152592)
(3.1432 4.27053e-05 -0.153417)
(3.14273 8.24873e-05 -0.15372)
(3.14059 0.00013306 -0.154934)
(3.13374 0.000212189 -0.158201)
(3.11472 0.000359908 -0.166213)
(3.06376 0.000661702 -0.185414)
(2.91707 0.00129104 -0.232432)
(2.45506 0.00270417 -0.368081)
(1.69 0.0100176 -0.48398)
(1.57798 0.00846102 -0.475393)
(1.5476 0.0072724 -0.477506)
(1.48465 0.00596783 -0.484545)
(1.33683 0.00428416 -0.497857)
(0.961041 0.00190728 -0.551439)
(0.717697 0.000460199 -0.494995)
(3.08435 -1.23503e-06 -0.139494)
(3.1101 2.16613e-06 -0.150073)
(3.12401 -3.73664e-08 -0.152844)
(3.13423 1.3067e-05 -0.152637)
(3.14087 1.12354e-05 -0.152588)
(3.14322 7.47626e-05 -0.153413)
(3.14275 0.00014463 -0.153714)
(3.14061 0.000234307 -0.154923)
(3.13379 0.00037671 -0.158176)
(3.11482 0.000647595 -0.166158)
(3.06397 0.0012161 -0.185292)
(2.91748 0.00246104 -0.232165)
(2.45603 0.00555597 -0.367716)
(1.68968 0.0195425 -0.483471)
(1.57556 0.0175228 -0.475051)
(1.54517 0.0155983 -0.477432)
(1.48201 0.0135299 -0.484675)
(1.33357 0.0110161 -0.498197)
(0.952256 0.00814516 -0.551582)
(0.708179 0.00517675 -0.496522)
(3.08435 -1.92402e-06 -0.139492)
(3.11011 3.13012e-06 -0.150075)
(3.12401 -1.33804e-07 -0.152841)
(3.13423 1.9088e-05 -0.152638)
(3.14088 1.62833e-05 -0.152582)
(3.14325 0.000109442 -0.153408)
(3.14278 0.000212145 -0.153704)
(3.14066 0.000344795 -0.154905)
(3.13387 0.000557581 -0.158138)
(3.11499 0.000967568 -0.166074)
(3.06433 0.00184304 -0.185102)
(2.91828 0.00381815 -0.231736)
(2.45813 0.00898954 -0.367005)
(1.69024 0.03069 -0.482731)
(1.57352 0.0282804 -0.474474)
(1.54309 0.0256691 -0.47707)
(1.47974 0.0229282 -0.484491)
(1.33082 0.0197607 -0.498201)
(0.945772 0.0169806 -0.551097)
(0.700897 0.0127167 -0.49744)
(3.08435 -2.70305e-06 -0.13949)
(3.11011 4.12514e-06 -0.150078)
(3.12401 -3.46199e-07 -0.152837)
(3.13423 2.54946e-05 -0.152639)
(3.1409 2.14486e-05 -0.152573)
(3.14328 0.000146823 -0.153401)
(3.14283 0.000285281 -0.15369)
(3.14073 0.000464923 -0.154881)
(3.13399 0.000755205 -0.158086)
(3.11523 0.00131961 -0.165958)
(3.06487 0.00253899 -0.184836)
(2.91954 0.00534331 -0.231125)
(2.4616 0.0129179 -0.3659)
(1.6918 0.0432946 -0.481769)
(1.57185 0.0404744 -0.473685)
(1.54136 0.0373462 -0.476461)
(1.47788 0.0341284 -0.484036)
(1.32863 0.0305625 -0.497923)
(0.941948 0.0283878 -0.550063)
(0.69593 0.0235224 -0.497825)
(3.08435 -3.57714e-06 -0.139487)
(3.11011 5.13803e-06 -0.150082)
(3.12402 -7.15023e-07 -0.152831)
(3.13424 3.22301e-05 -0.152641)
(3.14092 2.66041e-05 -0.152561)
(3.14333 0.000186833 -0.153392)
(3.14289 0.000364019 -0.153673)
(3.14081 0.000594714 -0.15485)
(3.13414 0.00096963 -0.158019)
(3.11556 0.00170369 -0.165806)
(3.06561 0.00330348 -0.184487)
(2.92132 0.00703426 -0.230313)
(2.46668 0.0173203 -0.364353)
(1.69441 0.0573591 -0.480606)
(1.5703 0.0541227 -0.472727)
(1.53984 0.050523 -0.475682)
(1.4763 0.0469261 -0.483361)
(1.32694 0.0431788 -0.497397)
(0.940819 0.0420308 -0.548542)
(0.693243 0.0375122 -0.497707)
(3.08435 -4.55697e-06 -0.139483)
(3.11011 6.12916e-06 -0.150088)
(3.12402 -1.30837e-06 -0.152825)
(3.13424 3.91662e-05 -0.152643)
(3.14095 3.1519e-05 -0.152547)
(3.1434 0.000229135 -0.153381)
(3.14296 0.000447916 -0.153651)
(3.14092 0.000733624 -0.154811)
(3.13434 0.00120023 -0.157935)
(3.11599 0.00211924 -0.165615)
(3.06657 0.00413643 -0.184046)
(2.9237 0.00889387 -0.229275)
(2.4736 0.022221 -0.362328)
(1.69814 0.0730116 -0.47923)
(1.56896 0.0693321 -0.471591)
(1.53853 0.065136 -0.474717)
(1.47502 0.0611424 -0.482487)
(1.32584 0.0574096 -0.496625)
(0.942282 0.0576879 -0.546569)
(0.692674 0.0545259 -0.497113)
(3.08435 -5.66231e-06 -0.139478)
(3.11011 7.02426e-06 -0.150095)
(3.12403 -2.23799e-06 -0.152816)
(3.13425 4.60578e-05 -0.152646)
(3.14098 3.58277e-05 -0.152529)
(3.14347 0.00027305 -0.153368)
(3.14305 0.000535975 -0.153625)
(3.14105 0.000880333 -0.154764)
(3.13459 0.0014454 -0.157832)
(3.11651 0.00256452 -0.165381)
(3.06778 0.00503696 -0.183505)
(2.92675 0.0109266 -0.227992)
(2.4827 0.027663 -0.359739)
(1.70323 0.0904629 -0.477629)
(1.56794 0.0860614 -0.470282)
(1.53757 0.081045 -0.473571)
(1.47419 0.0766161 -0.481417)
(1.32554 0.0731717 -0.495595)
(0.946365 0.0753502 -0.544175)
(0.694146 0.0744501 -0.496037)
(3.08435 -6.92617e-06 -0.139472)
(3.11011 7.68008e-06 -0.150103)
(3.12403 -3.66297e-06 -0.152806)
(3.13426 5.24829e-05 -0.152649)
(3.14102 3.90357e-05 -0.152508)
(3.14356 0.000317521 -0.153354)
(3.14316 0.00062655 -0.153595)
(3.14121 0.00103261 -0.154708)
(3.13488 0.00170241 -0.15771)
(3.11714 0.0030366 -0.165101)
(3.06925 0.00600263 -0.182855)
(2.93056 0.013134 -0.22644)
(2.49432 0.0336659 -0.356518)
(1.71003 0.109912 -0.475747)
(1.56745 0.10428 -0.468784)
(1.53715 0.098134 -0.472223)
(1.4741 0.0932433 -0.48013)
(1.32644 0.0904725 -0.494237)
(0.953538 0.0952754 -0.541362)
(0.697922 0.0978727 -0.494564)
(3.08435 -8.45325e-06 -0.139465)
(3.11011 7.8081e-06 -0.150113)
(3.12404 -5.77969e-06 -0.152795)
(3.13426 5.774e-05 -0.152654)
(3.14107 4.07195e-05 -0.152484)
(3.14366 0.000360978 -0.153337)
(3.14328 0.000716871 -0.153559)
(3.1414 0.00118709 -0.154643)
(3.13523 0.00196842 -0.157567)
(3.1179 0.00353379 -0.164773)
(3.07102 0.00703096 -0.182092)
(2.93521 0.015501 -0.224604)
(2.50893 0.0399837 -0.352572)
(1.71903 0.131346 -0.473545)
(1.56774 0.123879 -0.46705)
(1.53759 0.116227 -0.470615)
(1.47513 0.110897 -0.478567)
(1.32903 0.10925 -0.492402)
(0.964203 0.117294 -0.538035)
(0.703998 0.124939 -0.492728)
(3.08435 -1.05768e-05 -0.139456)
(3.11011 7.06617e-06 -0.150124)
(3.12405 -8.64474e-06 -0.152782)
(3.13427 6.07866e-05 -0.152659)
(3.14112 4.14042e-05 -0.152456)
(3.14378 0.000400085 -0.153318)
(3.14343 0.000803052 -0.153519)
(3.14162 0.00134277 -0.154569)
(3.13564 0.00224716 -0.157403)
(3.11878 0.0040645 -0.164397)
(3.0731 0.00813808 -0.181216)
(2.94071 0.0180962 -0.222479)
(2.52395 0.0471332 -0.347899)
(1.72963 0.155073 -0.471058)
(1.56816 0.145035 -0.465106)
(1.53848 0.135525 -0.468842)
(1.47713 0.129741 -0.476705)
(1.3331 0.129681 -0.490352)
(0.974283 0.141862 -0.534208)
(0.708771 0.155775 -0.490621)
(3.08435 -1.49561e-05 -0.139447)
(3.11012 5.97487e-06 -0.150138)
(3.12406 -1.19426e-05 -0.152767)
(3.13428 6.06187e-05 -0.152666)
(3.14118 4.49621e-05 -0.152425)
(3.14391 0.000390112 -0.153298)
(3.14359 0.000910296 -0.153473)
(3.14187 0.00155911 -0.154486)
(3.13611 0.00260034 -0.157219)
(3.1198 0.00467268 -0.163975)
(3.07554 0.00935048 -0.180236)
(2.94727 0.0209653 -0.220051)
(2.54149 0.0555309 -0.342468)
(1.74296 0.181263 -0.468054)
(1.56973 0.167883 -0.462767)
(1.54024 0.156469 -0.466662)
(1.48048 0.150233 -0.474432)
(1.33909 0.152045 -0.487869)
(0.9829 0.16955 -0.529871)
(0.711562 0.190909 -0.488291)
(3.08435 -2.13226e-05 -0.139433)
(3.11012 4.922e-06 -0.15016)
(3.12407 -1.55433e-05 -0.152745)
(3.13429 6.08842e-05 -0.152681)
(3.14123 4.20601e-05 -0.152391)
(3.14407 0.000350819 -0.153268)
(3.14381 0.00103047 -0.153433)
(3.14216 0.00182005 -0.154395)
(3.13664 0.0030176 -0.157009)
(3.12097 0.00535835 -0.163496)
(3.07838 0.0106808 -0.179138)
(2.95513 0.0241469 -0.217304)
(2.56302 0.0655258 -0.336105)
(1.76052 0.209478 -0.464441)
(1.57398 0.192339 -0.459865)
(1.54472 0.179277 -0.463923)
(1.48669 0.172692 -0.471595)
(1.34839 0.176551 -0.484655)
(0.99413 0.200228 -0.525037)
(0.715154 0.231064 -0.485497)
(3.08435 -2.63723e-05 -0.139413)
(3.11012 4.26907e-06 -0.15019)
(3.12408 -1.90633e-05 -0.152718)
(3.13431 6.48408e-05 -0.152705)
(3.14127 2.14833e-05 -0.152357)
(3.14424 0.000336526 -0.153225)
(3.14407 0.00113493 -0.153385)
(3.14251 0.0020524 -0.154294)
(3.13725 0.00341399 -0.156781)
(3.1223 0.00603797 -0.162982)
(3.08169 0.0120186 -0.177953)
(2.96467 0.0273707 -0.214285)
(2.59207 0.0756066 -0.328342)
(1.7834 0.238004 -0.45996)
(1.58249 0.218154 -0.456165)
(1.55341 0.204421 -0.460406)
(1.49708 0.197967 -0.468046)
(1.36247 0.204025 -0.480593)
(1.01069 0.234078 -0.51916)
(0.722511 0.276921 -0.481702)
(3.08435 -2.26519e-05 -0.139389)
(3.11013 2.50421e-06 -0.150228)
(3.1241 -2.21499e-05 -0.152687)
(3.13432 6.54782e-05 -0.152737)
(3.14132 -1.16379e-05 -0.152324)
(3.14444 0.000340458 -0.153166)
(3.14437 0.00122277 -0.153324)
(3.1429 0.00223863 -0.15418)
(3.13794 0.00374002 -0.15654)
(3.12378 0.00661733 -0.162442)
(3.08541 0.0131803 -0.176703)
(2.97566 0.0301441 -0.211027)
(2.62717 0.0837299 -0.319804)
(1.81199 0.263272 -0.454606)
(1.5966 0.243903 -0.451271)
(1.56774 0.231356 -0.455669)
(1.51284 0.226634 -0.463532)
(1.38223 0.235984 -0.475791)
(1.03417 0.273102 -0.513692)
(0.736379 0.329106 -0.47664)
(3.08435 -2.26716e-06 -0.139373)
(3.11013 -3.05407e-06 -0.150249)
(3.12411 -2.50881e-05 -0.152671)
(3.13432 5.6482e-05 -0.152755)
(3.14137 -4.65916e-05 -0.152308)
(3.14465 0.000354437 -0.153078)
(3.1447 0.00128504 -0.153266)
(3.14333 0.00236357 -0.154061)
(3.13868 0.00396814 -0.156286)
(3.12538 0.00705583 -0.161875)
(3.08946 0.0141344 -0.1754)
(2.98766 0.0326464 -0.207535)
(2.66269 0.0946595 -0.311358)
(1.84398 0.284959 -0.449619)
(1.61449 0.271564 -0.446056)
(1.58605 0.260907 -0.450226)
(1.5334 0.258744 -0.457311)
(1.40781 0.272528 -0.468648)
(1.06542 0.318601 -0.506189)
(0.757455 0.389632 -0.470543)
(3.08435 1.61077e-05 -0.139391)
(3.11012 -5.75764e-06 -0.150224)
(3.12411 -2.44471e-05 -0.152689)
(3.13431 4.77666e-05 -0.152737)
(3.14142 -6.77082e-05 -0.152318)
(3.14488 0.000362043 -0.152953)
(3.14503 0.0013172 -0.153212)
(3.14377 0.00242599 -0.153936)
(3.13946 0.00407443 -0.156018)
(3.1271 0.00722907 -0.161292)
(3.09388 0.014394 -0.173991)
(3.00227 0.0329038 -0.204617)
(2.72157 0.0936302 -0.289563)
(1.89451 0.282325 -0.442616)
(1.64398 0.294918 -0.439011)
(1.6121 0.290875 -0.44352)
(1.56007 0.294252 -0.451279)
(1.43936 0.314082 -0.46164)
(1.10524 0.371139 -0.496923)
(0.786341 0.461905 -0.462468)
(3.08435 2.12518e-05 -0.139408)
(3.11011 -2.89421e-06 -0.150199)
(3.12412 -1.79111e-05 -0.152706)
(3.1343 4.5666e-05 -0.15272)
(3.14146 -6.80347e-05 -0.152328)
(3.1451 0.000362421 -0.152828)
(3.14537 0.0013257 -0.153157)
(3.14422 0.00244327 -0.153811)
(3.14022 0.0040963 -0.15575)
(3.12874 0.00721571 -0.160708)
(3.09793 0.0141385 -0.172647)
(3.01418 0.0313503 -0.201533)
(2.76663 0.0819116 -0.277937)
(1.96191 0.261366 -0.435222)
(1.6585 0.318863 -0.436958)
(1.62787 0.324716 -0.437798)
(1.58277 0.33589 -0.444594)
(1.47153 0.363759 -0.454247)
(1.15216 0.434848 -0.487801)
(0.823913 0.552536 -0.451909)
(3.08435 2.43054e-05 -0.139426)
(3.1101 -3.22274e-07 -0.150173)
(3.12413 -7.97878e-06 -0.152725)
(3.13429 4.03769e-05 -0.152701)
(3.14151 -4.75811e-05 -0.152339)
(3.14533 0.000347299 -0.152702)
(3.1457 0.00132557 -0.153103)
(3.14466 0.00246141 -0.153685)
(3.14099 0.00413726 -0.15548)
(3.13035 0.00727408 -0.160118)
(3.10178 0.0141506 -0.171306)
(3.02458 0.0308952 -0.198346)
(2.79751 0.0771441 -0.268622)
(2.04312 0.248867 -0.425261)
(1.66101 0.350606 -0.437746)
(1.62508 0.365514 -0.434851)
(1.58972 0.384373 -0.438764)
(1.49661 0.421954 -0.445861)
(1.20346 0.514074 -0.476088)
(0.869647 0.67416 -0.439488)
(3.08435 2.15218e-05 -0.139447)
(3.1101 3.38566e-06 -0.15014)
(3.12413 5.6998e-06 -0.152748)
(3.13428 2.613e-05 -0.152675)
(3.14156 5.23673e-06 -0.152356)
(3.14554 0.000237866 -0.152571)
(3.14605 0.00134678 -0.153055)
(3.14512 0.00260778 -0.153561)
(3.14177 0.00439621 -0.155208)
(3.13199 0.00764121 -0.159523)
(3.10565 0.0146635 -0.169944)
(3.03489 0.0316381 -0.19506)
(2.82702 0.0772607 -0.259209)
(2.13091 0.244522 -0.411877)
(1.66333 0.395423 -0.437628)
(1.61373 0.424254 -0.432195)
(1.58047 0.454249 -0.435333)
(1.50439 0.504065 -0.438709)
(1.24493 0.62315 -0.462156)
(0.921252 0.850328 -0.419069)
(3.00702 9.30848e-08 -0.0225407)
(3.01726 3.58277e-07 -0.033654)
(3.02711 8.85645e-07 -0.0380338)
(3.03683 4.09208e-06 -0.0412316)
(3.04273 6.29878e-06 -0.0432167)
(3.0444 1.99383e-05 -0.0445844)
(3.04386 3.63716e-05 -0.0450357)
(3.03988 6.20129e-05 -0.0462051)
(3.02698 0.000111057 -0.0487946)
(2.99221 0.000215282 -0.0543686)
(2.90152 0.000449781 -0.0665943)
(2.65916 0.00100092 -0.0949935)
(2.05569 0.0022146 -0.155834)
(1.34112 0.00477728 -0.166043)
(1.24818 0.00513822 -0.147985)
(1.21911 0.00538494 -0.146962)
(1.14791 0.00543033 -0.147059)
(0.954005 0.00516679 -0.150879)
(0.473051 0.00679061 -0.158444)
(0.428748 0.00395432 -0.127733)
(3.00702 2.44885e-07 -0.0225406)
(3.01726 1.05024e-06 -0.0336542)
(3.02711 2.65245e-06 -0.0380333)
(3.03683 1.24979e-05 -0.0412315)
(3.04274 1.91338e-05 -0.0432155)
(3.04441 6.07474e-05 -0.044585)
(3.04387 0.000110849 -0.045035)
(3.0399 0.000189028 -0.0462019)
(3.02703 0.000338909 -0.0487864)
(2.99232 0.000659005 -0.0543493)
(2.90179 0.00138557 -0.0665495)
(2.65973 0.00312053 -0.0948798)
(2.05541 0.00702639 -0.155656)
(1.33928 0.015106 -0.165921)
(1.24564 0.0160774 -0.147814)
(1.21554 0.0167316 -0.146835)
(1.14314 0.0168488 -0.146964)
(0.947889 0.0161402 -0.150807)
(0.467099 0.0207958 -0.158018)
(0.416888 0.0130711 -0.127739)
(3.00702 3.34907e-07 -0.0225404)
(3.01726 1.69179e-06 -0.0336544)
(3.02711 4.4045e-06 -0.0380323)
(3.03683 2.13687e-05 -0.0412313)
(3.04275 3.24852e-05 -0.0432129)
(3.04443 0.000103817 -0.0445866)
(3.0439 0.000189674 -0.045034)
(3.03995 0.00032377 -0.0461962)
(3.02713 0.000581696 -0.0487711)
(2.99256 0.00113564 -0.054313)
(2.90239 0.00240397 -0.0664637)
(2.66121 0.00547706 -0.0946536)
(2.05686 0.012558 -0.155289)
(1.33823 0.0272764 -0.165775)
(1.24332 0.0288257 -0.147529)
(1.21228 0.0298841 -0.146586)
(1.13875 0.0301756 -0.146758)
(0.942983 0.0292816 -0.150607)
(0.464426 0.0374635 -0.157268)
(0.408249 0.0247428 -0.127472)
(3.00703 3.74617e-07 -0.0225401)
(3.01726 2.28227e-06 -0.0336548)
(3.02712 6.12701e-06 -0.0380308)
(3.03684 3.07436e-05 -0.0412312)
(3.04277 4.64455e-05 -0.0432091)
(3.04446 0.000149833 -0.0445893)
(3.04394 0.000274308 -0.0450328)
(3.04003 0.000469045 -0.0461879)
(3.02729 0.000844832 -0.0487482)
(2.99293 0.00165538 -0.0542586)
(2.90335 0.00352102 -0.0663343)
(2.66366 0.00807514 -0.0943097)
(2.06012 0.0187157 -0.154729)
(1.33802 0.0409643 -0.16562)
(1.24112 0.0429549 -0.147143)
(1.20925 0.0443066 -0.146227)
(1.13474 0.0447529 -0.146446)
(0.939175 0.0438926 -0.150279)
(0.464317 0.0558544 -0.15624)
(0.401811 0.0386106 -0.12697)
(3.00703 3.65844e-07 -0.0225397)
(3.01726 2.81724e-06 -0.0336553)
(3.02712 7.79921e-06 -0.0380288)
(3.03685 4.06324e-05 -0.041231)
(3.04279 6.10534e-05 -0.0432038)
(3.04451 0.000199178 -0.0445931)
(3.044 0.000365571 -0.0450313)
(3.04013 0.000626429 -0.0461767)
(3.02752 0.00113144 -0.0487172)
(2.99345 0.00222461 -0.0541842)
(2.90471 0.00474949 -0.0661572)
(2.66716 0.0109389 -0.0938368)
(2.06535 0.025544 -0.153968)
(1.33871 0.0561153 -0.16547)
(1.23901 0.0584146 -0.146657)
(1.20638 0.0600235 -0.145765)
(1.13105 0.0606892 -0.146029)
(0.936238 0.0601741 -0.149803)
(0.466153 0.0759636 -0.15498)
(0.397169 0.0554217 -0.12625)
(3.00703 2.97446e-07 -0.022539)
(3.01726 3.27298e-06 -0.033656)
(3.02713 9.37461e-06 -0.0380262)
(3.03686 5.09689e-05 -0.0412309)
(3.04282 7.61883e-05 -0.0431969)
(3.04456 0.000251838 -0.0445983)
(3.04408 0.000463603 -0.0450296)
(3.04027 0.000796389 -0.0461623)
(3.02782 0.00144278 -0.048677)
(2.99414 0.00284649 -0.0540876)
(2.9065 0.00609664 -0.0659268)
(2.67181 0.0140823 -0.0932218)
(2.07274 0.0330791 -0.152974)
(1.34015 0.0727946 -0.165372)
(1.23535 0.0753273 -0.146077)
(1.20241 0.0770811 -0.145251)
(1.1267 0.0779548 -0.145551)
(0.93333 0.0780691 -0.149176)
(0.468875 0.0977363 -0.153532)
(0.393859 0.0752963 -0.125373)
(3.00703 1.43667e-07 -0.0225383)
(3.01726 3.59281e-06 -0.0336569)
(3.02714 1.07468e-05 -0.0380229)
(3.03687 6.1561e-05 -0.0412308)
(3.04286 9.15149e-05 -0.0431883)
(3.04464 0.000307338 -0.044605)
(3.04418 0.000567787 -0.0450276)
(3.04045 0.00097819 -0.0461444)
(3.02819 0.0017781 -0.0486267)
(2.99502 0.00352046 -0.0539664)
(2.90876 0.00756204 -0.0656371)
(2.67773 0.017503 -0.0924495)
(2.08245 0.0413174 -0.151734)
(1.34215 0.0912074 -0.165336)
(1.23092 0.0937832 -0.145425)
(1.19768 0.0954752 -0.144675)
(1.12179 0.0964839 -0.145003)
(0.930411 0.0975106 -0.14842)
(0.471981 0.121327 -0.151927)
(0.391452 0.0982582 -0.124349)
(3.00703 -1.43191e-07 -0.0225374)
(3.01726 3.67439e-06 -0.033658)
(3.02715 1.17272e-05 -0.038019)
(3.03688 7.20225e-05 -0.0412308)
(3.04291 0.000106405 -0.043178)
(3.04473 0.00036461 -0.0446133)
(3.0443 0.000676561 -0.0450253)
(3.04066 0.00116963 -0.0461227)
(3.02864 0.00213419 -0.0485652)
(2.99608 0.00424146 -0.0538179)
(2.91154 0.00913595 -0.0652821)
(2.685 0.0211782 -0.0915055)
(2.09462 0.0502402 -0.15022)
(1.3449 0.111528 -0.165393)
(1.22604 0.113717 -0.14471)
(1.19256 0.11504 -0.144027)
(1.11669 0.116138 -0.144366)
(0.927921 0.118472 -0.147516)
(0.475605 0.147034 -0.150181)
(0.389879 0.124358 -0.123207)
(3.00703 -6.43212e-07 -0.0225363)
(3.01727 3.34801e-06 -0.0336594)
(3.02716 1.20227e-05 -0.0380144)
(3.0369 8.16891e-05 -0.0412309)
(3.04296 0.000119871 -0.0431657)
(3.04483 0.000421878 -0.0446233)
(3.04444 0.000787251 -0.0450228)
(3.04091 0.00136681 -0.0460969)
(3.02919 0.00250515 -0.0484918)
(2.99736 0.00499954 -0.0536403)
(2.91486 0.0107982 -0.0648572)
(2.6937 0.0250597 -0.0903784)
(2.10942 0.0597981 -0.148417)
(1.34853 0.133891 -0.165566)
(1.22069 0.135049 -0.143929)
(1.18718 0.135588 -0.143307)
(1.11172 0.136795 -0.143646)
(0.926315 0.140951 -0.146443)
(0.480065 0.175244 -0.148284)
(0.389255 0.15396 -0.12195)
(3.00704 -1.5082e-06 -0.022535)
(3.01727 2.31929e-06 -0.0336609)
(3.02718 1.11895e-05 -0.0380092)
(3.03692 8.94495e-05 -0.041231)
(3.04303 0.000130551 -0.0431515)
(3.04495 0.000476489 -0.0446352)
(3.04461 0.000895817 -0.04502)
(3.04121 0.00156409 -0.046067)
(3.02983 0.00288266 -0.0484059)
(2.99886 0.00577917 -0.0534322)
(2.91875 0.0125108 -0.0643597)
(2.70387 0.0290449 -0.0890625)
(2.12711 0.0699452 -0.146319)
(1.35334 0.158422 -0.165876)
(1.21488 0.157782 -0.143053)
(1.18166 0.156953 -0.142486)
(1.10713 0.158431 -0.142813)
(0.926144 0.164959 -0.145279)
(0.486003 0.206324 -0.146237)
(0.389397 0.187428 -0.120602)
(3.00704 -3.01215e-06 -0.0225335)
(3.01727 1.45655e-07 -0.0336625)
(3.02719 8.69379e-06 -0.0380034)
(3.03693 9.36086e-05 -0.0412314)
(3.0431 0.000136866 -0.0431355)
(3.04509 0.000524496 -0.0446491)
(3.0448 0.00099705 -0.0450171)
(3.04155 0.00175669 -0.0460329)
(3.03056 0.003262 -0.0483079)
(3.00058 0.0065673 -0.0531946)
(2.92319 0.0142203 -0.0637929)
(2.71547 0.0329523 -0.0875803)
(2.14888 0.0802978 -0.143837)
(1.36025 0.184985 -0.166358)
(1.20909 0.181912 -0.142051)
(1.17631 0.179418 -0.141545)
(1.10339 0.181207 -0.141897)
(0.927737 0.190652 -0.143972)
(0.495239 0.239667 -0.144038)
(0.389661 0.225083 -0.119145)
(3.00704 -6.11112e-06 -0.0225318)
(3.01727 -4.19451e-06 -0.0336643)
(3.02721 3.29465e-06 -0.0379973)
(3.03695 9.21892e-05 -0.0412319)
(3.04318 0.000136287 -0.0431184)
(3.04525 0.000558335 -0.0446648)
(3.04501 0.00108817 -0.045014)
(3.04193 0.00195426 -0.045995)
(3.03139 0.00366257 -0.048199)
(3.00251 0.00737681 -0.0529298)
(2.92796 0.0159147 -0.0631708)
(2.72808 0.0367345 -0.0860108)
(2.17458 0.0905685 -0.141076)
(1.36933 0.21368 -0.167087)
(1.20372 0.207475 -0.140892)
(1.17156 0.203384 -0.140452)
(1.10094 0.205508 -0.140836)
(0.931743 0.218276 -0.142597)
(0.509106 0.27435 -0.141702)
(0.390439 0.267498 -0.117539)
(3.00705 -1.09077e-05 -0.0225295)
(3.01726 -1.11356e-05 -0.0336664)
(3.02723 -7.077e-06 -0.0379912)
(3.03697 8.21551e-05 -0.0412329)
(3.04326 0.000105175 -0.0431015)
(3.04543 0.000590394 -0.0446739)
(3.04524 0.0012049 -0.045019)
(3.04235 0.00219617 -0.0459601)
(3.03229 0.00410461 -0.0480843)
(3.00461 0.00818479 -0.0526452)
(2.93307 0.0175003 -0.0625088)
(2.74173 0.0401668 -0.0843623)
(2.2043 0.100093 -0.13803)
(1.38273 0.243876 -0.168034)
(1.20033 0.234355 -0.139534)
(1.16862 0.229095 -0.139187)
(1.10067 0.231854 -0.13961)
(0.938818 0.248262 -0.141099)
(0.52676 0.310206 -0.139352)
(0.392969 0.315843 -0.115795)
(3.00705 -1.54685e-05 -0.0225267)
(3.01726 -1.84684e-05 -0.0336686)
(3.02724 -2.12806e-05 -0.0379865)
(3.03699 6.33824e-05 -0.0412371)
(3.04335 3.01986e-05 -0.0430873)
(3.04566 0.000631665 -0.0446681)
(3.04551 0.00136975 -0.0450223)
(3.0428 0.00249825 -0.0459258)
(3.03326 0.00458319 -0.0479692)
(3.00684 0.00896017 -0.0523575)
(2.93851 0.0189132 -0.0618446)
(2.75605 0.0431379 -0.0827661)
(2.23805 0.108422 -0.135173)
(1.4014 0.273653 -0.168974)
(1.20048 0.261868 -0.137881)
(1.16922 0.256501 -0.137669)
(1.10392 0.260698 -0.138113)
(0.949628 0.281208 -0.139364)
(0.54807 0.347884 -0.136964)
(0.398538 0.371051 -0.11383)
(3.00705 -1.53382e-05 -0.0225236)
(3.01725 -2.08535e-05 -0.0336707)
(3.02726 -3.14831e-05 -0.0379838)
(3.03699 4.17064e-05 -0.0412459)
(3.04345 -4.5612e-05 -0.0430761)
(3.04594 0.000662853 -0.0446441)
(3.04583 0.00151525 -0.0450199)
(3.04331 0.00277027 -0.0458906)
(3.03429 0.0050162 -0.0478539)
(3.0092 0.00966036 -0.0520671)
(2.94423 0.0201837 -0.0611752)
(2.77091 0.0458312 -0.0811961)
(2.27508 0.116003 -0.132424)
(1.42425 0.301115 -0.17007)
(1.20422 0.289579 -0.136063)
(1.174 0.285526 -0.136053)
(1.11135 0.292531 -0.136438)
(0.964176 0.318104 -0.137389)
(0.571701 0.390695 -0.134575)
(0.407484 0.433437 -0.111838)
(3.00705 -5.62674e-06 -0.0225219)
(3.01724 -1.24242e-05 -0.0336715)
(3.02727 -2.99022e-05 -0.0379824)
(3.03698 2.33021e-05 -0.0412562)
(3.04355 -9.20636e-05 -0.0430642)
(3.04625 0.000676275 -0.0446165)
(3.04619 0.00159738 -0.0450146)
(3.04387 0.00294063 -0.045852)
(3.03539 0.00531675 -0.0477332)
(3.01168 0.0101887 -0.0517659)
(2.9502 0.0211714 -0.0604845)
(2.78638 0.0478943 -0.0795912)
(2.31494 0.121151 -0.129465)
(1.45162 0.323984 -0.171511)
(1.21185 0.317555 -0.134132)
(1.18293 0.316846 -0.134258)
(1.12357 0.327882 -0.13457)
(0.983786 0.359534 -0.135206)
(0.600294 0.440407 -0.131945)
(0.421161 0.504171 -0.10928)
(3.00705 3.91948e-06 -0.0225241)
(3.01724 -2.4023e-06 -0.03367)
(3.02727 -2.36059e-05 -0.0379828)
(3.03697 1.35588e-05 -0.0412666)
(3.04365 -0.000115571 -0.0430533)
(3.04658 0.00068135 -0.0445892)
(3.04656 0.0016358 -0.0450086)
(3.04445 0.00302548 -0.0458114)
(3.03653 0.00547489 -0.0476077)
(3.01422 0.0104715 -0.0514573)
(2.95624 0.0216693 -0.05978)
(2.80094 0.0488363 -0.0781217)
(2.35719 0.123103 -0.126667)
(1.49042 0.337152 -0.172921)
(1.22792 0.345183 -0.132334)
(1.19726 0.351206 -0.132295)
(1.1402 0.367466 -0.132569)
(1.00769 0.406149 -0.13291)
(0.635025 0.498166 -0.129377)
(0.440386 0.587132 -0.10656)
(3.00704 7.06682e-06 -0.0225272)
(3.01724 2.41329e-06 -0.0336675)
(3.02728 -1.76217e-05 -0.0379844)
(3.03695 1.26737e-05 -0.0412759)
(3.04376 -0.000117524 -0.0430434)
(3.04691 0.000682773 -0.0445608)
(3.04694 0.00164213 -0.0450029)
(3.04504 0.00304601 -0.0457691)
(3.0377 0.00552839 -0.0474761)
(3.0168 0.0105856 -0.0511301)
(2.96235 0.0218792 -0.059026)
(2.81614 0.0492291 -0.0764371)
(2.39961 0.124793 -0.12309)
(1.53804 0.345663 -0.172062)
(1.25341 0.37535 -0.131335)
(1.21672 0.389571 -0.130257)
(1.16055 0.412033 -0.130514)
(1.03551 0.458814 -0.130317)
(0.677053 0.565604 -0.126579)
(0.466029 0.687731 -0.103019)
(3.00704 9.83327e-06 -0.0225309)
(3.01724 7.42494e-06 -0.0336646)
(3.02728 -7.64151e-06 -0.0379868)
(3.03693 1.36439e-05 -0.0412836)
(3.04386 -9.45702e-05 -0.0430348)
(3.04724 0.000673597 -0.0445324)
(3.04731 0.0016158 -0.0449983)
(3.04563 0.00302446 -0.045727)
(3.03888 0.00553624 -0.0473426)
(3.01943 0.0106536 -0.0507951)
(2.96861 0.02207 -0.0582467)
(2.83234 0.0497682 -0.0746442)
(2.44686 0.126587 -0.118642)
(1.59805 0.354134 -0.169897)
(1.28778 0.406761 -0.131425)
(1.24065 0.429489 -0.128499)
(1.18392 0.460014 -0.128798)
(1.06654 0.51769 -0.128025)
(0.7278 0.645135 -0.123647)
(0.497859 0.815109 -0.0996605)
(3.00703 9.66933e-06 -0.0225348)
(3.01724 9.83782e-06 -0.0336618)
(3.02728 3.48039e-06 -0.0379896)
(3.03692 1.11156e-05 -0.0412882)
(3.04397 -3.88676e-05 -0.0430298)
(3.04756 0.000538359 -0.0445038)
(3.04769 0.0016327 -0.0449991)
(3.04623 0.00313296 -0.0456907)
(3.04006 0.00569189 -0.0472137)
(3.02207 0.0108415 -0.0504641)
(2.97497 0.0223171 -0.0574774)
(2.84902 0.0501973 -0.0728093)
(2.49845 0.127496 -0.114773)
(1.66829 0.35646 -0.166279)
(1.33099 0.440262 -0.131752)
(1.26885 0.472426 -0.126762)
(1.20889 0.511029 -0.126937)
(1.10078 0.580896 -0.125635)
(0.794052 0.73335 -0.120977)
(0.537113 0.982126 -0.0958269)
(2.97873 3.85756e-07 0.000343469)
(2.97489 1.50022e-07 -0.00401376)
(2.97754 2.34995e-06 -0.00718066)
(2.98091 5.35166e-06 -0.0104202)
(2.98321 1.10105e-05 -0.0126539)
(2.98371 1.93535e-05 -0.0137627)
(2.98202 3.46927e-05 -0.0146361)
(2.9747 6.57348e-05 -0.0161035)
(2.95423 0.000132038 -0.0187944)
(2.90227 0.00027964 -0.0241725)
(2.76615 0.000624945 -0.0356359)
(2.38242 0.00152583 -0.065922)
(1.43948 0.00413232 -0.120085)
(0.965979 0.00585622 -0.088959)
(0.915208 0.00688176 -0.0718271)
(0.902263 0.00779244 -0.0691125)
(0.844952 0.00805688 -0.0670506)
(0.617066 0.00747368 -0.0669053)
(0.201612 0.0109418 -0.0594756)
(0.277649 0.00845221 -0.0354913)
(2.97873 1.15809e-06 0.000343521)
(2.97489 4.2646e-07 -0.00401391)
(2.97755 7.08157e-06 -0.00718041)
(2.98092 1.6163e-05 -0.0104204)
(2.98321 3.32474e-05 -0.0126533)
(2.98372 5.84406e-05 -0.0137642)
(2.98203 0.000104773 -0.0146365)
(2.97473 0.000198625 -0.0161021)
(2.9543 0.000399496 -0.0187898)
(2.90243 0.000848369 -0.0241608)
(2.76655 0.00190751 -0.0356087)
(2.38357 0.00470825 -0.0658139)
(1.4423 0.0127987 -0.11987)
(0.964696 0.0182636 -0.0889369)
(0.911502 0.0210371 -0.0717222)
(0.896581 0.02335 -0.0690259)
(0.83677 0.0239427 -0.0670178)
(0.606335 0.0223085 -0.0669302)
(0.188033 0.0327181 -0.0591904)
(0.265908 0.0252565 -0.0353211)
(2.97874 1.94119e-06 0.000343631)
(2.97489 6.49389e-07 -0.00401421)
(2.97755 1.1917e-05 -0.00717989)
(2.98092 2.73058e-05 -0.0104211)
(2.98322 5.62115e-05 -0.0126521)
(2.98373 9.88966e-05 -0.0137673)
(2.98206 0.000177545 -0.0146375)
(2.9748 0.000337224 -0.0160997)
(2.95444 0.000680017 -0.0187809)
(2.90276 0.00144944 -0.024138)
(2.76742 0.00328062 -0.0355562)
(2.38606 0.00818588 -0.065602)
(1.44851 0.0224827 -0.119506)
(0.964413 0.032619 -0.0889537)
(0.908249 0.0370562 -0.071529)
(0.89118 0.040696 -0.068859)
(0.828555 0.0418947 -0.066929)
(0.596522 0.039857 -0.0669091)
(0.17861 0.0586633 -0.0586276)
(0.256676 0.0439315 -0.0349207)
(2.97874 2.7485e-06 0.000343808)
(2.97489 8.1043e-07 -0.00401467)
(2.97756 1.69191e-05 -0.00717911)
(2.98093 3.89585e-05 -0.0104221)
(2.98324 8.03635e-05 -0.0126503)
(2.98375 0.000141659 -0.0137722)
(2.9821 0.000254987 -0.0146391)
(2.97489 0.000485855 -0.016096)
(2.95466 0.000983094 -0.0187674)
(2.90329 0.00210313 -0.0241032)
(2.7688 0.00478273 -0.0354755)
(2.39003 0.0120073 -0.0652772)
(1.45844 0.0331354 -0.118974)
(0.965455 0.0485662 -0.0890191)
(0.905574 0.0543992 -0.0712552)
(0.886172 0.0590921 -0.0686202)
(0.820578 0.0608993 -0.0667822)
(0.588114 0.0592479 -0.0667982)
(0.173491 0.0861956 -0.0578098)
(0.248849 0.0639273 -0.0342998)
(2.97874 3.58457e-06 0.00034406)
(2.9749 8.98714e-07 -0.00401529)
(2.97756 2.21061e-05 -0.00717802)
(2.98094 5.11898e-05 -0.0104235)
(2.98326 0.000105912 -0.0126478)
(2.98378 0.00018717 -0.013779)
(2.98216 0.000338069 -0.0146413)
(2.97502 0.000646744 -0.0160909)
(2.95497 0.00131388 -0.0187486)
(2.90403 0.00282126 -0.0240547)
(2.77073 0.00644095 -0.0353625)
(2.39567 0.0162405 -0.0648248)
(1.47252 0.0448335 -0.118246)
(0.96798 0.0660279 -0.0891593)
(0.903563 0.0731846 -0.070907)
(0.881655 0.0787473 -0.0683151)
(0.813077 0.0811427 -0.0665726)
(0.581145 0.0807727 -0.0665499)
(0.17173 0.114698 -0.0568406)
(0.242184 0.0861587 -0.033509)
(2.97874 4.44125e-06 0.000344396)
(2.9749 8.88253e-07 -0.00401611)
(2.97757 2.74333e-05 -0.00717662)
(2.98096 6.3938e-05 -0.0104254)
(2.98329 0.000132797 -0.0126446)
(2.98382 0.000235416 -0.013788)
(2.98224 0.000426986 -0.0146443)
(2.9752 0.000820728 -0.0160842)
(2.95537 0.00167492 -0.0187238)
(2.905 0.00361062 -0.0239906)
(2.7733 0.00827294 -0.0352129)
(2.40315 0.0209214 -0.0642253)
(1.49121 0.0575973 -0.117293)
(0.971458 0.0850731 -0.0894147)
(0.903224 0.0932556 -0.0704603)
(0.878427 0.0995565 -0.0679354)
(0.80666 0.102613 -0.0662862)
(0.576036 0.104212 -0.0661406)
(0.172784 0.144213 -0.0557522)
(0.236387 0.11098 -0.0325846)
(2.97874 5.29123e-06 0.000344827)
(2.9749 7.34098e-07 -0.00401711)
(2.97759 3.27685e-05 -0.00717487)
(2.98098 7.69694e-05 -0.0104278)
(2.98333 0.000160634 -0.0126406)
(2.98387 0.00028585 -0.0137995)
(2.98233 0.000521049 -0.0146481)
(2.97541 0.00100709 -0.0160757)
(2.95588 0.00206583 -0.0186921)
(2.90623 0.004472 -0.0239086)
(2.77655 0.0102825 -0.0350203)
(2.4127 0.0260577 -0.0634685)
(1.51499 0.0713508 -0.116068)
(0.97581 0.105901 -0.0898096)
(0.903229 0.114518 -0.0699578)
(0.875807 0.121319 -0.0674974)
(0.801232 0.125135 -0.0659216)
(0.572999 0.129293 -0.065576)
(0.176302 0.174963 -0.0545767)
(0.231142 0.13865 -0.0315603)
(2.97874 6.07609e-06 0.000345363)
(2.97491 3.66459e-07 -0.00401832)