/*--------------------------------*- C++ -*----------------------------------*\
  =========                 |
  \\      /  F ield         | OpenFOAM: The Open Source CFD Toolbox
   \\    /   O peration     | Website:  https://openfoam.org
    \\  /    A nd           | Version:  6.0
     \\/     M anipulation  |
\*---------------------------------------------------------------------------*/
FoamFile
{
    version     2.0;
    format      ascii;
    class       volVectorField;
    location    "1.500193";
    object      U;
}
// * * * * * * * * * * * * * * * * * * * * * * * * * * * * * * * * * * * * * //

dimensions      [0 1 -1 0 0 0 0];

internalField   nonuniform List<vector> 
192000
(
(3 7.06703e-17 0)
(3 -7.46809e-16 0)
(3 3.22243e-16 0)
(3 1.3967e-15 0)
(3 6.66234e-16 0)
(3 6.43955e-15 0)
(3 -4.87786e-16 0)
(3 -8.63168e-15 0)
(3 -3.12144e-15 0)
(3 1.23754e-15 0)
(3 -9.25062e-17 0)
(3 1.06918e-15 0)
(3 -1.01985e-15 0)
(3 3.91889e-15 0)
(3 5.07751e-15 0)
(3 3.56648e-15 0)
(3 3.09665e-15 0)
(3 -8.19655e-16 0)
(3 1.35833e-15 0)
(3 1.2416e-15 0)
(3 2.00071e-16 0)
(1.95462 0.00276663 0)
(0.795152 0.00468686 0)
(0.69869 0.00747796 0)
(0.656947 0.00701269 0)
(0.614814 0.00650773 0)
(0.577068 0.00605441 0)
(0.540016 0.00607273 0)
(0.501662 0.0063501 0)
(0.462224 0.00665461 0)
(0.422502 0.00689758 0)
(0.382697 0.00668355 0)
(0.342334 0.00610541 0)
(0.302634 0.00569803 0)
(0.261805 0.0058935 0)
(0.21976 0.00667836 0)
(0.17578 0.00750402 0)
(0.129243 0.00814163 0)
(0.0808827 0.00807331 0)
(0.0286572 0.00797917 0)
(3 -4.35554e-17 0)
(3 9.7131e-16 0)
(3 4.50827e-16 0)
(3 1.69787e-15 0)
(3 9.15078e-16 0)
(3 4.50069e-15 0)
(3 1.42945e-15 0)
(3 -1.65205e-15 0)
(3 1.17721e-15 0)
(3 -8.52673e-16 0)
(3 2.16142e-15 0)
(3 4.85917e-16 0)
(3 -1.63079e-15 0)
(3 2.84655e-15 0)
(3 4.98613e-15 0)
(3 1.24412e-15 0)
(3 -8.27822e-16 0)
(3 -1.18307e-15 0)
(3 2.02123e-16 0)
(3 5.31382e-16 0)
(3 -1.63253e-15 0)
(1.94949 0.00801942 0)
(0.788681 0.0146757 0)
(0.690309 0.0189251 0)
(0.649675 0.0181821 0)
(0.609141 0.0173971 0)
(0.572605 0.016769 0)
(0.536201 0.0171485 0)
(0.498085 0.0179599 0)
(0.458822 0.0188645 0)
(0.419476 0.0198314 0)
(0.380355 0.0198795 0)
(0.341186 0.0187643 0)
(0.302962 0.0174247 0)
(0.263771 0.0172399 0)
(0.222717 0.0189458 0)
(0.179079 0.0213563 0)
(0.132601 0.0238433 0)
(0.0834032 0.0247416 0)
(0.0298661 0.0253105 0)
(3 -2.39701e-15 0)
(3 -1.43287e-15 0)
(3 1.01865e-15 0)
(3 1.34267e-15 0)
(3 1.04922e-15 0)
(3 -5.10431e-15 0)
(3 -1.79936e-15 0)
(3 -9.99179e-16 0)
(3 -1.89557e-16 0)
(3 -2.1123e-15 0)
(3 -1.67502e-16 0)
(3 -1.88244e-15 0)
(3 5.85404e-15 0)
(3 4.99384e-16 0)
(3 1.45963e-15 0)
(3 1.26443e-15 0)
(3 3.16097e-15 0)
(3 -2.24102e-15 0)
(3 -1.28902e-15 0)
(3 1.48639e-16 0)
(3 -6.15469e-16 0)
(1.94405 0.0176645 0)
(0.780555 0.0251767 0)
(0.680962 0.0310149 0)
(0.642033 0.0291436 0)
(0.603841 0.0281151 0)
(0.569178 0.0275667 0)
(0.533562 0.028601 0)
(0.495134 0.0301122 0)
(0.455056 0.0313974 0)
(0.415136 0.0325031 0)
(0.376045 0.0320963 0)
(0.337466 0.0301903 0)
(0.300014 0.0284077 0)
(0.262108 0.0286294 0)
(0.222142 0.0318864 0)
(0.1794 0.0358823 0)
(0.133352 0.0398822 0)
(0.0836622 0.0415418 0)
(0.0299707 0.0429984 0)
(3 1.80436e-15 0)
(3 -3.70283e-15 0)
(3 -1.00076e-15 0)
(3 1.97831e-16 0)
(3 -1.39495e-15 0)
(3 5.1994e-15 0)
(3 -5.71024e-16 0)
(3 -1.09041e-15 0)
(3 -2.89188e-15 0)
(3 1.07036e-15 0)
(3 2.03092e-15 0)
(3 4.4426e-15 0)
(3 -1.02424e-15 0)
(3 4.67583e-16 0)
(3 -8.77139e-16 0)
(3 3.1366e-15 0)
(3 4.5117e-15 0)
(3 2.73533e-16 0)
(3 2.66013e-18 0)
(3 -6.17826e-16 0)
(3 -6.86933e-16 0)
(1.94606 0.0319138 0)
(0.775936 0.0382799 0)
(0.67493 0.0430148 0)
(0.638495 0.0399795 0)
(0.60324 0.0387047 0)
(0.570627 0.0381813 0)
(0.535505 0.0401504 0)
(0.495969 0.0427611 0)
(0.453843 0.0444792 0)
(0.41217 0.0454495 0)
(0.372205 0.0442401 0)
(0.333635 0.041222 0)
(0.296458 0.0391801 0)
(0.259468 0.0399213 0)
(0.22048 0.0446584 0)
(0.178167 0.0502348 0)
(0.132699 0.0556141 0)
(0.0829271 0.0582224 0)
(0.0299356 0.0609752 0)
(3 1.92871e-15 0)
(3 2.34083e-16 0)
(3 -4.71297e-16 0)
(3 -9.73124e-16 0)
(3 5.35706e-16 0)
(3 5.13217e-15 0)
(3 3.63123e-15 0)
(3 -3.68182e-15 0)
(3 -1.96497e-15 0)
(3 1.38807e-15 0)
(3 -3.00764e-15 0)
(3 4.8991e-16 0)
(3 -2.9942e-16 0)
(3 -3.74893e-15 0)
(3 -4.38467e-16 0)
(3 -1.85598e-15 0)
(3 -2.54381e-15 0)
(3 1.3995e-15 0)
(3 1.21564e-15 0)
(3 5.03231e-17 0)
(3 2.02854e-15 0)
(1.96289 0.0496491 0)
(0.77875 0.0522414 0)
(0.67629 0.0554224 0)
(0.641661 0.0506125 0)
(0.608246 0.0481516 0)
(0.576692 0.0475155 0)
(0.541578 0.0508353 0)
(0.50054 0.0552283 0)
(0.455769 0.0579658 0)
(0.411686 0.0589324 0)
(0.370282 0.0566333 0)
(0.331282 0.0523679 0)
(0.294274 0.0503899 0)
(0.257342 0.0520419 0)
(0.218954 0.0582181 0)
(0.176402 0.0648201 0)
(0.130991 0.0709917 0)
(0.0810736 0.0745384 0)
(0.0294926 0.0791687 0)
(3 3.18198e-16 0)
(3 -4.17711e-16 0)
(3 -2.92766e-16 0)
(3 -3.29848e-16 0)
(3 2.13859e-16 0)
(3 -2.89399e-15 0)
(3 1.02944e-15 0)
(3 8.04748e-16 0)
(3 3.1783e-15 0)
(3 -1.59007e-16 0)
(3 -5.02197e-16 0)
(3 -5.35821e-16 0)
(3 5.22151e-16 0)
(3 -1.24202e-15 0)
(3 -3.98049e-16 0)
(3 8.75815e-16 0)
(3 -5.14314e-16 0)
(3 5.32696e-15 0)
(3 3.31302e-15 0)
(3 3.52384e-15 0)
(3 1.28355e-15 0)
(1.99387 0.0619336 0)
(0.788916 0.0650791 0)
(0.684488 0.0660878 0)
(0.649936 0.0594751 0)
(0.616178 0.0566578 0)
(0.583979 0.0565213 0)
(0.548116 0.0612498 0)
(0.506007 0.0675935 0)
(0.459523 0.0715419 0)
(0.413594 0.0725167 0)
(0.370695 0.0693057 0)
(0.330947 0.0639597 0)
(0.293909 0.0622558 0)
(0.257015 0.0653274 0)
(0.218316 0.0726567 0)
(0.174767 0.0791459 0)
(0.128978 0.0860412 0)
(0.0788762 0.0904768 0)
(0.0290952 0.0974679 0)
(3 -1.84558e-15 0)
(3 -9.32359e-16 0)
(3 -9.25294e-16 0)
(3 2.47116e-15 0)
(3 -8.51254e-16 0)
(3 1.21641e-15 0)
(3 2.61041e-15 0)
(3 2.66001e-15 0)
(3 1.04512e-15 0)
(3 -3.65394e-15 0)
(3 1.00168e-17 0)
(3 -7.00293e-16 0)
(3 -1.03235e-15 0)
(3 -7.48109e-16 0)
(3 1.83026e-17 0)
(3 1.71683e-15 0)
(3 3.4009e-15 0)
(3 2.50107e-15 0)
(3 7.85861e-16 0)
(3 -2.05179e-16 0)
(3 -1.26362e-15 0)
(2.02414 0.0686812 0)
(0.798931 0.0754606 0)
(0.692387 0.0770812 0)
(0.657229 0.0694511 0)
(0.622243 0.0668617 0)
(0.588243 0.0672569 0)
(0.550161 0.0731579 0)
(0.506212 0.0808104 0)
(0.458617 0.0852576 0)
(0.41244 0.0858385 0)
(0.369879 0.0816906 0)
(0.331167 0.0759596 0)
(0.295223 0.0754317 0)
(0.258697 0.0800434 0)
(0.21859 0.0875914 0)
(0.173511 0.0936474 0)
(0.126513 0.100756 0)
(0.0762299 0.106104 0)
(0.0284783 0.115893 0)
(3 -2.51952e-15 0)
(3 3.5761e-15 0)
(3 1.39978e-15 0)
(3 1.75737e-15 0)
(3 5.78562e-17 0)
(3 1.02093e-15 0)
(3 -3.47444e-16 0)
(3 6.30358e-16 0)
(3 -2.00762e-17 0)
(3 -2.08996e-15 0)
(3 1.13584e-15 0)
(3 -3.56763e-16 0)
(3 -8.33115e-16 0)
(3 7.38805e-16 0)
(3 2.91515e-15 0)
(3 2.80768e-15 0)
(3 -7.60957e-16 0)
(3 -1.0035e-15 0)
(3 -1.0737e-16 0)
(3 1.87964e-15 0)
(3 4.84912e-16 0)
(2.04885 0.075882 0)
(0.798932 0.0880478 0)
(0.690952 0.0881016 0)
(0.657888 0.0800972 0)
(0.623961 0.0778006 0)
(0.589809 0.0788944 0)
(0.550647 0.0858234 0)
(0.505212 0.0943169 0)
(0.456754 0.0986115 0)
(0.411018 0.0982647 0)
(0.369961 0.0933906 0)
(0.333422 0.0883267 0)
(0.299027 0.0891673 0)
(0.262528 0.0949336 0)
(0.22042 0.102596 0)
(0.173612 0.10841 0)
(0.124903 0.115457 0)
(0.0742137 0.121891 0)
(0.0280004 0.134562 0)
(3 1.93227e-15 0)
(3 6.16187e-17 0)
(3 3.6646e-16 0)
(3 -1.1625e-15 0)
(3 -2.60269e-16 0)
(3 1.61154e-15 0)
(3 2.81001e-15 0)
(3 2.16986e-16 0)
(3 1.02798e-15 0)
(3 5.04267e-15 0)
(3 5.22121e-15 0)
(3 2.06395e-16 0)
(3 2.56191e-15 0)
(3 2.64026e-15 0)
(3 5.36913e-15 0)
(3 2.88574e-15 0)
(3 1.83932e-15 0)
(3 3.44809e-15 0)
(3 2.63674e-15 0)
(3 4.32683e-15 0)
(3 2.27699e-15 0)
(2.07764 0.0843771 0)
(0.801573 0.0994496 0)
(0.689431 0.0978031 0)
(0.656061 0.0896247 0)
(0.621563 0.0883174 0)
(0.586515 0.0909309 0)
(0.546381 0.0994598 0)
(0.500566 0.108474 0)
(0.452833 0.111588 0)
(0.409055 0.109711 0)
(0.370598 0.10523 0)
(0.336421 0.101139 0)
(0.302846 0.103527 0)
(0.265473 0.109535 0)
(0.221398 0.117639 0)
(0.172952 0.123033 0)
(0.123103 0.130257 0)
(0.0726756 0.138145 0)
(0.0275418 0.153136 0)
(3 4.03255e-16 0)
(3 8.59404e-16 0)
(3 6.31831e-16 0)
(3 -3.01781e-16 0)
(3 5.63406e-16 0)
(3 -4.92263e-16 0)
(3 2.32905e-15 0)
(3 1.48937e-15 0)
(3 2.42999e-15 0)
(3 2.51226e-15 0)
(3 6.70171e-16 0)
(3 -2.07659e-15 0)
(3 -2.13005e-16 0)
(3 -2.95677e-15 0)
(3 6.77123e-15 0)
(3 -1.10119e-16 0)
(3 -1.65431e-15 0)
(3 -2.12131e-15 0)
(3 1.16987e-15 0)
(3 3.23558e-15 0)
(3 3.78267e-15 0)
(2.10807 0.0945204 0)
(0.803145 0.111708 0)
(0.686709 0.107755 0)
(0.652788 0.0990815 0)
(0.617229 0.0987499 0)
(0.580962 0.103104 0)
(0.539862 0.113329 0)
(0.494136 0.122503 0)
(0.448431 0.12386 0)
(0.408173 0.120914 0)
(0.373368 0.116585 0)
(0.341225 0.113816 0)
(0.307836 0.117056 0)
(0.269259 0.123822 0)
(0.223458 0.132391 0)
(0.173099 0.137727 0)
(0.122187 0.145651 0)
(0.0718882 0.155005 0)
(0.0269499 0.171477 0)
(3 -1.20579e-15 0)
(3 -1.10031e-16 0)
(3 -2.35186e-17 0)
(3 1.03291e-15 0)
(3 3.88571e-16 0)
(3 1.09699e-17 0)
(3 -2.57425e-15 0)
(3 -5.68548e-16 0)
(3 8.96147e-16 0)
(3 2.35699e-15 0)
(3 -3.99822e-16 0)
(3 -5.19738e-15 0)
(3 -2.2838e-15 0)
(3 1.01165e-15 0)
(3 -2.70923e-15 0)
(3 -2.95422e-15 0)
(3 -1.01076e-15 0)
(3 -2.24347e-15 0)
(3 1.95962e-15 0)
(3 2.53562e-15 0)
(3 3.47124e-15 0)
(2.14862 0.106909 0)
(0.809837 0.124948 0)
(0.688382 0.118764 0)
(0.652675 0.109681 0)
(0.614725 0.110252 0)
(0.576189 0.115954 0)
(0.533653 0.127281 0)
(0.488329 0.136297 0)
(0.445789 0.135977 0)
(0.410051 0.131857 0)
(0.378531 0.127895 0)
(0.347294 0.126032 0)
(0.312612 0.130207 0)
(0.272165 0.137825 0)
(0.2252 0.147023 0)
(0.173849 0.152892 0)
(0.122849 0.161994 0)
(0.0725319 0.172373 0)
(0.0267655 0.189492 0)
(3 1.4873e-15 0)
(3 2.3133e-16 0)
(3 1.97658e-16 0)
(3 -2.54914e-16 0)
(3 1.78882e-15 0)
(3 -1.22901e-15 0)
(3 -1.94456e-15 0)
(3 -1.85704e-16 0)
(3 1.23174e-15 0)
(3 -8.38827e-16 0)
(3 2.28539e-15 0)
(3 3.52256e-15 0)
(3 4.04014e-15 0)
(3 -1.30552e-15 0)
(3 -2.13542e-15 0)
(3 -1.45667e-15 0)
(3 2.1781e-16 0)
(3 9.65667e-16 0)
(3 2.69319e-16 0)
(3 5.43244e-16 0)
(3 -1.04554e-15 0)
(2.19988 0.116833 0)
(0.821655 0.137019 0)
(0.694401 0.129918 0)
(0.65627 0.121053 0)
(0.615294 0.122577 0)
(0.574018 0.129323 0)
(0.530054 0.141102 0)
(0.485646 0.149625 0)
(0.4466 0.147997 0)
(0.414789 0.14267 0)
(0.385416 0.139128 0)
(0.352999 0.138062 0)
(0.316105 0.143125 0)
(0.273509 0.15152 0)
(0.225799 0.161916 0)
(0.174371 0.169098 0)
(0.124034 0.179359 0)
(0.0736787 0.190052 0)
(0.0266674 0.207309 0)
(3 1.07494e-15 0)
(3 1.94745e-16 0)
(3 2.33044e-16 0)
(3 -5.98605e-16 0)
(3 -1.44879e-15 0)
(3 3.1921e-15 0)
(3 2.35188e-15 0)
(3 7.64231e-16 0)
(3 6.70474e-16 0)
(3 7.32356e-16 0)
(3 1.20763e-15 0)
(3 3.05856e-15 0)
(3 2.49509e-15 0)
(3 3.2119e-15 0)
(3 -1.08666e-15 0)
(3 2.87531e-15 0)
(3 9.99707e-16 0)
(3 1.16191e-15 0)
(3 -2.38004e-15 0)
(3 -2.54271e-15 0)
(3 -5.4364e-15 0)
(2.25523 0.123094 0)
(0.834919 0.14829 0)
(0.700145 0.142522 0)
(0.659501 0.133635 0)
(0.616145 0.13541 0)
(0.573535 0.142579 0)
(0.529583 0.154388 0)
(0.487064 0.162039 0)
(0.451201 0.159224 0)
(0.421945 0.153534 0)
(0.393153 0.150656 0)
(0.358831 0.15017 0)
(0.320013 0.155463 0)
(0.275602 0.165005 0)
(0.2275 0.177599 0)
(0.176203 0.186519 0)
(0.126441 0.197461 0)
(0.0756748 0.207809 0)
(0.0268973 0.224732 0)
(3 -2.23064e-16 0)
(3 -1.45576e-15 0)
(3 -1.94044e-15 0)
(3 -1.83374e-15 0)
(3 1.41771e-15 0)
(3 -7.41388e-16 0)
(3 -1.04098e-15 0)
(3 2.01253e-15 0)
(3 -6.82721e-16 0)
(3 9.55203e-16 0)
(3 -1.73567e-16 0)
(3 2.69921e-16 0)
(3 6.59556e-16 0)
(3 -1.64068e-15 0)
(3 -1.54067e-15 0)
(3 -4.00261e-16 0)
(3 -1.57232e-15 0)
(3 -2.47305e-15 0)
(3 -3.08304e-15 0)
(3 -2.00477e-15 0)
(3 -4.12095e-15 0)
(2.31165 0.127599 0)
(0.846801 0.160152 0)
(0.705077 0.155894 0)
(0.662572 0.146701 0)
(0.617113 0.148199 0)
(0.574286 0.155325 0)
(0.532161 0.167219 0)
(0.492306 0.173606 0)
(0.4589 0.169599 0)
(0.430095 0.164651 0)
(0.400659 0.162471 0)
(0.363885 0.162227 0)
(0.322624 0.16798 0)
(0.276827 0.178979 0)
(0.228624 0.194251 0)
(0.178216 0.204883 0)
(0.129101 0.216126 0)
(0.0780347 0.225561 0)
(0.0274164 0.241892 0)
(3 -1.87816e-16 0)
(3 8.62961e-16 0)
(3 1.29609e-16 0)
(3 7.68605e-16 0)
(3 2.43614e-15 0)
(3 -2.16403e-16 0)
(3 -1.95952e-15 0)
(3 2.19045e-15 0)
(3 2.00797e-15 0)
(3 1.82797e-15 0)
(3 -1.84734e-15 0)
(3 -3.4227e-16 0)
(3 5.31536e-16 0)
(3 1.40265e-15 0)
(3 -7.04968e-16 0)
(3 1.8314e-15 0)
(3 4.93098e-16 0)
(3 -1.69378e-15 0)
(3 -2.73625e-15 0)
(3 -1.50611e-15 0)
(3 -1.16118e-15 0)
(2.37251 0.129633 0)
(0.860344 0.171956 0)
(0.705292 0.170447 0)
(0.661873 0.159302 0)
(0.617394 0.16011 0)
(0.576788 0.167165 0)
(0.537882 0.178067 0)
(0.500913 0.18303 0)
(0.468929 0.178724 0)
(0.439577 0.174663 0)
(0.408234 0.173689 0)
(0.368994 0.174176 0)
(0.325625 0.181135 0)
(0.278749 0.193835 0)
(0.23014 0.211476 0)
(0.179928 0.223622 0)
(0.131082 0.23502 0)
(0.0796373 0.243288 0)
(0.0277288 0.258945 0)
(3 6.18868e-16 0)
(3 -2.34511e-15 0)
(3 2.15337e-15 0)
(3 3.91508e-16 0)
(3 -8.70134e-16 0)
(3 7.10648e-16 0)
(3 7.14954e-16 0)
(3 -1.97653e-15 0)
(3 2.50111e-15 0)
(3 3.35985e-16 0)
(3 -7.35064e-16 0)
(3 -1.87325e-15 0)
(3 1.18711e-15 0)
(3 2.81659e-15 0)
(3 3.27262e-15 0)
(3 1.01352e-15 0)
(3 1.5073e-15 0)
(3 7.02704e-16 0)
(3 -1.2955e-15 0)
(3 1.45878e-16 0)
(3 -7.27469e-17 0)
(2.43084 0.13001 0)
(0.871453 0.186953 0)
(0.706187 0.185936 0)
(0.662759 0.171742 0)
(0.618352 0.170848 0)
(0.580408 0.177528 0)
(0.545575 0.188023 0)
(0.511767 0.191491 0)
(0.480686 0.186393 0)
(0.449398 0.183565 0)
(0.415112 0.184647 0)
(0.373234 0.186975 0)
(0.328094 0.195714 0)
(0.280112 0.209778 0)
(0.231048 0.228968 0)
(0.180632 0.242331 0)
(0.131941 0.253851 0)
(0.0802652 0.260933 0)
(0.0278082 0.276003 0)
(3 -6.52988e-16 0)
(3 -1.06896e-17 0)
(3 -8.12895e-16 0)
(3 -8.13147e-16 0)
(3 -6.13923e-16 0)
(3 6.79183e-16 0)
(3 -8.39222e-16 0)
(3 -2.20643e-15 0)
(3 -2.67568e-15 0)
(3 -1.03791e-15 0)
(3 -1.55835e-15 0)
(3 -1.95696e-15 0)
(3 -5.67483e-16 0)
(3 -4.72615e-15 0)
(3 1.98008e-15 0)
(3 1.10701e-15 0)
(3 6.67222e-16 0)
(3 -2.18306e-15 0)
(3 -1.77074e-15 0)
(3 -1.08896e-15 0)
(3 -3.45187e-16 0)
(2.4798 0.131263 0)
(0.875905 0.203795 0)
(0.697849 0.198099 0)
(0.658122 0.182326 0)
(0.618687 0.180757 0)
(0.586261 0.187217 0)
(0.55568 0.197574 0)
(0.524063 0.19975 0)
(0.49236 0.194243 0)
(0.458634 0.192435 0)
(0.42137 0.196075 0)
(0.377233 0.201063 0)
(0.330801 0.211671 0)
(0.281789 0.226431 0)
(0.232335 0.246382 0)
(0.181295 0.260576 0)
(0.132464 0.272336 0)
(0.0804917 0.278531 0)
(0.0278708 0.29328 0)
(3 3.81995e-16 0)
(3 1.02098e-15 0)
(3 4.69712e-16 0)
(3 9.57111e-16 0)
(3 5.62589e-16 0)
(3 9.57875e-16 0)
(3 -1.21004e-15 0)
(3 -2.48949e-15 0)
(3 -1.95304e-15 0)
(3 -1.26368e-15 0)
(3 2.70438e-15 0)
(3 1.96898e-15 0)
(3 -2.10622e-15 0)
(3 -1.59074e-15 0)
(3 1.28321e-15 0)
(3 3.20208e-15 0)
(3 1.15892e-15 0)
(3 -1.37014e-15 0)
(3 -7.70632e-16 0)
(3 -1.50732e-15 0)
(3 -1.64509e-16 0)
(2.52036 0.137969 0)
(0.874453 0.220351 0)
(0.689333 0.207915 0)
(0.658368 0.191936 0)
(0.62451 0.189436 0)
(0.595773 0.196421 0)
(0.567321 0.206914 0)
(0.536286 0.208551 0)
(0.503639 0.202472 0)
(0.467605 0.202049 0)
(0.428076 0.20826 0)
(0.382026 0.216267 0)
(0.334336 0.228446 0)
(0.284179 0.243591 0)
(0.234195 0.263706 0)
(0.182389 0.278365 0)
(0.132914 0.290571 0)
(0.0804751 0.296262 0)
(0.0278406 0.310925 0)
(3 2.8038e-16 0)
(3 -1.33424e-16 0)
(3 -1.3087e-16 0)
(3 1.03267e-15 0)
(3 4.08408e-16 0)
(3 -8.54378e-16 0)
(3 -2.0087e-15 0)
(3 3.76464e-15 0)
(3 -6.69071e-16 0)
(3 -1.19165e-15 0)
(3 2.36857e-15 0)
(3 4.02303e-16 0)
(3 -6.5807e-16 0)
(3 -9.12784e-17 0)
(3 7.64586e-17 0)
(3 1.93031e-15 0)
(3 2.97045e-15 0)
(3 2.513e-15 0)
(3 -7.80643e-16 0)
(3 -2.97961e-15 0)
(3 -1.01535e-15 0)
(2.57141 0.152795 0)
(0.882928 0.243283 0)
(0.69234 0.216448 0)
(0.668511 0.199169 0)
(0.637481 0.196727 0)
(0.609194 0.204978 0)
(0.579726 0.217255 0)
(0.547023 0.220024 0)
(0.512495 0.214161 0)
(0.474769 0.214208 0)
(0.433726 0.22196 0)
(0.38689 0.232009 0)
(0.338239 0.24546 0)
(0.287339 0.260867 0)
(0.237027 0.280959 0)
(0.184411 0.296003 0)
(0.13404 0.308848 0)
(0.080766 0.314346 0)
(0.027941 0.329017 0)
(3 -2.81233e-16 0)
(3 -7.28028e-16 0)
(3 7.3365e-16 0)
(3 9.37564e-16 0)
(3 9.43366e-16 0)
(3 -3.93214e-15 0)
(3 2.44213e-15 0)
(3 3.52571e-15 0)
(3 -2.42519e-15 0)
(3 2.18527e-15 0)
(3 -1.6402e-15 0)
(3 -1.58041e-15 0)
(3 5.38654e-16 0)
(3 -4.75859e-15 0)
(3 -2.85354e-15 0)
(3 -1.02918e-15 0)
(3 3.69671e-15 0)
(3 1.90344e-15 0)
(3 -3.71859e-15 0)
(3 -4.68713e-15 0)
(3 -2.77871e-15 0)
(2.65646 0.172129 0)
(0.911347 0.263802 0)
(0.712935 0.214813 0)
(0.69104 0.204255 0)
(0.657165 0.205197 0)
(0.624634 0.214909 0)
(0.59112 0.228804 0)
(0.55523 0.233427 0)
(0.519119 0.228311 0)
(0.480874 0.228541 0)
(0.439594 0.236572 0)
(0.392557 0.247435 0)
(0.343075 0.261877 0)
(0.291486 0.277766 0)
(0.240695 0.298243 0)
(0.187329 0.313958 0)
(0.135688 0.327592 0)
(0.0811563 0.332954 0)
(0.0280598 0.347631 0)
(3 -8.09107e-16 0)
(3 -6.64083e-16 0)
(3 1.07415e-15 0)
(3 2.62695e-15 0)
(3 -5.37469e-15 0)
(3 -3.04476e-15 0)
(3 2.85552e-15 0)
(3 -2.85538e-15 0)
(3 3.00105e-15 0)
(3 1.35364e-15 0)
(3 8.56015e-16 0)
(3 2.0511e-16 0)
(3 5.67011e-16 0)
(3 1.07109e-15 0)
(3 7.03468e-16 0)
(3 1.18536e-15 0)
(3 7.74613e-16 0)
(3 2.16104e-15 0)
(3 1.80021e-15 0)
(3 -2.15132e-15 0)
(3 -3.86795e-15 0)
(2.77869 0.172969 0)
(0.967547 0.272763 0)
(0.751156 0.225389 0)
(0.72253 0.213389 0)
(0.680691 0.21531 0)
(0.64114 0.224965 0)
(0.60211 0.239295 0)
(0.562067 0.245948 0)
(0.523346 0.243023 0)
(0.484518 0.244377 0)
(0.4439 0.252425 0)
(0.397345 0.262814 0)
(0.347891 0.277633 0)
(0.29636 0.294426 0)
(0.245404 0.315738 0)
(0.191573 0.332397 0)
(0.138371 0.34696 0)
(0.0821252 0.352152 0)
(0.0285202 0.366901 0)
(3 6.53387e-17 0)
(3 3.26703e-15 0)
(3 1.77818e-15 0)
(3 2.07938e-15 0)
(3 -1.92952e-15 0)
(3 2.06355e-16 0)
(3 -1.73815e-15 0)
(3 -8.34368e-16 0)
(3 2.34055e-15 0)
(3 5.21139e-16 0)
(3 2.58962e-15 0)
(3 4.02326e-16 0)
(3 4.67697e-18 0)
(3 5.10021e-15 0)
(3 3.42471e-15 0)
(3 3.13388e-15 0)
(3 3.99865e-16 0)
(3 1.94401e-15 0)
(3 1.50999e-15 0)
(3 -3.08256e-15 0)
(3 -4.88391e-15 0)
(2.91203 0.126509 0)
(1.02711 0.275012 0)
(0.784393 0.232643 0)
(0.750451 0.223895 0)
(0.70161 0.22746 0)
(0.654866 0.237164 0)
(0.609294 0.251738 0)
(0.565728 0.258771 0)
(0.526444 0.256795 0)
(0.488118 0.259359 0)
(0.448442 0.267917 0)
(0.402317 0.277936 0)
(0.353405 0.293155 0)
(0.302413 0.311247 0)
(0.251377 0.333677 0)
(0.197011 0.351332 0)
(0.141646 0.366894 0)
(0.083201 0.372006 0)
(0.0290114 0.387019 0)
(3 -2.67672e-16 0)
(3 3.8999e-15 0)
(3 -7.18216e-16 0)
(3 4.78422e-16 0)
(3 6.80545e-16 0)
(3 -1.0843e-15 0)
(3 -4.55246e-16 0)
(3 2.89628e-15 0)
(3 2.71618e-16 0)
(3 -1.37367e-15 0)
(3 2.62316e-15 0)
(3 5.50172e-16 0)
(3 5.94554e-16 0)
(3 4.49425e-16 0)
(3 -1.31246e-16 0)
(3 2.4886e-16 0)
(3 -9.13506e-17 0)
(3 -1.27899e-16 0)
(3 5.84496e-16 0)
(3 -2.01352e-15 0)
(3 9.78717e-16 0)
(2.97151 0.0681207 0)
(1.05609 0.269187 0)
(0.789403 0.246018 0)
(0.760999 0.239773 0)
(0.712988 0.242788 0)
(0.663853 0.251647 0)
(0.615986 0.265123 0)
(0.571678 0.271031 0)
(0.53186 0.269163 0)
(0.492661 0.272966 0)
(0.451811 0.282865 0)
(0.406463 0.293693 0)
(0.358747 0.309892 0)
(0.309107 0.328965 0)
(0.258591 0.352125 0)
(0.203643 0.370531 0)
(0.146123 0.38699 0)
(0.0852261 0.392457 0)
(0.0301625 0.408167 0)
(3 1.18204e-17 0)
(3 2.73359e-15 0)
(3 -2.11801e-15 0)
(3 2.2541e-16 0)
(3 -2.62013e-15 0)
(3 3.9259e-15 0)
(3 1.69746e-15 0)
(3 -8.56617e-16 0)
(3 -2.08788e-15 0)
(3 1.51807e-16 0)
(3 -2.58443e-15 0)
(3 3.84257e-15 0)
(3 2.41329e-15 0)
(3 -1.71279e-15 0)
(3 2.50139e-16 0)
(3 -7.84582e-16 0)
(3 -1.92359e-15 0)
(3 -3.89941e-15 0)
(3 2.03062e-15 0)
(3 2.11939e-15 0)
(3 -1.62348e-15 0)
(2.95912 0.0348744 0)
(1.0663 0.266095 0)
(0.782515 0.254125 0)
(0.756919 0.253496 0)
(0.712429 0.258415 0)
(0.667715 0.267284 0)
(0.622832 0.278513 0)
(0.578817 0.282893 0)
(0.536943 0.28142 0)
(0.495623 0.286079 0)
(0.453865 0.297469 0)
(0.409599 0.310172 0)
(0.364468 0.328065 0)
(0.316168 0.347809 0)
(0.266355 0.371198 0)
(0.210678 0.390001 0)
(0.150809 0.407197 0)
(0.0873288 0.413626 0)
(0.0311921 0.430464 0)
(3 8.47697e-16 0)
(3 -3.20368e-15 0)
(3 -1.55532e-15 0)
(3 -8.05688e-16 0)
(3 1.50797e-15 0)
(3 2.06801e-15 0)
(3 9.99376e-16 0)
(3 -1.03853e-15 0)
(3 -2.21183e-15 0)
(3 -4.14095e-15 0)
(3 -1.01666e-15 0)
(3 1.30402e-15 0)
(3 7.40851e-16 0)
(3 1.41373e-15 0)
(3 1.62107e-15 0)
(3 1.99128e-15 0)
(3 6.13472e-16 0)
(3 -1.25553e-15 0)
(3 3.15614e-16 0)
(3 2.92855e-15 0)
(3 -2.91048e-16 0)
(2.95827 0.0284336 0)
(1.07238 0.266826 0)
(0.769098 0.25516 0)
(0.748858 0.264496 0)
(0.709799 0.272883 0)
(0.669704 0.282728 0)
(0.627122 0.293123 0)
(0.58331 0.296088 0)
(0.540154 0.294129 0)
(0.49774 0.299054 0)
(0.456077 0.312083 0)
(0.413108 0.327113 0)
(0.370097 0.347195 0)
(0.323223 0.367758 0)
(0.274 0.391104 0)
(0.217923 0.409779 0)
(0.156234 0.427399 0)
(0.0905736 0.435454 0)
(0.0328355 0.453753 0)
(3 -1.49502e-15 0)
(3 -3.23446e-15 0)
(3 1.09027e-15 0)
(3 2.14414e-16 0)
(3 -4.93812e-16 0)
(3 -1.54872e-16 0)
(3 1.66763e-15 0)
(3 1.21105e-15 0)
(3 -3.69553e-16 0)
(3 -2.3642e-15 0)
(3 -2.93242e-15 0)
(3 -2.79352e-16 0)
(3 6.34946e-16 0)
(3 4.26444e-15 0)
(3 -7.77954e-16 0)
(3 6.4287e-16 0)
(3 1.62671e-15 0)
(3 2.2817e-15 0)
(3 2.59962e-15 0)
(3 5.42836e-16 0)
(3 3.56055e-15 0)
(2.98407 0.0230152 0)
(1.0944 0.272617 0)
(0.758963 0.257259 0)
(0.739701 0.273232 0)
(0.703805 0.285279 0)
(0.666779 0.29751 0)
(0.626553 0.308209 0)
(0.584391 0.309997 0)
(0.541706 0.307051 0)
(0.499525 0.31216 0)
(0.458977 0.326905 0)
(0.417598 0.344075 0)
(0.376268 0.366265 0)
(0.330144 0.388129 0)
(0.281059 0.411633 0)
(0.224445 0.430039 0)
(0.161164 0.448014 0)
(0.0938643 0.458266 0)
(0.0340073 0.477943 0)
(3 4.18194e-16 0)
(3 -3.74068e-16 0)
(3 1.00979e-15 0)
(3 -5.25718e-16 0)
(3 -1.30951e-15 0)
(3 -8.58821e-16 0)
(3 -1.01617e-15 0)
(3 -1.44557e-15 0)
(3 -3.75361e-16 0)
(3 -1.02829e-16 0)
(3 -1.03122e-15 0)
(3 -2.27445e-15 0)
(3 -8.5099e-17 0)
(3 4.19743e-17 0)
(3 -9.53651e-16 0)
(3 -1.8493e-15 0)
(3 -3.04488e-18 0)
(3 1.14605e-17 0)
(3 4.49639e-15 0)
(3 3.77196e-15 0)
(3 7.21541e-16 0)
(3.00473 0.00580137 0)
(1.12728 0.282677 0)
(0.753199 0.262186 0)
(0.729966 0.281331 0)
(0.696193 0.2962 0)
(0.660972 0.310545 0)
(0.622744 0.322057 0)
(0.582634 0.323615 0)
(0.541736 0.320089 0)
(0.50129 0.32552 0)
(0.463023 0.341693 0)
(0.423426 0.360563 0)
(0.383174 0.384548 0)
(0.337017 0.407944 0)
(0.287605 0.431992 0)
(0.230707 0.450407 0)
(0.166831 0.469109 0)
(0.0986589 0.48199 0)
(0.0358237 0.502717 0)
(3 4.97963e-17 0)
(3 1.27412e-15 0)
(3 1.24468e-15 0)
(3 -1.0628e-15 0)
(3 2.762e-16 0)
(3 1.15399e-16 0)
(3 -2.87953e-15 0)
(3 -1.90961e-15 0)
(3 -1.38819e-15 0)
(3 -5.36524e-16 0)
(3 -3.58241e-16 0)
(3 -7.38746e-16 0)
(3 -8.03523e-16 0)
(3 9.72075e-17 0)
(3 -3.22434e-15 0)
(3 6.04714e-16 0)
(3 -3.21243e-16 0)
(3 -1.53227e-15 0)
(3 -1.99633e-15 0)
(3 7.40899e-15 0)
(3 1.91181e-15 0)
(3.0011 0.000439147 0)
(1.17097 0.297532 0)
(0.749332 0.269789 0)
(0.71952 0.289005 0)
(0.687344 0.305768 0)
(0.653213 0.321504 0)
(0.616909 0.33412 0)
(0.579214 0.336159 0)
(0.541166 0.333007 0)
(0.503731 0.338965 0)
(0.468367 0.356131 0)
(0.430141 0.376421 0)
(0.390113 0.401785 0)
(0.343582 0.426336 0)
(0.293367 0.45135 0)
(0.236188 0.470797 0)
(0.172168 0.491377 0)
(0.103299 0.507148 0)
(0.0369337 0.528248 0)
(3 -9.14731e-16 0)
(3 2.18071e-15 0)
(3 1.83874e-16 0)
(3 -3.32826e-16 0)
(3 1.9914e-16 0)
(3 -7.97758e-19 0)
(3 9.90334e-16 0)
(3 -1.77555e-16 0)
(3 -2.44064e-15 0)
(3 -7.48942e-16 0)
(3 -1.67131e-15 0)
(3 -7.84698e-16 0)
(3 -1.73326e-15 0)
(3 -2.61653e-15 0)
(3 -7.18992e-16 0)
(3 3.23867e-15 0)
(3 -6.81597e-16 0)
(3 1.97785e-15 0)
(3 -1.24044e-15 0)
(3 2.17305e-15 0)
(3 1.55573e-15 0)
(3.00003 1.30065e-05 0)
(1.22937 0.311994 0)
(0.749624 0.280096 0)
(0.710737 0.297843 0)
(0.678171 0.314876 0)
(0.644669 0.33107 0)
(0.61052 0.344226 0)
(0.575922 0.347299 0)
(0.541571 0.345458 0)
(0.507399 0.352201 0)
(0.474342 0.370183 0)
(0.437036 0.391518 0)
(0.396997 0.417463 0)
(0.350074 0.442676 0)
(0.299126 0.469351 0)
(0.242312 0.491299 0)
(0.179243 0.514785 0)
(0.109709 0.533333 0)
(0.0390687 0.554509 0)
(3 5.29871e-16 0)
(3 -8.35876e-16 0)
(3 -4.67144e-16 0)
(3 -1.97556e-16 0)
(3 -9.11681e-17 0)
(3 -1.86783e-15 0)
(3 1.23587e-15 0)
(3 1.55991e-16 0)
(3 -1.07732e-15 0)
(3 5.13614e-16 0)
(3 1.09162e-15 0)
(3 -1.66219e-15 0)
(3 -2.05744e-15 0)
(3 -2.51663e-15 0)
(3 1.33875e-15 0)
(3 1.31029e-15 0)
(3 -1.29989e-17 0)
(3 4.24734e-15 0)
(3 1.44504e-15 0)
(3 2.26084e-15 0)
(3 2.93153e-15 0)
(3 7.03775e-08 0)
(1.30289 0.327927 0)
(0.755308 0.292621 0)
(0.706124 0.309251 0)
(0.670871 0.325192 0)
(0.637491 0.340649 0)
(0.606168 0.353808 0)
(0.575359 0.357649 0)
(0.544499 0.356978 0)
(0.512721 0.364729 0)
(0.480866 0.383382 0)
(0.443731 0.405292 0)
(0.403095 0.431457 0)
(0.355041 0.457618 0)
(0.304114 0.487078 0)
(0.248403 0.513055 0)
(0.186584 0.540103 0)
(0.115849 0.561132 0)
(0.040399 0.58218 0)
(3 7.38025e-16 0)
(3 -4.49319e-16 0)
(3 -5.13321e-16 0)
(3 5.79575e-16 0)
(3 1.36018e-15 0)
(3 2.07544e-16 0)
(3 -5.30703e-17 0)
(3 -2.22318e-16 0)
(3 2.92655e-15 0)
(3 1.73139e-15 0)
(3 4.8507e-15 0)
(3 -1.01438e-15 0)
(3 1.47814e-15 0)
(3 1.68843e-17 0)
(3 -1.23513e-15 0)
(3 -7.19397e-16 0)
(3 -1.74476e-15 0)
(3 2.77431e-15 0)
(3 -2.051e-16 0)
(3 4.73337e-15 0)
(3 1.86036e-16 0)
(3 4.4731e-11 0)
(1.38906 0.341672 0)
(0.764033 0.306635 0)
(0.704481 0.321515 0)
(0.667522 0.337222 0)
(0.635146 0.351877 0)
(0.606651 0.363881 0)
(0.57876 0.367184 0)
(0.54985 0.36706 0)
(0.51894 0.375996 0)
(0.486489 0.395626 0)
(0.448626 0.418077 0)
(0.406977 0.444336 0)
(0.359341 0.472052 0)
(0.310254 0.505442 0)
(0.256705 0.536287 0)
(0.196755 0.566779 0)
(0.124569 0.590046 0)
(0.0433389 0.611513 0)
(3 -3.8335e-16 0)
(3 1.94361e-16 0)
(3 -9.38376e-16 0)
(3 1.31134e-16 0)
(3 3.09014e-16 0)
(3 6.71689e-16 0)
(3 1.76532e-15 0)
(3 3.14848e-15 0)
(3 -1.07734e-15 0)
(3 -1.45384e-15 0)
(3 2.84875e-16 0)
(3 2.46545e-15 0)
(3 2.61728e-15 0)
(3 2.13488e-17 0)
(3 -6.62433e-16 0)
(3 -7.58655e-16 0)
(3 -5.16982e-16 0)
(3 2.1221e-15 0)
(3 5.5662e-15 0)
(3 3.3828e-15 0)
(3 1.41815e-15 0)
(3 -4.79197e-15 0)
(1.48601 0.353163 0)
(0.774717 0.321528 0)
(0.706468 0.334592 0)
(0.669386 0.350478 0)
(0.638352 0.363853 0)
(0.611596 0.373547 0)
(0.584837 0.375844 0)
(0.555734 0.376463 0)
(0.523641 0.386717 0)
(0.489279 0.407349 0)
(0.450625 0.430033 0)
(0.409348 0.456808 0)
(0.364216 0.48719 0)
(0.318193 0.525092 0)
(0.266685 0.561268 0)
(0.207487 0.595627 0)
(0.132784 0.621413 0)
(0.0451473 0.643545 0)
(3 -1.06779e-16 0)
(3 5.48792e-16 0)
(3 5.54805e-16 0)
(3 2.38818e-16 0)
(3 -7.6346e-16 0)
(3 2.33377e-15 0)
(3 3.20829e-15 0)
(3 2.69699e-15 0)
(3 1.20177e-15 0)
(3 -4.56941e-16 0)
(3 -3.88107e-16 0)
(3 1.16817e-15 0)
(3 2.12796e-15 0)
(3 -5.59907e-16 0)
(3 -1.44012e-15 0)
(3 1.11926e-16 0)
(3 -2.52555e-16 0)
(3 1.66954e-16 0)
(3 3.59381e-15 0)
(3 -5.83674e-17 0)
(3 2.58712e-15 0)
(3 -9.97457e-15 0)
(1.59354 0.363032 0)
(0.787814 0.336648 0)
(0.710961 0.347177 0)
(0.673748 0.363394 0)
(0.642868 0.376044 0)
(0.61593 0.384016 0)
(0.588546 0.385549 0)
(0.558315 0.386471 0)
(0.525102 0.397318 0)
(0.489851 0.418705 0)
(0.451654 0.441942 0)
(0.412783 0.469987 0)
(0.371571 0.503464 0)
(0.328894 0.545594 0)
(0.27926 0.587199 0)
(0.220754 0.626001 0)
(0.143672 0.654874 0)
(0.0489573 0.67844 0)
(3 -9.17294e-17 0)
(3 4.94919e-17 0)
(3 9.3006e-18 0)
(3 8.72361e-16 0)
(3 3.39702e-16 0)
(3 -2.55256e-15 0)
(3 1.97651e-16 0)
(3 1.10725e-15 0)
(3 2.28459e-15 0)
(3 1.04289e-15 0)
(3 3.89619e-16 0)
(3 -1.24976e-15 0)
(3 -5.06801e-16 0)
(3 -3.26737e-15 0)
(3 -1.86746e-15 0)
(3 -1.02165e-15 0)
(3 7.06254e-16 0)
(3 -1.26672e-15 0)
(3 -9.57611e-16 0)
(3 9.68576e-16 0)
(3 2.29208e-15 0)
(3 -8.95456e-15 0)
(1.71184 0.370341 0)
(0.800383 0.355013 0)
(0.712118 0.361279 0)
(0.674749 0.375937 0)
(0.644287 0.387446 0)
(0.617572 0.394038 0)
(0.59027 0.395435 0)
(0.559423 0.396978 0)
(0.525467 0.408421 0)
(0.490611 0.430743 0)
(0.454098 0.454913 0)
(0.418543 0.484395 0)
(0.381635 0.520685 0)
(0.342409 0.566056 0)
(0.294632 0.612956 0)
(0.235238 0.658112 0)
(0.15402 0.691943 0)
(0.0513918 0.717564 0)
(3 6.3042e-16 0)
(3 -9.36518e-16 0)
(3 -1.78218e-16 0)
(3 2.61949e-16 0)
(3 -7.37918e-16 0)
(3 1.94849e-15 0)
(3 1.71515e-15 0)
(3 1.44831e-15 0)
(3 3.9084e-15 0)
(3 -1.12975e-16 0)
(3 -1.15073e-15 0)
(3 -2.28051e-15 0)
(3 -5.92159e-16 0)
(3 -2.99381e-15 0)
(3 8.72061e-16 0)
(3 -8.41052e-18 0)
(3 1.36058e-16 0)
(3 4.15753e-16 0)
(3 -1.36418e-15 0)
(3 2.93565e-16 0)
(3 1.83424e-15 0)
(3 -5.9719e-15 0)
(1.84716 0.379091 0)
(0.816864 0.377563 0)
(0.716729 0.375723 0)
(0.678363 0.387422 0)
(0.647291 0.397227 0)
(0.61946 0.403357 0)
(0.59102 0.405667 0)
(0.559803 0.408341 0)
(0.526704 0.420507 0)
(0.494002 0.443626 0)
(0.460036 0.468639 0)
(0.42787 0.499215 0)
(0.395199 0.537231 0)
(0.358822 0.58546 0)
(0.312267 0.638336 0)
(0.25268 0.691244 0)
(0.167853 0.731891 0)
(0.0566193 0.761205 0)
(3 -1.27693e-16 0)
(3 -5.8735e-16 0)
(3 5.14057e-16 0)
(3 1.17638e-15 0)
(3 8.85744e-16 0)
(3 2.20388e-15 0)
(3 1.3149e-15 0)
(3 1.18562e-15 0)
(3 4.7554e-15 0)
(3 -9.9048e-16 0)
(3 2.03757e-15 0)
(3 4.41901e-16 0)
(3 -7.80632e-16 0)
(3 -6.86725e-16 0)
(3 -1.69483e-15 0)
(3 3.43431e-16 0)
(3 -1.06136e-15 0)
(3 -2.69324e-15 0)
(3 1.26196e-15 0)
(3 2.87984e-16 0)
(3 2.62846e-15 0)
(3 -4.86252e-15 0)
(2.00362 0.38409 0)
(0.841996 0.400962 0)
(0.725353 0.391119 0)
(0.683407 0.399142 0)
(0.647884 0.40674 0)
(0.618326 0.411896 0)
(0.59058 0.415925 0)
(0.561189 0.42008 0)
(0.530602 0.432658 0)
(0.501128 0.456357 0)
(0.469519 0.482586 0)
(0.440046 0.514355 0)
(0.410909 0.553511 0)
(0.377645 0.603984 0)
(0.333264 0.662377 0)
(0.273193 0.725106 0)
(0.181979 0.776689 0)
(0.0606715 0.812138 0)
(3 -2.10962e-15 0)
(3 4.85358e-16 0)
(3 -3.12044e-15 0)
(3 -2.26304e-15 0)
(3 1.3021e-15 0)
(3 7.30248e-16 0)
(3 3.92567e-16 0)
(3 1.05501e-15 0)
(3 4.45307e-16 0)
(3 3.83908e-15 0)
(3 2.78872e-16 0)
(3 -1.20475e-15 0)
(3 -1.54303e-15 0)
(3 3.81165e-16 0)
(3 4.34529e-16 0)
(3 1.96843e-15 0)