/*--------------------------------*- C++ -*----------------------------------*\
  =========                 |
  \\      /  F ield         | OpenFOAM: The Open Source CFD Toolbox
   \\    /   O peration     | Website:  https://openfoam.org
    \\  /    A nd           | Version:  6.0
     \\/     M anipulation  |
\*---------------------------------------------------------------------------*/
FoamFile
{
    version     2.0;
    format      ascii;
    class       volScalarField;
    location    "3.99920404";
    object      p;
}
// * * * * * * * * * * * * * * * * * * * * * * * * * * * * * * * * * * * * * //

dimensions      [1 -1 -2 0 0 0 0];

internalField   nonuniform List<scalar> 
1200
(
1
1
1
1
1
1
1
1
1
1
5.79232
10.5304
10.9565
11.186
11.1705
10.9752
11.2068
11.9206
12.0642
11.6729
1
1
1
1
1
1
1
1
1
1
5.7457
10.5266
10.8159
11.1167
11.2713
11.3247
11.5897
11.7954
11.8333
11.8626
1
1
1
1
1
1
1
1
1
1
5.69453
10.5766
10.6524
10.8244
11.1797
11.763
11.9082
11.6384
11.4763
11.6161
1
1
1
1
1
1
1
1
1
1
5.62657
10.548
10.5438
10.598
11.2308
11.9657
11.965
11.4919
11.3491
11.8537
1
1
1
1
1
1
1
1
1
1
5.51444
10.4626
10.5598
10.8596
11.2794
11.603
11.6527
11.4685
11.5659
12.371
1
1
1
1
1
1
1
1
1
1
5.38673
10.3152
10.7801
11.1725
11.2039
11.0894
11.1094
11.336
11.9576
12.3615
1
1
1
1
1
1
1
1
1
1
5.28259
10.3097
11.0242
11.1931
11.0948
10.7482
10.7611
11.4444
12.1652
12.0599
1
1
1
1
1
1
1
1
1
1
5.2018
10.4583
10.946
11.0899
10.8662
10.6178
10.9978
11.929
11.9418
11.3761
1
1
1
1
1
1
1
1
1
1
5.03928
10.4844
10.6118
10.6916
10.8154
10.9797
11.7451
12.0082
11.4687
10.8816
1
1
1
1
1
1
1
1
1
1
4.78001
10.349
10.3184
10.199
10.6353
11.6241
11.8993
11.7887
11.1006
10.7962
1
1
1
1
1
1
1
1
1
1
4.45461
10.0051
10.1105
10.3274
11.1996
11.7319
11.7115
10.9392
10.9085
11.2979
1
1
1
1
1
1
1
1
1
1
4.15231
9.68815
10.457
11.1308
11.3074
11.3452
10.8684
10.4869
10.904
12.4174
1
1
1
1
1
1
1
1
1
1
3.95289
9.59563
10.921
11.2826
11.2963
10.7337
10.3165
10.2107
11.1847
12.53
1
1
1
1
1
1
1
1
1
1
3.9136
9.98856
10.8368
11.0484
10.6486
10.226
10.2381
10.6362
11.6808
12.0615
1
1
1
1
1
1
1
1
1
1
3.63987
9.92049
10.5806
10.2353
10.134
10.2217
10.8432
11.903
11.4984
10.5687
1
1
1
1
1
1
1
1
1
1
3.26005
9.59048
10.0883
9.82623
9.88094
10.411
11.7835
11.9235
11.0567
9.55483
1
1
1
1
1
1
1
1
1
1
2.77236
8.87051
9.72426
9.89811
10.5345
11.4445
11.4845
11.6541
9.98697
8.9987
1
1
1
1
1
1
1
1
1
1
2.42265
8.33775
9.52631
10.3943
11.2846
11.4384
11.2257
9.98545
9.42527
8.6134
1
1
1
1
1
1
1
1
1
1
2.20514
8.18054
10.5083
11.029
11.1306
11.1008
9.80298
9.08182
9.20087
10.0745
1
1
1
1
1
1
1
1
1
1
1.92169
8.72206
11.0103
10.8652
10.7008
9.78127
9.17057
8.83138
9.90793
11.4315
1
1
1
1
1
1
1
1
1
1
1.16326
7.37385
10.3313
10.0334
9.88578
9.9478
10.1467
10.1101
9.38814
7.66577
1
1
1
1
1
1
1
1
1
1
1.00143
5.02486
9.46364
9.73218
9.86816
9.81493
9.56135
9.03048
8.03894
6.44785
1
1
1
1
1
1
1
1
1
1
0.999994
2.57907
8.47829
9.5625
9.43909
9.20707
8.84514
8.31718
7.50779
6.28789
1
1
1
1
1
1
1
1
1
1
0.999999
1.15354
6.1904
9.21115
9.03406
8.85354
8.47253
7.98538
7.1557
6.19641
1
1
1
1
1
1
1
1
1
1
1
1.00125
2.92933
8.18818
8.7553
8.5051
8.13012
7.65572
6.96709
6.18475
1
1
1
1
1
1
1
1
1
1
1
0.999998
1.17829
5.67636
8.53047
8.26821
7.90675
7.4573
6.86903
6.20083
1
1
1
1
1
1
1
1
1
1
1
1
1.00178
2.03958
7.09808
8.11877
7.7037
7.2966
6.76132
6.19441
1
1
1
1
1
1
1
1
1
1
1
1
1
1.05427
4.03591
7.60295
7.55497
7.16096
6.68612
6.20267
1
1
1
1
1
1
1
1
1
1
1
1
1
1.00024
1.42679
5.26322
7.46787
7.10916
6.68335
6.24347
1
1
1
1
1
1
1
1
1
1
1
1
1
1
1.01023
1.96622
5.85865
7.08889
6.69677
6.26786
1
1
1
1
1
1
1
1
1
1
1
1
1
1
1.00004
1.04721
2.54264
6.02546
6.77189
6.35945
1
1
1
1
1
1
1
1
1
1
1
1
1
1
1
1.00036
1.118
2.99061
5.94684
6.44168
1
1
1
1
1
1
1
1
1
1
1
1
1
1
1
1
1.00144
1.20341
3.21603
5.88281
1
1
1
1
1
1
1
1
1
1
1
1
1
1
1
1
1
1.00365
1.26756
3.63957
1
1
1
1
1
1
1
1
1
1
1
1
1
1
1
1
1
1.00001
1.00532
1.43357
1
1
1
1
1
1
1
1
1
1
1
1
1
1
1
1
1
1
1.00002
1.01174
1
1
1
1
1
1
1
1
1
1
1
1
1
1
1
1
1
1
1
1
1
1
1
1
1
1
1
1
1
1
1
1
1
1
1
1
1
1
1
1
1
1
1
1
1
1
1
1
1
1
1
1
1
1
1
1
1
1
1
1
1
1
1
1
1
1
1
1
1
1
1
1
1
1
1
1
1
1
1
1
1.35259
0.632716
0.887493
1.25294
1.30008
2.77254
5.25436
5.53139
5.30546
5.07635
4.78465
4.48515
4.15872
3.88292
3.59955
3.33762
3.08097
2.84921
2.65859
2.35818
2.83228
0.997925
1.0383
1.15412
1.21045
2.60982
5.33261
5.58494
5.28085
5.02091
4.72556
4.43461
4.12862
3.87093
3.58191
3.31503
3.06029
2.83878
2.65329
2.35839
3.40818
1.41926
1.1359
1.08295
1.15152
2.52587
5.40959
5.64925
5.30376
5.03329
4.72975
4.42815
4.15752
3.86742
3.57437
3.30906
3.05261
2.82787
2.63956
2.35241
3.81609
2.01101
1.37612
1.08369
1.11084
2.21266
5.52532
5.71596
5.25088
4.96529
4.68219
4.39812
4.12012
3.83247
3.54936
3.2939
3.04645
2.82911
2.63455
2.34397
4.15073
2.49385
1.64233
1.1268
1.14475
2.03109
5.19971
5.87346
5.27299
4.92924
4.64044
4.36229
4.09003
3.80897
3.52676
3.26877
3.02408
2.81111
2.6109
2.33002
4.39389
2.93344
1.94636
1.29945
1.3311
2.04734
4.39981
5.70942
5.24432
4.88094
4.5931
4.32093
4.0436
3.76892
3.49675
3.24741
3.01007
2.79882
2.58856
2.32131
4.58808
3.31084
2.20314
1.48763
1.66901
2.40791
3.5032
5.28533
5.20247
4.84455
4.54628
4.2766
3.99926
3.7308
3.4685
3.22531
2.99677
2.78203
2.56553
2.31799
4.78659
3.60525
2.42446
1.66615
2.28544
2.93705
3.03912
4.40029
5.09906
4.79073
4.495
4.22024
3.94467
3.68312
3.4319
3.1974
2.97282
2.75563
2.54028
2.33207
4.99093
3.81838
2.57099
1.95267
3.10479
3.38759
3.10132
3.49328
4.63208
4.73942
4.43011
4.16191
3.89532
3.64163
3.39633
3.16364
2.94679
2.71591
2.52564
2.36915
5.18619
3.9249
2.69931
2.53141
3.94465
3.70947
3.23508
3.02807
3.83887
4.47909
4.33707
4.08723
3.83324
3.59228
3.35281
3.11802
2.9096
2.66539
2.50661
2.4603
5.39971
3.94604
2.89545
3.49661
4.64641
4.07332
3.41801
2.99584
3.13747
3.95061
4.19662
3.99508
3.7697
3.54015
3.30645
3.06952
2.8499
2.61306
2.50612
2.63328
5.5457
3.94646
3.25803
4.8066
5.07354
4.38739
3.63368
3.04647
2.81792
3.24218
3.88467
3.90447
3.72644
3.51162
3.29577
3.05776
2.79199
2.60377
2.54417
2.87106
5.6316
4.07369
3.97703
6.07625
5.45362
4.59902
3.82757
3.16192
2.76457
2.73805
3.31868
3.70523
3.61062
3.4183
3.19175
2.93911
2.72259
2.61403
2.66385
3.15492
5.37938
4.33537
5.27225
7.03801
5.81787
4.77791
3.98384
3.31927
2.77195
2.52793
2.73583
3.3732
3.4922
3.32582
3.10078
2.85058
2.70121
2.67796
2.95883
3.4475
4.57912
4.60324
7.03863
7.68231
6.12595
4.93726
4.10392
3.4448
2.85096
2.48721
2.37536
2.83761
3.2878
3.18973
2.98762
2.79258
2.73719
2.8686
3.36915
3.59723
3.29063
5.27393
8.78302
8.03961
6.37452
5.10208
4.21315
3.54597
2.96078
2.46844
2.24606
2.38071
2.88855
3.02894
2.88634
2.77362
2.8383
3.25034
3.78549
3.70287
2.48044
6.23347
10.0012
8.27955
6.54413
5.24197
4.3061
3.61291
3.03954
2.51634
2.19989
2.1075
2.38644
2.80677
2.77323
2.83203
3.16841
3.65077
3.92244
3.7687
1.90764
7.09254
11.2855
8.50365
6.6706
5.35725
4.38701
3.66009
3.09812
2.59912
2.18377
1.96821
2.00372
2.4137
2.67141
3.0327
3.65673
4.02121
3.9974
3.79387
1.49797
7.78328
12.1116
8.6312
6.72168
5.42929
4.44706
3.69068
3.12696
2.65861
2.22115
1.88266
1.7959
2.05805
2.65818
3.35725
3.93206
4.09338
4.02131
3.80072
1.24342
8.53774
12.7186
8.81746
6.74334
5.45383
4.47582
3.70367
3.13477
2.69418
2.27516
1.82235
1.68895
1.83644
2.6558
3.78103
4.25475
4.18455
4.03628
3.7739
)
;

boundaryField
{
    inlet
    {
        type            fixedValue;
        value           uniform 1;
    }
    outlet
    {
        type            zeroGradient;
    }
    top
    {
        type            symmetryPlane;
    }
    bottom
    {
        type            symmetryPlane;
    }
    step
    {
        type            zeroGradient;
    }
    defaultFaces
    {
        type            empty;
    }
}


// ************************************************************************* //
