/*--------------------------------*- C++ -*----------------------------------*\
  =========                 |
  \\      /  F ield         | OpenFOAM: The Open Source CFD Toolbox
   \\    /   O peration     | Website:  https://openfoam.org
    \\  /    A nd           | Version:  6.0
     \\/     M anipulation  |
\*---------------------------------------------------------------------------*/
FoamFile
{
    version     2.0;
    format      ascii;
    class       volScalarField;
    location    "3.99920404";
    object      rho;
}
// * * * * * * * * * * * * * * * * * * * * * * * * * * * * * * * * * * * * * //

dimensions      [1 -3 0 0 0 0 0];

internalField   nonuniform List<scalar> 
1200
(
1.39997
1.39997
1.39997
1.39997
1.39997
1.39997
1.39997
1.39997
1.39997
1.39997
3.69021
5.42579
5.5777
5.65878
5.65157
5.57969
5.66281
5.91664
5.96658
5.8274
1.39997
1.39997
1.39997
1.39997
1.39997
1.39997
1.39997
1.39997
1.39997
1.39997
3.67024
5.42421
5.52646
5.63363
5.68806
5.70663
5.80065
5.87268
5.88463
5.89547
1.39997
1.39997
1.39997
1.39997
1.39997
1.39997
1.39997
1.39997
1.39997
1.39997
3.6486
5.44193
5.46633
5.52743
5.65542
5.86399
5.91492
5.81781
5.75817
5.80845
1.39997
1.39997
1.39997
1.39997
1.39997
1.39997
1.39997
1.39997
1.39997
1.39997
3.61967
5.43051
5.42622
5.44468
5.67418
5.93664
5.93585
5.76603
5.7133
5.89384
1.39997
1.39997
1.39997
1.39997
1.39997
1.39997
1.39997
1.39997
1.39997
1.39997
3.57266
5.39813
5.43194
5.54055
5.69218
5.80822
5.8253
5.75832
5.79201
6.07718
1.39997
1.39997
1.39997
1.39997
1.39997
1.39997
1.39997
1.39997
1.39997
1.39997
3.51683
5.34282
5.51273
5.65461
5.66554
5.624
5.63064
5.71173
5.93255
6.07557
1.39997
1.39997
1.39997
1.39997
1.39997
1.39997
1.39997
1.39997
1.39997
1.39997
3.46994
5.34096
5.60232
5.66258
5.62647
5.49993
5.50504
5.75268
6.00717
5.97093
1.39997
1.39997
1.39997
1.39997
1.39997
1.39997
1.39997
1.39997
1.39997
1.39997
3.43565
5.39727
5.57464
5.62575
5.5432
5.45264
5.59202
5.92569
5.92929
5.72824
1.39997
1.39997
1.39997
1.39997
1.39997
1.39997
1.39997
1.39997
1.39997
1.39997
3.36861
5.41111
5.4533
5.48057
5.52511
5.58686
5.86172
5.95536
5.76161
5.551
1.39997
1.39997
1.39997
1.39997
1.39997
1.39997
1.39997
1.39997
1.39997
1.39997
3.26054
5.3666
5.34641
5.29942
5.46119
5.81899
5.91821
5.88013
5.63003
5.52218
1.39997
1.39997
1.39997
1.39997
1.39997
1.39997
1.39997
1.39997
1.39997
1.39997
3.11884
5.24229
5.27016
5.34867
5.66722
5.85878
5.85236
5.57347
5.56115
5.70792
1.39997
1.39997
1.39997
1.39997
1.39997
1.39997
1.39997
1.39997
1.39997
1.39997
2.98596
5.12739
5.40067
5.64503
5.70792
5.72219
5.54855
5.40886
5.56198
6.10659
1.39997
1.39997
1.39997
1.39997
1.39997
1.39997
1.39997
1.39997
1.39997
1.39997
2.89041
5.09818
5.5753
5.70394
5.70632
5.50023
5.34674
5.30868
5.66767
6.15009
1.39997
1.39997
1.39997
1.39997
1.39997
1.39997
1.39997
1.39997
1.39997
1.39997
2.87448
5.25501
5.5488
5.62248
5.47102
5.31399
5.31814
5.47168
5.84652
5.99339
1.39997
1.39997
1.39997
1.39997
1.39997
1.39997
1.39997
1.39997
1.39997
1.39997
2.7543
5.24666
5.46081
5.32625
5.28418
5.31314
5.54274
5.92563
5.78427
5.45562
1.39997
1.39997
1.39997
1.39997
1.39997
1.39997
1.39997
1.39997
1.39997
1.39997
2.58488
5.15038
5.28552
5.17514
5.19104
5.38828
5.88569
5.93563
5.62982
5.08326
1.39997
1.39997
1.39997
1.39997
1.39997
1.39997
1.39997
1.39997
1.39997
1.39997
2.35481
4.89265
5.15858
5.20935
5.43688
5.76715
5.78199
5.85042
5.23565
4.87634
1.39997
1.39997
1.39997
1.39997
1.39997
1.39997
1.39997
1.39997
1.39997
1.39997
2.1862
4.69458
5.09504
5.40621
5.723
5.7692
5.69625
5.23536
5.02537
4.74099
1.39997
1.39997
1.39997
1.39997
1.39997
1.39997
1.39997
1.39997
1.39997
1.39997
2.07796
4.64517
5.47947
5.65426
5.67741
5.66028
5.1653
4.88934
4.93309
5.29674
1.39997
1.39997
1.39997
1.39997
1.39997
1.39997
1.39997
1.39997
1.39997
1.39997
1.9337
4.9044
5.67974
5.61099
5.53116
5.1684
4.92311
4.78881
5.19297
5.76084
1.39997
1.39997
1.39997
1.39997
1.39997
1.39997
1.39997
1.39997
1.39997
1.39997
1.51969
4.42067
5.44921
5.3107
5.23202
5.23385
5.29259
5.26792
4.96987
4.15175
1.39997
1.39997
1.39997
1.39997
1.39997
1.39997
1.39997
1.39997
1.39997
1.39997
1.40117
3.41529
5.14564
5.21008
5.24297
5.20846
5.09299
4.8674
4.45276
3.73826
1.39997
1.39997
1.39997
1.39997
1.39997
1.39997
1.39997
1.39997
1.39997
1.39997
1.39996
2.30544
4.86436
5.18435
5.12062
5.01011
4.84896
4.61872
4.26858
3.72274
1.39997
1.39997
1.39997
1.39997
1.39997
1.39997
1.39997
1.39997
1.39997
1.39997
1.39997
1.5165
3.97297
5.0951
5.00789
4.91376
4.73713
4.51858
4.15687
3.72952
1.39997
1.39997
1.39997
1.39997
1.39997
1.39997
1.39997
1.39997
1.39997
1.39997
1.39997
1.40096
2.52135
4.82225
4.92996
4.81435
4.63978
4.42233
4.11414
3.75892
1.39997
1.39997
1.39997
1.39997
1.39997
1.39997
1.39997
1.39997
1.39997
1.39997
1.39997
1.39997
1.53624
3.80605
4.8972
4.76985
4.59637
4.38483
4.11419
3.80377
1.39997
1.39997
1.39997
1.39997
1.39997
1.39997
1.39997
1.39997
1.39997
1.39997
1.39997
1.39997
1.40144
2.06972
4.49418
4.76904
4.57315
4.37313
4.11786
3.84618
1.39997
1.39997
1.39997
1.39997
1.39997
1.39997
1.39997
1.39997
1.39997
1.39997
1.39997
1.39997
1.39997
1.44347
3.11254
4.63858
4.57424
4.37515
4.13959
3.89955
1.39997
1.39997
1.39997
1.39997
1.39997
1.39997
1.39997
1.39997
1.39997
1.39997
1.39997
1.39997
1.39997
1.40018
1.70446
3.70903
4.59431
4.41506
4.19786
3.97229
1.39997
1.39997
1.39997
1.39997
1.39997
1.39997
1.39997
1.39997
1.39997
1.39997
1.39997
1.39997
1.39997
1.39997
1.40859
2.04674
4.02175
4.4688
4.27148
4.04688
1.39997
1.39997
1.39997
1.39997
1.39997
1.39997
1.39997
1.39997
1.39997
1.39997
1.39997
1.39997
1.39997
1.39997
1.40001
1.43897
2.39275
4.12683
4.36861
4.15812
1.39997
1.39997
1.39997
1.39997
1.39997
1.39997
1.39997
1.39997
1.39997
1.39997
1.39997
1.39997
1.39997
1.39997
1.39997
1.40031
1.49455
2.65481
4.11464
4.25405
1.39997
1.39997
1.39997
1.39997
1.39997
1.39997
1.39997
1.39997
1.39997
1.39997
1.39997
1.39997
1.39997
1.39997
1.39997
1.39997
1.40129
1.55866
2.80375
4.07294
1.39997
1.39997
1.39997
1.39997
1.39997
1.39997
1.39997
1.39997
1.39997
1.39997
1.39997
1.39997
1.39997
1.39997
1.39997
1.39997
1.39997
1.40326
1.60815
2.98024
1.39997
1.39997
1.39997
1.39997
1.39997
1.39997
1.39997
1.39997
1.39997
1.39997
1.39997
1.39997
1.39997
1.39997
1.39997
1.39997
1.39997
1.39998
1.4047
1.71496
1.39997
1.39997
1.39997
1.39997
1.39997
1.39997
1.39997
1.39997
1.39997
1.39997
1.39997
1.39997
1.39997
1.39997
1.39997
1.39997
1.39997
1.39997
1.39999
1.40997
1.39997
1.39997
1.39997
1.39997
1.39997
1.39997
1.39997
1.39997
1.39997
1.39997
1.39997
1.39997
1.39997
1.39997
1.39997
1.39997
1.39997
1.39997
1.39997
1.39997
1.39997
1.39997
1.39997
1.39997
1.39997
1.39997
1.39997
1.39997
1.39997
1.39997
1.39997
1.39997
1.39997
1.39997
1.39997
1.39997
1.39997
1.39997
1.39997
1.39997
1.39997
1.39997
1.39997
1.39997
1.39997
1.39997
1.39997
1.39997
1.39997
1.39997
1.39997
1.39997
1.39997
1.39997
1.39997
1.39997
1.39997
1.39997
1.39997
1.39997
1.39997
1.39997
1.39997
1.39997
1.39997
1.39997
1.39997
1.39997
1.39997
1.39997
1.39997
1.39997
1.39997
1.39997
1.39997
1.39997
1.39997
1.39997
1.39997
1.39997
1.09795
0.580212
0.74327
0.961757
0.999419
1.62236
2.53668
2.72367
2.70327
2.66664
2.58668
2.48727
2.36847
2.26299
2.14949
2.0405
1.92956
1.82629
1.74012
1.6027
1.94381
0.851197
0.880601
0.951902
0.987029
1.60163
2.62152
2.80173
2.74747
2.69083
2.60246
2.50101
2.38454
2.2819
2.1618
2.04701
1.93379
1.83277
1.74708
1.60968
2.34933
1.18536
1.00114
0.973951
1.01734
1.69676
2.8164
2.98416
2.89231
2.81221
2.70628
2.58931
2.47541
2.34852
2.21642
2.09351
1.97182
1.86303
1.77082
1.62971
2.61686
1.61195
1.21106
1.01935
1.03876
1.67635
3.06643
3.19896
3.03054
2.92539
2.81436
2.69417
2.56715
2.43034
2.29143
2.16297
2.03619
1.92294
1.82071
1.66714
2.81624
1.93267
1.42118
1.07647
1.08903
1.62721
3.09712
3.39173
3.1525
3.01719
2.8977
2.77528
2.64806
2.51022
2.36637
2.23105
2.09958
1.98282
1.87185
1.71332
2.95937
2.20002
1.63229
1.21146
1.23389
1.65057
2.83821
3.40318
3.21123
3.06365
2.94181
2.82015
2.69058
2.55628
2.41723
2.28529
2.15584
2.03809
1.91891
1.76221
3.08098
2.41966
1.80037
1.34608
1.45495
1.85282
2.44662
3.27528
3.24349
3.09584
2.96694
2.84374
2.71279
2.58167
2.44833
2.3202
2.19555
2.07596
1.9523
1.80562
3.20875
2.59364
1.94281
1.46809
1.80673
2.1561
2.23725
2.91231
3.25333
3.11941
2.98669
2.8566
2.72246
2.59223
2.46349
2.33954
2.21689
2.09505
1.9715
1.84807
3.34633
2.73138
2.04564
1.65398
2.24133
2.42606
2.30044
2.52402
3.09611
3.15152
3.00327
2.87032
2.73441
2.60343
2.47492
2.35013
2.23009
2.09884
1.98931
1.89305
3.48626
2.81742
2.14595
2.00458
2.70951
2.61801
2.40276
2.33147
2.75467
3.08004
3.0071
2.87737
2.74085
2.61087
2.48156
2.35273
2.23425
2.09325
2.00167
1.96363
3.64543
2.86274
2.27146
2.54379
3.10816
2.8475
2.53994
2.33711
2.42345
2.85951
2.98107
2.86981
2.74353
2.61581
2.4858
2.35219
2.22485
2.08564
2.01783
2.08323
3.77599
2.90697
2.49114
3.19831
3.36883
3.05253
2.69018
2.38434
2.27227
2.51122
2.85782
2.85034
2.75196
2.63101
2.50781
2.37066
2.21544
2.10214
2.05556
2.23226
3.89312
3.01372
2.91667
3.85635
3.59001
3.19865
2.82018
2.47224
2.25373
2.24691
2.57314
2.77243
2.71723
2.6072
2.47657
2.32816
2.19985
2.12403
2.14627
2.40581
3.80697
3.19811
3.61635
4.36354
3.8085
3.31698
2.92258
2.57661
2.26966
2.13676
2.26014
2.61766
2.67264
2.5781
2.44737
2.29802
2.20666
2.1795
2.33308
2.59406
3.40991
3.37246
4.42993
4.67717
3.97895
3.41724
3.00448
2.66199
2.33191
2.12492
2.0627
2.33625
2.58225
2.52273
2.40187
2.28557
2.23879
2.31
2.57741
2.70669
2.66876
3.7097
5.16186
4.84556
4.11594
3.52233
3.0833
2.73652
2.41563
2.1268
1.99674
2.08153
2.37975
2.44983
2.36187
2.28792
2.31731
2.54341
2.82928
2.79022
2.24222
4.141
5.66061
4.97232
4.22744
3.62418
3.16118
2.79834
2.48242
2.1736
1.97987
1.9248
2.09685
2.33947
2.31133
2.33684
2.52435
2.78286
2.93418
2.85473
2.00671
4.62724
6.27394
5.14684
4.34335
3.72583
3.23928
2.85245
2.5369
2.2415
1.97888
1.84232
1.86309
2.11626
2.26673
2.47316
2.81753
3.00833
2.99842
2.89457
1.81937
5.11568
6.76007
5.30318
4.43237
3.805
3.30039
2.88985
2.56784
2.28821
2.01129
1.7896
1.7274
1.90012
2.27278
2.67899
2.98995
3.07357
3.03486
2.91657
1.63507
5.54106
7.07957
5.43321
4.47273
3.83628
3.32747
2.90453
2.57736
2.31312
2.05043
1.74949
1.65517
1.75579
2.275
2.92324
3.17009
3.13218
3.05282
2.90911
)
;

boundaryField
{
    inlet
    {
        type            calculated;
        value           uniform 1.39997;
    }
    outlet
    {
        type            calculated;
        value           nonuniform List<scalar> 
20
(
1.60294
1.60986
1.62975
1.66717
1.71336
1.7623
1.80575
1.8483
1.89347
1.96436
2.08419
2.2333
2.40669
2.59456
2.70677
2.79032
2.85486
2.89459
2.91662
2.90912
)
;
    }
    top
    {
        type            symmetryPlane;
    }
    bottom
    {
        type            symmetryPlane;
    }
    step
    {
        type            calculated;
        value           nonuniform List<scalar> 
40
(
5.8274
5.89547
5.80845
5.89384
6.07718
6.07557
5.97093
5.72824
5.551
5.52218
5.70792
6.10659
6.15009
5.99339
5.45562
5.08326
4.87634
4.74099
5.29674
5.76084
1.09795
0.580212
0.74327
0.961757
0.999419
1.62236
2.53668
2.72367
2.70327
2.66664
2.58668
2.48727
2.36847
2.26299
2.14949
2.0405
1.92956
1.82629
1.74012
1.6027
)
;
    }
    defaultFaces
    {
        type            empty;
    }
}


// ************************************************************************* //
