/*--------------------------------*- C++ -*----------------------------------*\
  =========                 |
  \\      /  F ield         | OpenFOAM: The Open Source CFD Toolbox
   \\    /   O peration     | Website:  https://openfoam.org
    \\  /    A nd           | Version:  6.0
     \\/     M anipulation  |
\*---------------------------------------------------------------------------*/
FoamFile
{
    version     2.0;
    format      ascii;
    class       volScalarField;
    location    "3.99920404";
    object      T;
}
// * * * * * * * * * * * * * * * * * * * * * * * * * * * * * * * * * * * * * //

dimensions      [0 0 0 1 0 0 0];

internalField   nonuniform List<scalar> 
1200
(
1
1
1
1
1
1
1
1
1
1
2.19746
2.71706
2.75001
2.76739
2.76707
2.75373
2.77057
2.8206
2.83068
2.80428
1
1
1
1
1
1
1
1
1
1
2.19163
2.71689
2.73991
2.76253
2.77414
2.77822
2.79715
2.81186
2.81517
2.81695
1
1
1
1
1
1
1
1
1
1
2.18499
2.72089
2.72817
2.74156
2.76749
2.80831
2.81848
2.8006
2.79021
2.79974
1
1
1
1
1
1
1
1
1
1
2.17617
2.71923
2.7203
2.72503
2.77094
2.82174
2.82194
2.79019
2.78096
2.81561
1
1
1
1
1
1
1
1
1
1
2.16086
2.71341
2.72158
2.74396
2.77413
2.7967
2.80045
2.78822
2.79556
2.84984
1
1
1
1
1
1
1
1
1
1
2.14433
2.70287
2.73763
2.7661
2.7685
2.76045
2.76217
2.7785
2.82176
2.84841
1
1
1
1
1
1
1
1
1
1
2.13129
2.70237
2.75484
2.7673
2.76059
2.73587
2.73662
2.7851
2.83508
2.82761
1
1
1
1
1
1
1
1
1
1
2.11965
2.71272
2.7489
2.75971
2.74434
2.72612
2.75331
2.81827
2.81958
2.78029
1
1
1
1
1
1
1
1
1
1
2.09429
2.71254
2.72425
2.73108
2.74044
2.75133
2.80512
2.82286
2.78669
2.74435
1
1
1
1
1
1
1
1
1
1
2.05238
2.69972
2.7019
2.69431
2.72634
2.7966
2.81481
2.80672
2.76029
2.73703
1
1
1
1
1
1
1
1
1
1
1.99956
2.67188
2.68576
2.70312
2.76664
2.80337
2.80157
2.74777
2.74611
2.77101
1
1
1
1
1
1
1
1
1
1
1.94681
2.64523
2.71066
2.76043
2.77333
2.77566
2.74223
2.71431
2.74458
2.84675
1
1
1
1
1
1
1
1
1
1
1.91458
2.63498
2.74228
2.76918
2.7714
2.73205
2.70124
2.6927
2.76273
2.85225
1
1
1
1
1
1
1
1
1
1
1.90605
2.66102
2.73414
2.75098
2.72485
2.69403
2.69511
2.72136
2.79701
2.8174
1
1
1
1
1
1
1
1
1
1
1.85009
2.64709
2.7125
2.69028
2.68486
2.69333
2.73874
2.81216
2.78297
2.71204
1
1
1
1
1
1
1
1
1
1
1.76564
2.60687
2.67208
2.65817
2.66478
2.70497
2.80283
2.81226
2.74948
2.63147
1
1
1
1
1
1
1
1
1
1
1.64821
2.53818
2.63903
2.66003
2.71259
2.77814
2.78068
2.78877
2.67043
2.58347
1
1
1
1
1
1
1
1
1
1
1.55139
2.48639
2.61756
2.69166
2.76046
2.77567
2.75895
2.67017
2.62569
2.54345
1
1
1
1
1
1
1
1
1
1
1.48565
2.46546
2.68481
2.73073
2.74464
2.74559
2.65693
2.60041
2.61113
2.66276
1
1
1
1
1
1
1
1
1
1
1.39128
2.48973
2.71387
2.71091
2.70844
2.64946
2.60781
2.58178
2.67107
2.77803
1
1
1
1
1
1
1
1
1
1
1.07162
2.3352
2.65424
2.64494
2.64521
2.66087
2.68397
2.68679
2.64456
2.58489
1
1
1
1
1
1
1
1
1
1
1.00057
2.05975
2.57476
2.61508
2.63498
2.63813
2.62824
2.59736
2.52748
2.4147
1
1
1
1
1
1
1
1
1
1
0.999999
1.56613
2.44006
2.58223
2.58063
2.57272
2.55373
2.521
2.46234
2.36461
1
1
1
1
1
1
1
1
1
1
1
1.0649
2.18133
2.53093
2.52549
2.52245
2.50389
2.47407
2.40992
2.32598
1
1
1
1
1
1
1
1
1
1
1
1.00054
1.6265
2.37714
2.48626
2.4732
2.45311
2.42355
2.37078
2.30344
1
1
1
1
1
1
1
1
1
1
1
1
1.07377
2.08792
2.43861
2.42675
2.40825
2.38093
2.33738
2.2822
1
1
1
1
1
1
1
1
1
1
1
1
1.00073
1.37958
2.2111
2.38329
2.35832
2.33586
2.29868
2.2547
1
1
1
1
1
1
1
1
1
1
1
1
1
1.0225
1.81529
2.29465
2.31224
2.29138
2.26118
2.2268
1
1
1
1
1
1
1
1
1
1
1
1
1
1.00009
1.1719
1.9866
2.27559
2.25424
2.22887
2.20041
1
1
1
1
1
1
1
1
1
1
1
1
1
1
1.00405
1.34489
2.03939
2.22078
2.19485
2.16829
1
1
1
1
1
1
1
1
1
1
1
1
1
1
1.00001
1.01883
1.48767
2.04405
2.17013
2.14112
1
1
1
1
1
1
1
1
1
1
1
1
1
1
1
1.00012
1.04725
1.57705
2.02336
2.1199
1
1
1
1
1
1
1
1
1
1
1
1
1
1
1
1
1.0005
1.08089
1.60582
2.02207
1
1
1
1
1
1
1
1
1
1
1
1
1
1
1
1
1
1.00129
1.10347
1.70969
1
1
1
1
1
1
1
1
1
1
1
1
1
1
1
1
1
1
1.00193
1.17026
1
1
1
1
1
1
1
1
1
1
1
1
1
1
1
1
1
1
1.00001
1.00456
1
1
1
1
1
1
1
1
1
1
1
1
1
1
1
1
1
1
1
1
1
1
1
1
1
1
1
1
1
1
1
1
1
1
1
1
1
1
1
1
1
1
1
1
1
1
1
1
1
1
1
1
1
1
1
1
1
1
1
1
1
1
1
1
1
1
1
1
1
1
1
1
1
1
1
1
1
1
1
1
1.72466
1.52665
1.67162
1.82383
1.82112
2.39248
2.89983
2.84314
2.7476
2.66506
2.58956
2.52448
2.45817
2.40211
2.34439
2.2899
2.23536
2.1841
2.1389
2.05988
2.03986
1.64129
1.65068
1.69737
1.71686
2.28121
2.84778
2.79069
2.69085
2.61225
2.54207
2.48232
2.42392
2.37485
2.31963
2.26718
2.21549
2.16841
2.12614
2.05114
2.03094
1.67621
1.58842
1.55664
1.58461
2.08406
2.68899
2.65025
2.56719
2.50567
2.44672
2.39418
2.35129
2.3054
2.2577
2.21283
2.16732
2.125
2.08677
2.02079
2.04154
1.74655
1.59077
1.48833
1.49712
1.84786
2.52256
2.50149
2.42566
2.37618
2.32909
2.28539
2.24687
2.20764
2.16852
2.13195
2.09456
2.0597
2.02575
1.96833
2.06336
1.80647
1.61782
1.46542
1.4716
1.74745
2.35039
2.42433
2.34164
2.28715
2.24194
2.20052
2.16231
2.1243
2.08646
2.05113
2.01642
1.98478
1.95271
1.90389
2.07859
1.86668
1.66934
1.50165
1.51026
1.7365
2.17024
2.34869
2.28632
2.2304
2.1858
2.14498
2.10397
2.06408
2.02519
1.98936
1.95469
1.92252
1.88852
1.84414
2.08478
1.91559
1.71316
1.54718
1.60594
1.81939
2.00455
2.25914
2.24551
2.19076
2.14519
2.10536
2.06387
2.02311
1.98331
1.9461
1.91086
1.87613
1.83971
1.79724
2.08838
1.94601
1.74705
1.58884
1.7709
1.90705
1.90175
2.11525
2.19422
2.15005
2.10697
2.06827
2.02846
1.98912
1.9503
1.91331
1.87734
1.84139
1.80386
1.76661
2.088
1.95711
1.7595
1.65278
1.93929
1.95483
1.88736
1.93757
2.09449
2.10535
2.06509
2.02993
1.99434
1.95826
1.92117
1.88458
1.84989
1.81157
1.7774
1.75206
2.0826
1.95027
1.76096
1.7679
2.03815
1.98362
1.88492
1.81825
1.95098
2.03588
2.01914
1.98862
1.95794
1.92621
1.89148
1.85535
1.82314
1.78261
1.75313
1.75407
2.07367
1.92974
1.78455
1.92435
2.09282
2.00264
1.88395
1.79456
1.81244
1.93416
1.97082
1.94891
1.9236
1.89467
1.86214
1.8269
1.79327
1.75399
1.73875
1.76961
2.0561
1.90057
1.83095
2.10395
2.10839
2.01217
1.89097
1.78874
1.73615
1.80747
1.90299
1.91771
1.8957
1.86854
1.83984
1.80573
1.7643
1.73404
1.73274
1.8006
2.02513
1.89236
1.90893
2.20586
2.12671
2.01288
1.90005
1.79052
1.71729
1.70598
1.80559
1.871
1.86026
1.8355
1.80425
1.76734
1.73264
1.72293
1.73758
1.83588
1.9782
1.8978
2.041
2.25802
2.13859
2.01657
1.90833
1.80348
1.70979
1.65626
1.69462
1.80404
1.82927
1.806
1.77374
1.73659
1.71372
1.72015
1.77545
1.86055
1.88
1.91089
2.22438
2.29947
2.15538
2.02269
1.91226
1.81166
1.71158
1.63866
1.61217
1.7004
1.78248
1.77012
1.74139
1.71052
1.71163
1.73851
1.83002
1.86058
1.72619
1.99028
2.38208
2.32279
2.16819
2.02785
1.91298
1.81408
1.71591
1.62485
1.57478
1.60119
1.69929
1.7309
1.71084
1.69716
1.71471
1.78909
1.87311
1.85788
1.5487
2.10738
2.47347
2.33113
2.16717
2.0249
1.90701
1.80749
1.71416
1.62072
1.55554
1.53285
1.59332
1.6796
1.67974
1.69663
1.75716
1.83659
1.87149
1.84818
1.33086
2.14584
2.51824
2.31304
2.1501
2.01297
1.896
1.79635
1.70967
1.62332
1.54492
1.49563
1.50564
1.59673
1.64991
1.71671
1.81695
1.87133
1.86639
1.83492
1.15266
2.12999
2.50824
2.27852
2.12305
1.99759
1.88636
1.78793
1.70479
1.62658
1.54604
1.47277
1.45549
1.51633
1.63737
1.75441
1.84109
1.86447
1.85501
1.82436
1.06464
2.15709
2.51506
2.27198
2.11067
1.99026
1.88311
1.78515
1.70274
1.6306
1.55341
1.45828
1.42854
1.46428
1.6343
1.81077
1.87898
1.87034
1.85097
1.81614
)
;

boundaryField
{
    inlet
    {
        type            fixedValue;
        value           uniform 1;
    }
    outlet
    {
        type            inletOutlet;
        inletValue      uniform 1;
        value           nonuniform List<scalar> 
20
(
2.05958
2.05091
2.02074
1.96829
1.90384
1.84405
1.7971
1.76639
1.75167
1.75342
1.7688
1.79975
1.83521
1.8602
1.86053
1.85782
1.84809
1.8349
1.82433
1.81613
)
;
    }
    top
    {
        type            symmetryPlane;
    }
    bottom
    {
        type            symmetryPlane;
    }
    step
    {
        type            zeroGradient;
    }
    defaultFaces
    {
        type            empty;
    }
}


// ************************************************************************* //
