/*--------------------------------*- C++ -*----------------------------------*\
  =========                 |
  \\      /  F ield         | OpenFOAM: The Open Source CFD Toolbox
   \\    /   O peration     | Website:  https://openfoam.org
    \\  /    A nd           | Version:  6.0
     \\/     M anipulation  |
\*---------------------------------------------------------------------------*/
FoamFile
{
    version     2.0;
    format      ascii;
    class       volVectorField;
    location    "3.99920404";
    object      U;
}
// * * * * * * * * * * * * * * * * * * * * * * * * * * * * * * * * * * * * * //

dimensions      [0 1 -1 0 0 0 0];

internalField   nonuniform List<vector> 
1200
(
(3 5.93933e-18 0)
(3 4.26701e-16 0)
(3 4.86564e-16 0)
(3 -3.02814e-16 0)
(3 -3.25636e-16 0)
(3 -2.46348e-16 0)
(3 -1.78343e-16 0)
(3 3.73089e-16 0)
(3 2.36188e-16 0)
(3 -3.62696e-16 0)
(1.22473 0.0128733 0)
(0.714659 0.0175371 0)
(0.650594 0.00762046 0)
(0.580221 0.000158714 0)
(0.495156 0.00346845 0)
(0.396853 0.0236895 0)
(0.317986 0.0366532 0)
(0.262129 0.0281532 0)
(0.180417 0.00906241 0)
(0.0589345 0.00243841 0)
(3 1.16877e-16 0)
(3 3.9342e-16 0)
(3 5.0649e-16 0)
(3 -8.81015e-17 0)
(3 -1.07945e-15 0)
(3 -1.51707e-15 0)
(3 -3.46365e-16 0)
(3 6.39247e-16 0)
(3 -2.35982e-16 0)
(3 -3.5028e-16 0)
(1.23148 0.0426672 0)
(0.710001 0.0465117 0)
(0.641371 0.0358331 0)
(0.572198 0.0065444 0)
(0.494806 -0.00808484 0)
(0.419701 0.0124861 0)
(0.336186 0.0789067 0)
(0.253572 0.0993182 0)
(0.153722 0.04072 0)
(0.0552904 -0.0093309 0)
(3 1.01372e-16 0)
(3 6.2595e-16 0)
(3 8.01978e-16 0)
(3 1.1848e-16 0)
(3 -6.76508e-16 0)
(3 -4.35521e-16 0)
(3 5.67567e-16 0)
(3 2.76676e-16 0)
(3 3.82462e-16 0)
(3 6.18379e-16 0)
(1.24784 0.0572774 0)
(0.711091 0.0555374 0)
(0.631399 0.0543023 0)
(0.55646 0.0325092 0)
(0.487943 0.0192192 0)
(0.43007 0.0583874 0)
(0.345597 0.102008 0)
(0.237078 0.110537 0)
(0.123332 0.0754525 0)
(0.0493628 0.0424498 0)
(3 1.38553e-16 0)
(3 5.4397e-16 0)
(3 7.04503e-16 0)
(3 7.61842e-16 0)
(3 8.61165e-16 0)
(3 7.85854e-16 0)
(3 1.81255e-16 0)
(3 -2.68036e-16 0)
(3 1.38338e-15 0)
(3 2.06751e-16 0)
(1.26464 0.0679622 0)
(0.712819 0.0583965 0)
(0.62941 0.0628987 0)
(0.55533 0.0737617 0)
(0.50019 0.0899126 0)
(0.436702 0.09662 0)
(0.348999 0.0941714 0)
(0.235922 0.0927415 0)
(0.11814 0.107731 0)
(0.0508162 0.130913 0)
(3 4.64709e-17 0)
(3 1.47077e-16 0)
(3 7.37606e-16 0)
(3 1.30899e-15 0)
(3 1.79681e-15 0)
(3 1.23919e-15 0)
(3 -1.73565e-16 0)
(3 -4.88787e-16 0)
(3 1.20148e-15 0)
(3 4.99767e-16 0)
(1.28527 0.0775743 0)
(0.710877 0.0605912 0)
(0.636958 0.0744194 0)
(0.567662 0.121297 0)
(0.498113 0.161703 0)
(0.428742 0.14716 0)
(0.339437 0.103242 0)
(0.237561 0.0840766 0)
(0.13932 0.132686 0)
(0.0586543 0.209245 0)
(3 -2.79616e-16 0)
(3 -2.14881e-16 0)
(3 5.17385e-16 0)
(3 8.13151e-16 0)
(3 1.74183e-15 0)
(3 1.43341e-15 0)
(3 2.54425e-16 0)
(3 2.92715e-16 0)
(3 5.57915e-16 0)
(3 6.6067e-16 0)
(1.30413 0.0946545 0)
(0.710343 0.0736788 0)
(0.648296 0.113088 0)
(0.579971 0.155965 0)
(0.499035 0.176758 0)
(0.414151 0.171416 0)
(0.319593 0.117093 0)
(0.240024 0.109252 0)
(0.170212 0.196216 0)
(0.0635422 0.244883 0)
(3 5.17668e-18 0)
(3 -4.41347e-17 0)
(3 2.10525e-17 0)
(3 4.75649e-16 0)
(3 9.92078e-16 0)
(3 9.06669e-16 0)
(3 1.65283e-16 0)
(3 3.70577e-16 0)
(3 4.01347e-16 0)
(3 9.34851e-16 0)
(1.32705 0.128044 0)
(0.724174 0.108834 0)
(0.656275 0.147252 0)
(0.58445 0.160091 0)
(0.503465 0.164769 0)
(0.405266 0.148562 0)
(0.306629 0.158448 0)
(0.257074 0.192133 0)
(0.18582 0.240609 0)
(0.0683072 0.236026 0)
(3 1.6853e-17 0)
(3 1.53172e-17 0)
(3 -4.27719e-16 0)
(3 2.88857e-16 0)
(3 9.15632e-17 0)
(3 2.49219e-16 0)
(3 7.32414e-16 0)
(3 3.42685e-16 0)
(3 4.1423e-16 0)
(3 1.57699e-16 0)
(1.36294 0.169515 0)
(0.734512 0.159731 0)
(0.656804 0.16486 0)
(0.584397 0.14837 0)
(0.500821 0.138806 0)
(0.409851 0.15359 0)
(0.329297 0.211581 0)
(0.267926 0.288423 0)
(0.182276 0.284526 0)
(0.0606837 0.221394 0)
(3 1.2956e-16 0)
(3 -4.63048e-16 0)
(3 -2.04916e-16 0)
(3 6.24824e-16 0)
(3 -1.06131e-17 0)
(3 1.1668e-16 0)
(3 1.52394e-15 0)
(3 1.42624e-15 0)
(3 2.30904e-16 0)
(3 -1.40071e-15 0)
(1.41937 0.195721 0)
(0.739459 0.188999 0)
(0.65007 0.186236 0)
(0.575571 0.153872 0)
(0.49845 0.132335 0)
(0.43249 0.164015 0)
(0.36394 0.293368 0)
(0.262673 0.343703 0)
(0.154985 0.295978 0)
(0.053556 0.220127 0)
(3 9.69128e-17 0)
(3 -9.68018e-17 0)
(3 -2.83435e-17 0)
(3 -4.49672e-16 0)
(3 4.72238e-17 0)
(3 5.0103e-16 0)
(3 6.06158e-16 0)
(3 8.49463e-17 0)
(3 -5.46883e-16 0)
(3 -1.35589e-15 0)
(1.49007 0.197175 0)
(0.744477 0.191651 0)
(0.64339 0.175488 0)
(0.563539 0.177331 0)
(0.500963 0.191075 0)
(0.457771 0.272816 0)
(0.385954 0.310193 0)
(0.270134 0.335027 0)
(0.119806 0.288811 0)
(0.054074 0.253456 0)
(3 2.59842e-20 0)
(3 7.5021e-17 0)
(3 -3.96395e-16 0)
(3 -8.70672e-16 0)
(3 2.15644e-16 0)
(3 7.92815e-16 0)
(3 6.21635e-17 0)
(3 -3.18862e-16 0)
(3 3.8209e-17 0)
(3 2.06151e-16 0)
(1.56137 0.196204 0)
(0.742725 0.175418 0)
(0.642221 0.183384 0)
(0.581609 0.219451 0)
(0.526877 0.303063 0)
(0.46036 0.335855 0)
(0.387402 0.323171 0)
(0.26212 0.277239 0)
(0.10893 0.303434 0)
(0.0603084 0.339448 0)
(3 2.45394e-18 0)
(3 3.93573e-16 0)
(3 3.7685e-16 0)
(3 1.17088e-16 0)
(3 -2.46936e-16 0)
(3 2.14037e-16 0)
(3 -2.60706e-16 0)
(3 1.2043e-16 0)
(3 -6.79238e-17 0)
(3 6.59774e-17 0)
(1.62742 0.193408 0)
(0.732514 0.176045 0)
(0.661259 0.212473 0)
(0.60521 0.300303 0)
(0.533492 0.348958 0)
(0.457231 0.357315 0)
(0.36676 0.308722 0)
(0.26066 0.26467 0)
(0.148439 0.339935 0)
(0.0802594 0.488834 0)
(3 2.10926e-17 0)
(3 1.4818e-17 0)
(3 5.28283e-16 0)
(3 1.20698e-15 0)
(3 -2.82711e-16 0)
(3 -1.2941e-15 0)
(3 -1.27165e-15 0)
(3 -3.46739e-16 0)
(3 -5.48764e-17 0)
(3 -1.09909e-15 0)
(1.67808 0.232388 0)
(0.758879 0.217897 0)
(0.677776 0.293469 0)
(0.611607 0.317475 0)
(0.548516 0.327923 0)
(0.456984 0.311983 0)
(0.346167 0.289251 0)
(0.26628 0.314571 0)
(0.208458 0.447633 0)
(0.0975695 0.558532 0)
(3 2.92195e-16 0)
(3 2.31795e-16 0)
(3 -1.24744e-16 0)
(3 5.46907e-16 0)
(3 3.60895e-16 0)
(3 -1.14172e-15 0)
(3 -1.69259e-15 0)
(3 -7.20644e-16 0)
(3 6.03e-17 0)
(3 -8.58394e-16 0)
(1.7556 0.301436 0)
(0.789843 0.300278 0)
(0.678318 0.339885 0)
(0.613302 0.333013 0)
(0.538024 0.288944 0)
(0.447327 0.274293 0)
(0.352807 0.304232 0)
(0.305883 0.399893 0)
(0.247799 0.546454 0)
(0.108631 0.577266 0)
(3 2.65885e-17 0)
(3 -3.50205e-17 0)
(3 3.59991e-16 0)
(3 -3.05541e-16 0)
(3 -2.44721e-17 0)
(3 -6.48454e-16 0)
(3 -7.60221e-16 0)
(3 -1.1135e-15 0)
(3 2.76897e-16 0)
(3 -9.84107e-16 0)
(1.87717 0.323164 0)
(0.817582 0.342495 0)
(0.680099 0.348869 0)
(0.602593 0.3038 0)
(0.52499 0.268132 0)
(0.456423 0.282105 0)
(0.398898 0.411455 0)
(0.330962 0.563168 0)
(0.255337 0.587871 0)
(0.102495 0.507742 0)
(3 1.33252e-16 0)
(3 -1.2546e-16 0)
(3 -2.21633e-16 0)
(3 -8.531e-16 0)
(3 -1.00942e-15 0)
(3 -1.00884e-16 0)
(3 -3.98691e-16 0)
(3 -1.10576e-15 0)
(3 3.03162e-16 0)
(3 -6.05876e-16 0)
(2.0229 0.308509 0)
(0.834776 0.339153 0)
(0.671204 0.287269 0)
(0.596468 0.278153 0)
(0.528359 0.303174 0)
(0.494824 0.376693 0)
(0.455663 0.531445 0)
(0.345518 0.607116 0)
(0.243871 0.599655 0)
(0.086488 0.464279 0)
(3 2.03228e-16 0)
(3 2.07662e-16 0)
(3 -8.26141e-16 0)
(3 -1.04122e-15 0)
(3 -3.57765e-16 0)
(3 3.87569e-16 0)
(3 1.30018e-16 0)
(3 -1.43348e-15 0)
(3 -8.81319e-16 0)
(3 -2.40363e-16 0)
(2.17862 0.283053 0)
(0.835733 0.332947 0)
(0.664544 0.263572 0)
(0.611018 0.264823 0)
(0.570189 0.374397 0)
(0.528608 0.509786 0)
(0.475255 0.569401 0)
(0.359972 0.635644 0)
(0.190077 0.563906 0)
(0.0857769 0.479874 0)
(3 -1.98013e-16 0)
(3 1.39971e-18 0)
(3 -3.10168e-16 0)
(3 -9.57233e-16 0)
(3 -3.27835e-16 0)
(3 -2.66118e-17 0)
(3 -7.30912e-17 0)
(3 -3.03924e-16 0)
(3 -6.47409e-16 0)
(3 -4.56562e-16 0)
(2.33073 0.278311 0)
(0.840525 0.31895 0)
(0.673452 0.298386 0)
(0.654445 0.390662 0)
(0.614138 0.47262 0)
(0.548597 0.523736 0)
(0.506117 0.557309 0)
(0.358308 0.529462 0)
(0.165034 0.565832 0)
(0.0910009 0.557185 0)
(3 -5.82976e-16 0)
(3 -1.16625e-15 0)
(3 -6.19343e-16 0)
(3 -2.95259e-16 0)
(3 -5.88837e-16 0)
(3 -1.3253e-15 0)
(3 -6.52338e-16 0)
(3 -3.72396e-16 0)
(3 -7.9915e-16 0)
(3 -8.63946e-16 0)
(2.48316 0.310686 0)
(0.876069 0.366888 0)
(0.739755 0.422447 0)
(0.711399 0.478181 0)
(0.64628 0.51291 0)
(0.577854 0.54044 0)
(0.496783 0.455786 0)
(0.39551 0.463299 0)
(0.221648 0.655517 0)
(0.123515 0.850439 0)
(3 -4.70095e-16 0)
(3 -1.36163e-15 0)
(3 -3.82412e-16 0)
(3 -5.34056e-16 0)
(3 -9.2332e-16 0)
(3 -1.35462e-15 0)
(3 -1.06258e-15 0)
(3 -6.74454e-16 0)
(3 -4.35772e-16 0)
(3 -1.70538e-15 0)
(2.71749 0.316611 0)
(0.981554 0.483924 0)
(0.794863 0.466411 0)
(0.752179 0.490199 0)
(0.690529 0.45933 0)
(0.603092 0.403171 0)
(0.525384 0.426984 0)
(0.473441 0.512141 0)
(0.417593 0.800506 0)
(0.269999 1.21115 0)
(3 2.73526e-17 0)
(3 2.37039e-16 0)
(3 2.53794e-16 0)
(3 -5.68578e-18 0)
(3 -2.91892e-16 0)
(3 -4.80157e-16 0)
(3 -6.80128e-16 0)
(3 -7.5086e-16 0)
(3 -7.42902e-16 0)
(3 -8.32418e-16 0)
(3.0487 0.0515822 0)
(1.17708 0.477176 0)
(0.851675 0.440974 0)
(0.791598 0.440326 0)
(0.727907 0.454054 0)
(0.677253 0.498585 0)
(0.64931 0.59545 0)
(0.627658 0.731202 0)
(0.666468 0.903906 0)
(0.740095 1.15209 0)
(3 1.28637e-16 0)
(3 2.75289e-16 0)
(3 1.23836e-16 0)
(3 3.72801e-16 0)
(3 2.7614e-16 0)
(3 9.58612e-17 0)
(3 -6.13974e-17 0)
(3 -1.29073e-16 0)
(3 -9.44703e-17 0)
(3 -5.98294e-16 0)
(3.00374 0.000350955 0)
(1.54878 0.449016 0)
(0.87248 0.505726 0)
(0.819168 0.533251 0)
(0.7952 0.577723 0)
(0.770716 0.624415 0)
(0.762392 0.687883 0)
(0.759478 0.788608 0)
(0.860734 0.892892 0)
(1.09868 0.979888 0)
(3 -1.31066e-18 0)
(3 -2.89977e-16 0)
(3 -3.70875e-16 0)
(3 2.38335e-16 0)
(3 5.54365e-16 0)
(3 6.27249e-16 0)
(3 6.23375e-16 0)
(3 7.20842e-16 0)
(3 6.53313e-16 0)
(3 -1.23992e-17 0)
(3.00001 -4.2592e-07 0)
(2.38816 0.393454 0)
(1.01473 0.617484 0)
(0.88135 0.595662 0)
(0.859422 0.626263 0)
(0.849686 0.658038 0)
(0.861383 0.712407 0)
(0.902868 0.791123 0)
(1.02444 0.880645 0)
(1.23638 0.943176 0)
(3 -1.13528e-17 0)
(3 -4.90163e-17 0)
(3 2.80088e-16 0)
(3 2.44544e-16 0)
(3 1.93349e-16 0)
(3 1.64116e-16 0)
(3 3.76381e-16 0)
(3 7.89312e-16 0)
(3 5.921e-16 0)
(3 8.38539e-16 0)
(3 -5.11949e-07 0)
(3.05665 0.0494176 0)
(1.44994 0.650658 0)
(0.995762 0.646106 0)
(0.956516 0.653234 0)
(0.949616 0.689619 0)
(0.968649 0.739847 0)
(1.02413 0.797027 0)
(1.13377 0.851303 0)
(1.31083 0.892574 0)
(3 2.62659e-17 0)
(3 2.25934e-16 0)
(3 5.25012e-17 0)
(3 -3.91825e-16 0)
(3 -8.90201e-17 0)
(3 1.2394e-16 0)
(3 1.58878e-16 0)
(3 4.49537e-17 0)
(3 2.52615e-17 0)
(3 8.09986e-16 0)
(3 -6.15198e-08 0)
(3.00412 0.000696783 0)
(2.31954 0.485421 0)
(1.14667 0.73701 0)
(1.0341 0.74362 0)
(1.04527 0.743025 0)
(1.06252 0.764662 0)
(1.11631 0.797839 0)
(1.21117 0.829601 0)
(1.35709 0.853293 0)
(3 3.4062e-17 0)
(3 5.63019e-17 0)
(3 -3.48596e-16 0)
(3 -2.14053e-16 0)
(3 1.37396e-17 0)
(3 4.32141e-16 0)
(3 1.59051e-16 0)
(3 -1.11254e-16 0)
(3 -9.05356e-17 0)
(3 5.01951e-16 0)
(3 -2.88972e-09 0)
(3.00001 1.11806e-06 0)
(3.03644 0.0526251 0)
(1.61102 0.740956 0)
(1.12749 0.780102 0)
(1.14338 0.772626 0)
(1.15714 0.789014 0)
(1.20433 0.805559 0)
(1.27932 0.820808 0)
(1.39563 0.83161 0)
(3 -1.11869e-16 0)
(3 6.09951e-17 0)
(3 8.39975e-17 0)
(3 1.85126e-16 0)
(3 1.30185e-16 0)
(3 3.47189e-16 0)
(3 5.06287e-16 0)
(3 5.35411e-16 0)
(3 2.19059e-16 0)
(3 3.432e-17 0)
(3 -7.72724e-12 0)
(3 -2.12536e-07 0)
(3.0029 0.00141955 0)
(2.74661 0.371439 0)
(1.37291 0.833217 0)
(1.20981 0.815026 0)
(1.25296 0.815949 0)
(1.28983 0.822929 0)
(1.34658 0.829818 0)
(1.43566 0.829077 0)
(3 6.38659e-19 0)
(3 5.02716e-17 0)
(3 3.62111e-16 0)
(3 4.12679e-16 0)
(3 2.63237e-16 0)
(3 5.71129e-16 0)
(3 8.02804e-16 0)
(3 8.98528e-16 0)
(3 7.03942e-17 0)
(3 -5.04432e-16 0)
(3 -5.81969e-15 0)
(3 -3.20538e-08 0)
(3 4.23105e-06 0)
(3.0257 0.0157856 0)
(2.04189 0.680799 0)
(1.30793 0.854701 0)
(1.30473 0.858222 0)
(1.3517 0.85757 0)
(1.40164 0.85741 0)
(1.47229 0.845104 0)
(3 1.11083e-16 0)
(3 -1.55234e-16 0)
(3 6.87102e-17 0)
(3 4.39922e-16 0)
(3 3.98102e-16 0)
(3 3.23273e-16 0)
(3 5.0606e-16 0)
(3 3.28213e-16 0)
(3 2.18854e-16 0)
(3 -1.54691e-16 0)
(3 -3.7928e-16 0)
(3 -1.42765e-09 0)
(3 -9.47324e-10 0)
(3.00033 0.000305594 0)
(2.94148 0.149223 0)
(1.76911 0.80155 0)
(1.37027 0.882911 0)
(1.41449 0.87533 0)
(1.45738 0.86878 0)
(1.5153 0.853503 0)
(3 -1.11887e-17 0)
(3 8.8881e-18 0)
(3 -2.50724e-16 0)
(3 -1.34084e-16 0)
(3 -3.1291e-16 0)
(3 -2.72314e-16 0)
(3 2.7719e-17 0)
(3 -1.50069e-16 0)
(3 -3.82099e-16 0)
(3 -5.951e-16 0)
(3 6.91188e-16 0)
(3 -8.41401e-12 0)
(3 -2.33787e-10 0)
(3 2.09188e-07 0)
(3.00252 0.00661665 0)
(2.743 0.338091 0)
(1.67593 0.86839 0)
(1.44822 0.908365 0)
(1.49716 0.89539 0)
(1.55092 0.880363 0)
(3 -9.10532e-17 0)
(3 5.25513e-17 0)
(3 1.74397e-16 0)
(3 -9.44421e-17 0)
(3 -1.69761e-16 0)
(3 -4.60103e-16 0)
(3 -3.14661e-16 0)
(3 -7.31229e-16 0)
(3 -7.00603e-16 0)
(3 -4.87955e-16 0)
(3 1.26706e-16 0)
(3 -8.75234e-15 0)
(3 -1.48301e-11 0)
(3 7.00649e-12 0)
(3 3.60282e-05 0)
(3.00183 0.021936 0)
(2.52982 0.495348 0)
(1.66875 0.905266 0)
(1.5176 0.92241 0)
(1.57624 0.909546 0)
(3 7.7734e-17 0)
(3 3.31363e-16 0)
(3 3.45092e-16 0)
(3 -3.59066e-16 0)
(3 -5.14979e-16 0)
(3 -5.94736e-16 0)
(3 -1.01713e-15 0)
(3 -5.72892e-16 0)
(3 -1.56593e-16 0)
(3 -6.72448e-17 0)
(3 6.23409e-17 0)
(3 5.63898e-16 0)
(3 -3.05226e-13 0)
(3 -3.32698e-13 0)
(3 1.5017e-08 0)
(3.00001 0.000315057 0)
(2.98686 0.0497393 0)
(2.39518 0.591423 0)
(1.69438 0.931625 0)
(1.59639 0.930462 0)
(3 -4.26299e-17 0)
(3 -2.66833e-16 0)
(3 -6.12355e-16 0)
(3 -7.56584e-16 0)
(3 -6.86516e-16 0)
(3 -8.70165e-16 0)
(3 -9.60842e-16 0)
(3 -3.28655e-16 0)
(3 2.18078e-16 0)
(3 1.87602e-16 0)
(3 3.5342e-16 0)
(3 8.56789e-16 0)
(3 -4.10092e-16 0)
(3 -8.22306e-14 0)
(3 2.21243e-12 0)
(3 2.80465e-07 0)
(2.99995 0.00114315 0)
(2.95818 0.0863309 0)
(2.35567 0.648898 0)
(1.71971 0.923118 0)
(3 -5.35789e-17 0)
(3 -4.93865e-16 0)
(3 -5.45572e-16 0)
(3 -1.52362e-16 0)
(3 5.63188e-17 0)
(3 3.55241e-17 0)
(3 1.56581e-16 0)
(3 7.09441e-16 0)
(3 9.24889e-16 0)
(3 1.10754e-15 0)
(3 9.52678e-16 0)
(3 6.1772e-16 0)
(3 3.10045e-16 0)
(3 -6.15714e-15 0)
(3 -5.47118e-15 0)
(3 8.45871e-11 0)
(3 1.56216e-06 0)
(2.99944 0.00296196 0)
(2.95945 0.103217 0)
(2.2282 0.720263 0)
(3 -1.07283e-17 0)
(3 -3.7169e-16 0)
(3 -2.69886e-16 0)
(3 -1.60121e-16 0)
(3 1.50529e-17 0)
(3 1.06094e-15 0)
(3 1.00396e-15 0)
(3 2.99124e-16 0)
(3 3.70343e-16 0)
(3 5.37372e-16 0)
(3 3.12643e-16 0)
(3 5.55702e-16 0)
(3 4.05152e-16 0)
(3 9.74028e-16 0)
(3 -1.00173e-15 0)
(3 2.92133e-15 0)
(3 7.95169e-10 0)
(3 6.20912e-06 0)
(2.99959 0.00434245 0)
(2.95898 0.161713 0)
(3 -1.53412e-17 0)
(3 -8.02095e-17 0)
(3 -6.2328e-17 0)
(3 -7.57518e-17 0)
(3 1.64305e-16 0)
(3 4.20611e-16 0)
(3 8.82137e-17 0)
(3 -1.54809e-16 0)
(3 4.75343e-16 0)
(3 5.79432e-16 0)
(3 2.37524e-16 0)
(3 -3.34737e-16 0)
(3 -2.23326e-16 0)
(3 6.79759e-16 0)
(3 7.1393e-16 0)
(3 2.06799e-16 0)
(3 7.36723e-14 0)
(3 2.3977e-09 0)
(3 2.30854e-05 0)
(3.01451 0.00285291 0)
(3 4.70097e-17 0)
(3 5.76576e-16 0)
(3 6.79724e-16 0)
(3 1.11041e-15 0)
(3 1.16598e-15 0)
(3 -1.03196e-16 0)
(3 -3.57133e-16 0)
(3 1.12077e-16 0)
(3 -1.29938e-16 0)
(3 -6.89538e-17 0)
(3 1.04086e-16 0)
(3 -2.91527e-16 0)
(3 -4.03509e-16 0)
(3 8.55181e-17 0)
(3 4.93039e-16 0)
(3 -3.57702e-16 0)
(3 -1.04694e-15 0)
(3 1.50297e-13 0)
(3 2.36373e-08 0)
(3.00013 3.08778e-06 0)
(3 -9.11046e-17 0)
(3 -3.48271e-17 0)
(3 1.58075e-16 0)
(3 3.72243e-16 0)
(3 1.11502e-16 0)
(3 -3.32518e-17 0)
(3 2.02871e-16 0)
(3 -7.01036e-17 0)
(3 -3.04346e-16 0)
(3 -3.6243e-16 0)
(3 -4.54183e-16 0)
(3 -1.0998e-16 0)
(3 4.16427e-16 0)
(3 4.13786e-16 0)
(3 1.98833e-16 0)
(3 -6.71404e-16 0)
(3 -7.36257e-16 0)
(3 -5.25785e-16 0)
(3 1.05585e-11 0)
(3 -2.1485e-09 0)
(3 4.77166e-17 0)
(3 4.83424e-17 0)
(3 -5.21622e-17 0)
(3 -7.51686e-17 0)
(3 -5.57506e-17 0)
(3 -6.71841e-17 0)
(3 1.16308e-16 0)
(3 1.07163e-16 0)
(3 6.68592e-17 0)
(3 -2.20155e-16 0)
(3 -6.34983e-16 0)
(3 -7.59244e-16 0)
(3 -2.02869e-16 0)
(3 3.99905e-16 0)
(3 4.40761e-16 0)
(3 7.30623e-17 0)
(3 -2.74167e-16 0)
(3 -4.93132e-16 0)
(3 1.24758e-15 0)
(3 -2.27115e-09 0)
(3 2.37554e-16 0)
(3 2.48539e-16 0)
(3 1.8528e-16 0)
(3 2.70957e-16 0)
(3 1.24152e-16 0)
(3 -3.30032e-16 0)
(3 -3.88735e-16 0)
(3 1.05578e-16 0)
(3 3.10598e-16 0)
(3 1.74926e-16 0)
(3 -1.0499e-16 0)
(3 -6.32192e-16 0)
(3 1.35254e-16 0)
(3 6.97427e-16 0)
(3 3.22174e-16 0)
(3 -2.29167e-16 0)
(3 -6.95623e-16 0)
(3 -5.58591e-16 0)
(3 -2.46202e-16 0)
(3 -2.87088e-10 0)
(1.74625 1.01095 0)
(2.52587 0.236958 0)
(2.46243 -0.0545058 0)
(2.25404 -0.0803284 0)
(2.39504 -0.0243848 0)
(1.42189 0.0355742 0)
(0.745702 0.00314825 0)
(0.786707 -0.0295421 0)
(0.936281 -0.0387084 0)
(1.08916 -0.0407165 0)
(1.25071 -0.0361407 0)
(1.39888 -0.0267274 0)
(1.53881 -0.0136127 0)
(1.65904 -0.00421769 0)
(1.74765 5.64135e-05 0)
(1.82958 0.00293163 0)
(1.90393 0.00687059 0)
(1.96854 0.00991975 0)
(2.01811 0.0127217 0)
(2.09796 0.0138503 0)
(1.83932 0.5464 0)
(2.46594 0.00327913 0)
(2.50741 -0.276565 0)
(2.40455 -0.152368 0)
(2.40908 -0.0484523 0)
(1.5947 0.135776 0)
(0.86335 -0.00139471 0)
(0.906012 -0.0694331 0)
(1.05671 -0.0620585 0)
(1.19078 -0.0469684 0)
(1.32804 -0.0329969 0)
(1.45679 -0.020358 0)
(1.57848 0.000617663 0)
(1.6823 0.00265349 0)
(1.76888 0.0088883 0)
(1.84709 0.0166575 0)
(1.91931 0.0254368 0)
(1.98351 0.0232939 0)
(2.03512 0.0266747 0)
(2.11561 0.0329046 0)
(1.83181 0.656878 0)
(2.30178 0.356337 0)
(2.45553 -0.155054 0)
(2.53257 -0.130511 0)
(2.50463 -0.0789978 0)
(1.97595 0.114083 0)
(1.14234 -0.029892 0)
(1.15514 -0.0931701 0)
(1.28849 -0.0845624 0)
(1.39091 -0.0805701 0)
(1.48948 -0.0747738 0)
(1.58041 -0.0553014 0)
(1.66634 -0.0370038 0)
(1.74741 -0.0134561 0)
(1.82339 0.00507029 0)
(1.89033 0.0186996 0)
(1.9543 0.0349027 0)
(2.0113 0.0402656 0)
(2.06078 0.0489687 0)
(2.14109 0.0547475 0)
(1.79541 0.73046 0)
(2.24158 0.373796 0)
(2.4566 -0.114816 0)
(2.58597 -0.160022 0)
(2.5657 -0.145514 0)
(2.26164 -0.191955 0)
(1.42272 0.00720273 0)
(1.39565 -0.11216 0)
(1.50732 -0.11372 0)
(1.58236 -0.0872102 0)
(1.64929 -0.0552877 0)
(1.71082 -0.028217 0)
(1.76955 -0.00112202 0)
(1.8304 0.0139026 0)
(1.89198 0.0242879 0)
(1.94822 0.0312924 0)
(2.00358 0.043474 0)
(2.05351 0.0464958 0)
(2.10049 0.0620447 0)
(2.17571 0.0766407 0)
(1.76421 0.751204 0)
(2.16364 0.46259 0)
(2.40873 0.087461 0)
(2.5625 -0.0457627 0)
(2.54973 -0.114856 0)
(2.27477 -0.525409 0)
(1.57593 -0.149068 0)
(1.52495 -0.0762847 0)
(1.6343 -0.0862344 0)
(1.70327 -0.0783097 0)
(1.75656 -0.0610458 0)
(1.80509 -0.0367041 0)
(1.8537 -0.00813616 0)
(1.90405 0.0158921 0)
(1.95624 0.0368149 0)
(2.00562 0.0497255 0)
(2.05477 0.0666455 0)
(2.09963 0.0677045 0)
(2.1451 0.0862132 0)
(2.21481 0.0995794 0)
(1.72698 0.773619 0)
(2.086 0.526469 0)
(2.36546 0.206083 0)
(2.54903 0.0347273 0)
(2.51464 -0.17039 0)
(2.23322 -0.728194 0)
(1.78709 -0.324846 0)
(1.57162 -0.111764 0)
(1.69236 -0.0932933 0)
(1.76556 -0.0764879 0)
(1.81875 -0.043986 0)
(1.86368 -0.0113229 0)
(1.91004 0.0159133 0)
(1.95727 0.0396894 0)
(2.00653 0.0604177 0)
(2.05381 0.0735709 0)
(2.10078 0.0904236 0)
(2.14268 0.0933118 0)
(2.18758 0.118522 0)
(2.25288 0.124808 0)
(1.69985 0.789595 0)
(2.0357 0.551305 0)
(2.29477 0.347591 0)
(2.5168 0.0859004 0)
(2.47744 -0.137976 0)
(2.08849 -0.77923 0)
(1.97642 -0.583789 0)
(1.62056 -0.165698 0)
(1.74455 -0.0780746 0)
(1.81251 -0.0624261 0)
(1.86649 -0.0358127 0)
(1.91288 -0.00392586 0)
(1.9592 0.0262359 0)
(2.00485 0.0559682 0)
(2.0514 0.0820757 0)
(2.09687 0.0963875 0)
(2.14166 0.117131 0)
(2.18348 0.119132 0)
(2.22897 0.147995 0)
(2.28943 0.141997 0)
(1.68421 0.801935 0)
(1.98923 0.583399 0)
(2.23735 0.461084 0)
(2.46308 0.173793 0)
(2.32524 -0.217182 0)
(2.01052 -0.696782 0)
(2.0373 -0.709896 0)
(1.85233 -0.301323 0)
(1.80559 -0.103842 0)
(1.867 -0.0562343 0)
(1.91291 -0.0191736 0)
(1.95658 0.0197753 0)
(2.00162 0.0526386 0)
(2.04745 0.0811129 0)
(2.09297 0.106412 0)
(2.13592 0.122914 0)
(2.17881 0.143939 0)
(2.22081 0.154044 0)
(2.26042 0.184751 0)
(2.3168 0.163524 0)
(1.68576 0.806019 0)
(1.96311 0.609831 0)
(2.19797 0.563508 0)
(2.34884 0.232915 0)
(2.1274 -0.285122 0)
(1.99534 -0.654449 0)
(2.04848 -0.696084 0)
(2.05117 -0.496933 0)
(1.90216 -0.159842 0)
(1.91945 -0.0382643 0)
(1.96324 -0.00460117 0)
(2.00437 0.0341085 0)
(2.04766 0.0712602 0)
(2.09086 0.103167 0)
(2.13294 0.131962 0)
(2.17381 0.148229 0)
(2.2129 0.173834 0)
(2.26094 0.182197 0)
(2.28246 0.217138 0)
(2.34129 0.163741 0)
(1.6932 0.82245 0)
(1.95018 0.654482 0)
(2.15671 0.662316 0)
(2.16285 0.207271 0)
(1.984 -0.342032 0)
(1.98649 -0.58905 0)
(2.05449 -0.633642 0)
(2.12281 -0.591215 0)
(2.05879 -0.299851 0)
(1.98567 -0.0610912 0)
(2.01426 0.0188239 0)
(2.04622 0.0561101 0)
(2.08711 0.0943909 0)
(2.12821 0.12661 0)
(2.1689 0.1562 0)
(2.20823 0.174474 0)
(2.24774 0.196161 0)
(2.29758 0.217919 0)
(2.30262 0.234475 0)
(2.3486 0.171858 0)
(1.70639 0.840668 0)
(1.95524 0.720289 0)
(2.14096 0.684272 0)
(2.00238 0.112277 0)
(1.90916 -0.349378 0)
(1.96951 -0.501557 0)
(2.07187 -0.579888 0)
(2.17209 -0.579584 0)
(2.17661 -0.42981 0)
(2.09731 -0.137783 0)
(2.06738 0.0214393 0)
(2.08833 0.0734686 0)
(2.12178 0.112714 0)
(2.15842 0.148059 0)
(2.19588 0.18337 0)
(2.23379 0.205554 0)
(2.27355 0.227373 0)
(2.32455 0.251957 0)
(2.33363 0.242131 0)
(2.33067 0.132495 0)
(1.73396 0.858068 0)
(1.9349 0.804575 0)
(2.09005 0.650923 0)
(1.88874 0.0120658 0)
(1.87415 -0.361489 0)
(1.96346 -0.436414 0)
(2.08324 -0.496982 0)
(2.18664 -0.556186 0)
(2.24709 -0.49052 0)
(2.2064 -0.261888 0)
(2.12429 -0.012188 0)
(2.13401 0.0939869 0)
(2.14585 0.1359 0)
(2.17743 0.172855 0)
(2.21358 0.20892 0)
(2.25596 0.230599 0)
(2.29869 0.265096 0)
(2.32102 0.281244 0)
(2.3425 0.23848 0)
(2.30232 0.0832746 0)
(1.75029 0.905272 0)
(1.93667 0.872303 0)
(1.99051 0.527722 0)
(1.80458 -0.0588832 0)
(1.85665 -0.309597 0)
(1.962 -0.374574 0)
(2.08191 -0.425485 0)
(2.1879 -0.472956 0)
(2.25732 -0.477258 0)
(2.27636 -0.350907 0)
(2.22086 -0.0962837 0)
(2.16895 0.103685 0)
(2.16468 0.169039 0)
(2.18387 0.20443 0)
(2.21837 0.239611 0)
(2.26122 0.264813 0)
(2.29614 0.296871 0)
(2.3219 0.280982 0)
(2.31892 0.215769 0)
(2.25532 0.00520328 0)
(1.78336 0.921865 0)
(1.92731 0.887463 0)
(1.86488 0.399529 0)
(1.71005 -0.0937784 0)
(1.8264 -0.257956 0)
(1.95891 -0.323581 0)
(2.07722 -0.360533 0)
(2.18619 -0.404934 0)
(2.27959 -0.43953 0)
(2.32959 -0.386644 0)
(2.30113 -0.197795 0)
(2.24279 0.0456556 0)
(2.21543 0.183095 0)
(2.2212 0.228835 0)
(2.24976 0.270622 0)
(2.28428 0.299972 0)
(2.2973 0.313373 0)
(2.31455 0.27109 0)
(2.28622 0.155982 0)
(2.22711 -0.0258447 0)
(1.89373 0.923266 0)
(1.91543 0.867768 0)
(1.63501 0.241807 0)
(1.63118 -0.0897804 0)
(1.79271 -0.201892 0)
(1.94417 -0.264828 0)
(2.06921 -0.301475 0)
(2.17379 -0.326379 0)
(2.2808 -0.359153 0)
(2.32962 -0.365831 0)
(2.3843 -0.259459 0)
(2.33292 -0.0357072 0)
(2.27415 0.175733 0)
(2.2633 0.263709 0)
(2.27411 0.306761 0)
(2.29227 0.335839 0)
(2.30379 0.305467 0)
(2.28921 0.229308 0)
(2.22789 0.0386518 0)
(2.20562 -0.0828862 0)
(2.00165 1.04528 0)
(1.89513 0.755499 0)
(1.41437 0.143504 0)
(1.57288 -0.0807248 0)
(1.76338 -0.152395 0)
(1.93463 -0.210886 0)
(2.06978 -0.247198 0)
(2.18148 -0.267665 0)
(2.29056 -0.293934 0)
(2.37081 -0.319694 0)
(2.44523 -0.271654 0)
(2.42307 -0.132309 0)
(2.35514 0.13099 0)
(2.31084 0.295011 0)
(2.30407 0.348947 0)
(2.31004 0.352418 0)
(2.29973 0.297938 0)
(2.25479 0.151106 0)
(2.21963 0.0170575 0)
(2.22281 -0.0547963 0)
(2.24715 0.966748 0)
(1.73817 0.557636 0)
(1.27056 0.0898714 0)
(1.53594 -0.0761249 0)
(1.7546 -0.119503 0)
(1.93885 -0.163673 0)
(2.08316 -0.195424 0)
(2.19926 -0.210845 0)
(2.29869 -0.216999 0)
(2.40227 -0.247475 0)
(2.45956 -0.260843 0)
(2.49148 -0.166528 0)
(2.43365 0.0641399 0)
(2.39102 0.280714 0)
(2.36294 0.377692 0)
(2.34118 0.34937 0)
(2.29289 0.222454 0)
(2.21746 0.018051 0)
(2.21592 -0.051444 0)
(2.25034 -0.0655487 0)
(2.55364 0.780865 0)
(1.68035 0.441471 0)
(1.22807 0.0625624 0)
(1.53686 -0.0651559 0)
(1.77218 -0.0869064 0)
(1.95794 -0.115832 0)
(2.10444 -0.140965 0)
(2.22323 -0.153495 0)
(2.32293 -0.154312 0)
(2.42011 -0.175993 0)
(2.49656 -0.202414 0)
(2.54661 -0.16678 0)
(2.51379 0.00769363 0)
(2.49024 0.228327 0)
(2.4366 0.377009 0)
(2.36346 0.3002 0)
(2.28879 0.147117 0)
(2.24726 0.0310819 0)
(2.25223 -0.0276486 0)
(2.28296 -0.0379145 0)
(2.86948 0.44025 0)
(1.64412 0.277941 0)
(1.24595 0.0287146 0)
(1.56927 -0.0604772 0)
(1.81084 -0.064125 0)
(1.98925 -0.074029 0)
(2.13331 -0.0889381 0)
(2.25334 -0.0968702 0)
(2.35257 -0.0942371 0)
(2.43628 -0.100672 0)
(2.52691 -0.13013 0)
(2.57968 -0.134579 0)
(2.61599 -5.37825e-05 0)
(2.58233 0.143372 0)
(2.48737 0.299604 0)
(2.36728 0.165153 0)
(2.25894 0.0102373 0)
(2.26016 -0.0280957 0)
(2.2746 -0.0367533 0)
(2.31324 -0.0301106 0)
(2.94847 0.0867826 0)
(1.51973 0.156037 0)
(1.25709 0.0379278 0)
(1.59931 -0.0142978 0)
(1.84283 -0.0233877 0)
(2.01547 -0.0265139 0)
(2.1569 -0.0301897 0)
(2.27702 -0.0332601 0)
(2.37347 -0.0317844 0)
(2.4555 -0.0320357 0)
(2.54602 -0.0405511 0)
(2.61354 -0.0646402 0)
(2.65888 -0.0149941 0)
(2.62271 0.028303 0)
(2.46006 0.0947403 0)
(2.36077 0.1601 0)
(2.27555 0.0510464 0)
(2.27826 0.00484219 0)
(2.29243 -0.0116617 0)
(2.32349 -0.00970096 0)
)
;

boundaryField
{
    inlet
    {
        type            fixedValue;
        value           uniform (3 0 0);
    }
    outlet
    {
        type            inletOutlet;
        inletValue      uniform (3 0 0);
        value           nonuniform List<vector> 
20
(
(2.09796 0.0138503 0)
(2.11561 0.0329046 0)
(2.14109 0.0547475 0)
(2.17571 0.0766407 0)
(2.21481 0.0995794 0)
(2.25288 0.124808 0)
(2.28943 0.141997 0)
(2.3168 0.163524 0)
(2.34129 0.163741 0)
(2.3486 0.171858 0)
(2.33067 0.132495 0)
(2.30232 0.0832746 0)
(2.25532 0.00520328 0)
(2.22711 -0.0258447 0)
(2.20562 -0.0828862 0)
(2.22281 -0.0547963 0)
(2.25034 -0.0655487 0)
(2.28296 -0.0379145 0)
(2.31324 -0.0301106 0)
(2.32349 -0.00970096 0)
)
;
    }
    top
    {
        type            symmetryPlane;
    }
    bottom
    {
        type            symmetryPlane;
    }
    step
    {
        type            slip;
    }
    defaultFaces
    {
        type            empty;
    }
}


// ************************************************************************* //
