/*--------------------------------*- C++ -*----------------------------------*\
  =========                 |
  \\      /  F ield         | OpenFOAM: The Open Source CFD Toolbox
   \\    /   O peration     | Website:  https://openfoam.org
    \\  /    A nd           | Version:  6.0
     \\/     M anipulation  |
\*---------------------------------------------------------------------------*/
FoamFile
{
    version     2.0;
    format      ascii;
    class       volScalarField;
    location    "1";
    object      p;
}
// * * * * * * * * * * * * * * * * * * * * * * * * * * * * * * * * * * * * * //

dimensions      [1 -1 -2 0 0 0 0];

internalField   nonuniform List<scalar> 
3000
(
0.669293
0.550549
0.525405
0.528534
0.546978
0.61639
0.894303
1.69577
4.81478
4.87761
0.669367
0.550502
0.525378
0.528549
0.547272
0.618652
0.892506
1.68367
4.81965
4.87254
0.669308
0.550476
0.525122
0.528229
0.546718
0.617298
0.887885
1.66548
4.78084
4.85397
0.669167
0.550431
0.524693
0.527705
0.54586
0.615475
0.882664
1.65267
4.73521
4.82542
0.668935
0.550356
0.524027
0.526896
0.544553
0.612755
0.875364
1.63478
4.66658
4.76077
0.668587
0.550228
0.52304
0.525711
0.542684
0.608895
0.864981
1.60762
4.56057
4.65478
0.668079
0.549943
0.521624
0.524093
0.540294
0.604013
0.850843
1.56875
4.40509
4.50856
0.667316
0.549386
0.519795
0.52206
0.537399
0.59815
0.831691
1.51541
4.18576
4.30271
0.66628
0.548616
0.517388
0.519386
0.533581
0.590333
0.805084
1.44374
3.88739
4.00745
0.664935
0.547688
0.514351
0.515992
0.528622
0.579792
0.768542
1.3424
3.45282
3.55231
1.07145
1.07256
1.08053
1.11508
1.21533
1.47347
2.13286
4.19952
11.9455
11.6343
1.07152
1.07253
1.08036
1.11467
1.21443
1.47027
2.12756
4.17977
11.88
11.7439
1.07146
1.07237
1.07997
1.11382
1.21263
1.46631
2.11748
4.14698
11.7773
11.6839
1.0713
1.07207
1.07932
1.11248
1.20989
1.46042
2.10325
4.09635
11.6086
11.5017
1.07103
1.07158
1.07831
1.1105
1.20592
1.45195
2.08275
4.02588
11.3576
11.205
1.07058
1.07083
1.07684
1.10769
1.20042
1.44028
2.05429
3.93106
11.0082
10.8307
1.06965
1.06955
1.07487
1.10414
1.19327
1.42462
2.01569
3.80581
10.5442
10.3555
1.06784
1.06744
1.07224
1.09975
1.18427
1.40419
1.96488
3.64342
9.93988
9.76329
1.06545
1.06466
1.06883
1.09412
1.17277
1.37787
1.89902
3.43622
9.16164
9.00872
1.0625
1.06126
1.06465
1.08719
1.15851
1.34469
1.81352
3.16066
8.11502
7.98679
1.09144
1.17918
1.21946
1.30068
1.47235
1.85888
2.8203
5.77016
16.725
16.3576
1.09146
1.17912
1.21926
1.30016
1.47111
1.856
2.8135
5.74761
16.6701
16.309
1.09146
1.17892
1.21881
1.29915
1.46883
1.85073
2.80001
5.70182
16.5319
16.1281
1.09143
1.17854
1.21806
1.29756
1.4653
1.84258
2.77902
5.62877
16.2599
15.7617
1.09137
1.17789
1.2169
1.29523
1.46027
1.83096
2.74893
5.52508
15.8589
15.2701
1.09125
1.1768
1.21527
1.29209
1.45346
1.81513
2.70777
5.38588
15.3221
14.6799
1.09094
1.17497
1.21412
1.28845
1.44452
1.79386
2.6528
5.2051
14.6355
13.961
1.09029
1.17227
1.21284
1.28396
1.43314
1.76641
2.58162
4.97528
13.7662
13.1072
1.08939
1.1688
1.21128
1.27833
1.4188
1.73165
2.49149
4.68986
12.6834
12.0645
1.0883
1.16466
1.20945
1.2715
1.40121
1.68865
2.37821
4.32612
11.2826
10.7392
1.0494
1.14833
1.19885
1.29938
1.50999
1.97729
3.13015
6.67668
19.7673
19.1544
1.0494
1.14825
1.19874
1.29895
1.50886
1.97457
3.12318
6.65362
19.7147
19.0381
1.0494
1.14804
1.19851
1.29805
1.50653
1.96887
3.10814
6.60202
19.5505
18.7367
1.0494
1.14764
1.19813
1.29663
1.50285
1.95983
3.08398
6.51635
19.2067
18.2228
1.04939
1.14694
1.19757
1.29462
1.49765
1.94695
3.04921
6.39306
18.7048
17.5843
1.04935
1.14577
1.19693
1.292
1.49067
1.92945
3.00177
6.2274
18.051
16.8421
1.04927
1.14388
1.19679
1.28912
1.4818
1.90634
2.93901
6.01377
17.2325
15.9627
1.04908
1.14121
1.1969
1.28569
1.47059
1.87671
2.85847
5.7451
16.2131
14.9482
1.04882
1.13782
1.19714
1.28146
1.45653
1.83942
2.7575
5.41509
14.963
13.7459
1.04853
1.13385
1.19748
1.27629
1.4393
1.79364
2.63273
5.005
13.3724
12.2887
1.01911
1.09703
1.1538
1.26435
1.49283
1.99605
3.2382
7.08765
21.2651
20.4358
1.0191
1.09694
1.15382
1.26403
1.49179
1.99336
3.23123
7.06436
21.2098
20.297
1.01906
1.09673
1.15386
1.26335
1.48958
1.98756
3.21585
7.01067
21.0302
19.9298
1.01898
1.09635
1.15394
1.26229
1.48608
1.97836
3.19072
6.91933
20.6504
19.3293
1.01886
1.09568
1.15413
1.26085
1.48115
1.96523
3.15426
6.78689
20.0995
18.6086
1.01865
1.09458
1.15462
1.2591
1.47459
1.94739
3.10447
6.60894
19.3922
17.7865
1.01834
1.09291
1.15564
1.25711
1.4662
1.924
3.03894
6.38015
18.5161
16.8256
1.01792
1.09064
1.15721
1.2548
1.45559
1.89402
2.9551
6.09371
17.4325
15.7333
1.0174
1.0878
1.15931
1.25197
1.44229
1.85631
2.85025
5.74335
16.1071
14.4582
1.0168
1.08454
1.16182
1.24844
1.42592
1.81007
2.72151
5.31317
14.4288
12.9568
1.01912
1.09705
1.15382
1.26436
1.49282
1.99603
3.23818
7.08783
21.2673
20.4401
1.0191
1.09696
1.15384
1.26404
1.49179
1.99334
3.2312
7.06446
21.2114
20.3009
1.01906
1.09675
1.15387
1.26336
1.48958
1.98755
3.21585
7.01083
21.0309
19.9314
1.01899
1.09636
1.15395
1.2623
1.48609
1.97837
3.19077
6.91956
20.6501
19.3289
1.01886
1.09569
1.15414
1.26086
1.48116
1.96525
3.15433
6.78719
20.0993
18.6073
1.01866
1.09459
1.15464
1.25911
1.47461
1.94743
3.10456
6.60928
19.3923
17.7851
1.01835
1.09292
1.15565
1.25713
1.46622
1.92404
3.03904
6.38049
18.5166
16.8239
1.01792
1.09065
1.15723
1.25482
1.45562
1.89406
2.9552
6.09405
17.4336
15.7315
1.0174
1.08781
1.15932
1.25199
1.44232
1.85635
2.85035
5.74368
16.1085
14.4565
1.0168
1.08456
1.16184
1.24846
1.42594
1.81011
2.72161
5.31347
14.4304
12.9552
1.04941
1.14839
1.19887
1.29935
1.50986
1.97699
3.12955
6.6762
19.7706
19.1718
1.04941
1.14829
1.19877
1.29893
1.50878
1.97437
3.12277
6.65339
19.717
19.0516
1.04941
1.14807
1.19854
1.29805
1.50649
1.96876
3.10796
6.60228
19.551
18.7401
1.0494
1.14767
1.19815
1.29665
1.50285
1.95981
3.08398
6.51692
19.2052
18.2204
1.04939
1.14697
1.1976
1.29464
1.49767
1.94698
3.04934
6.39379
18.7038
17.5801
1.04936
1.1458
1.19696
1.29203
1.49072
1.92952
3.00196
6.2282
18.0512
16.8376
1.04927
1.14391
1.19682
1.28916
1.48186
1.90644
2.93925
6.01459
17.2338
15.958
1.04909
1.14124
1.19693
1.28573
1.47065
1.87681
2.85872
5.74591
16.2156
14.9439
1.04883
1.13786
1.19717
1.2815
1.45659
1.83953
2.75773
5.41579
14.9659
13.7425
1.04854
1.13389
1.19752
1.27633
1.43936
1.79375
2.63297
5.00569
13.3756
12.2865
1.0915
1.17926
1.21947
1.30054
1.47186
1.85761
2.81752
5.76539
16.718
16.4057
1.0915
1.17917
1.21927
1.30008
1.47083
1.85526
2.8117
5.74542
16.6672
16.3326
1.09148
1.17895
1.21882
1.29911
1.46868
1.85029
2.79903
5.70129
16.5292
16.1284
1.09144
1.17857
1.21807
1.29754
1.46523
1.84234
2.77853
5.62918
16.2561
15.7541
1.09138
1.17792
1.21693
1.29525
1.46026
1.8309
2.74881
5.52569
15.8565
15.2615
1.09126
1.17683
1.21531
1.29213
1.45351
1.81518
2.70788
5.38658
15.3214
14.6723
1.09096
1.17501
1.21416
1.2885
1.44459
1.79397
2.65305
5.20584
14.6365
13.9545
1.09031
1.17231
1.21289
1.28402
1.43323
1.76656
2.58194
4.97604
13.7679
13.1028
1.08942
1.16885
1.21133
1.27839
1.41889
1.7318
2.49177
4.69033
12.6856
12.0625
1.08832
1.16471
1.2095
1.27156
1.40131
1.68881
2.37855
4.3268
11.285
10.7404
1.07161
1.07264
1.08051
1.11486
1.21469
1.47065
2.12682
4.18591
11.9107
11.7326
1.07158
1.07256
1.08033
1.1145
1.21394
1.46896
2.12319
4.17255
11.8629
11.7578
1.07149
1.07239
1.07995
1.11372
1.21234
1.46547
2.11513
4.14325
11.7656
11.6818
1.07132
1.07208
1.07931
1.11243
1.20972
1.45989
2.10181
4.09518
11.6012
11.4878
1.07105
1.0716
1.07832
1.11049
1.20586
1.45174
2.08213
4.02536
11.3537
11.1918
1.0706
1.07085
1.07686
1.10772
1.20044
1.44027
2.05417
3.93104
11.0058
10.8199
1.06968
1.06958
1.07491
1.10419
1.19334
1.42473
2.01587
3.80605
10.5449
10.3473
1.06788
1.06748
1.07229
1.09981
1.18437
1.40437
1.96527
3.64403
9.93975
9.75891
1.06549
1.0647
1.06888
1.09419
1.17288
1.37804
1.89936
3.43621
9.16241
9.00834
1.06255
1.0613
1.0647
1.08727
1.15862
1.34488
1.81395
3.16112
8.11607
7.99024
0.669422
0.550548
0.525381
0.52852
0.547076
0.617627
0.889182
1.65571
4.79915
4.87307
0.669398
0.550528
0.52529
0.528418
0.546953
0.617555
0.888369
1.65705
4.78065
4.86801
0.669323
0.550492
0.525063
0.528147
0.546543
0.616813
0.885864
1.65374
4.75261
4.85613
0.669178
0.550438
0.524655
0.527654
0.545754
0.615192
0.881397
1.64553
4.71913
4.82603
0.668946
0.550362
0.524014
0.526876
0.54451
0.612636
0.874808
1.63221
4.65778
4.76034
0.668602
0.550235
0.523045
0.525716
0.542686
0.608888
0.864851
1.60738
4.55566
4.65561
0.6681
0.549952
0.521643
0.524114
0.540328
0.604098
0.85103
1.57023
4.4034
4.51089
0.667341
0.549398
0.519824
0.522095
0.537458
0.598306
0.831967
1.5173
4.18616
4.30589
0.666308
0.548629
0.517422
0.519427
0.533651
0.59052
0.805442
1.44643
3.88886
4.01135
0.664962
0.547702
0.514386
0.516033
0.528688
0.579943
0.768809
1.34362
3.45465
3.55602
0.660563
0.544938
0.504602
0.504927
0.511944
0.543843
0.659587
1.03245
2.11782
2.00183
0.657105
0.539574
0.492105
0.485372
0.488292
0.503776
0.559208
0.762993
1.30183
1.28352
0.655295
0.530375
0.482496
0.459787
0.459887
0.463938
0.482733
0.547576
0.711713
1.05863
0.651436
0.529858
0.479505
0.442899
0.421062
0.418513
0.420702
0.432048
0.46963
0.553914
0.653022
0.528292
0.47866
0.442006
0.413623
0.408684
0.409299
0.413652
0.430119
0.479671
0.653458
0.527927
0.478523
0.441482
0.411154
0.402933
0.403003
0.404997
0.414033
0.443176
0.652064
0.528437
0.478049
0.440491
0.41248
0.39078
0.38709
0.382646
0.379286
0.371584
0.652948
0.52778
0.47782
0.440324
0.411904
0.390759
0.384743
0.383713
0.38315
0.381094
0.652463
0.527957
0.477897
0.440177
0.411265
0.390305
0.379863
0.379257
0.380797
0.387922
0.6529
0.527873
0.477959
0.440189
0.410756
0.390995
0.377514
0.378256
0.381974
0.393288
1.0537
1.05115
1.05218
1.0668
1.11753
1.25235
1.58508
2.4754
5.07965
4.75878
1.04363
1.03904
1.02842
1.03482
1.06324
1.14431
1.34819
1.85383
3.18174
3.11604
1.03137
1.02404
1.00469
0.994604
1.00186
1.02915
1.10186
1.27287
1.67012
2.55885
1.02698
1.01999
1.0005
0.960696
0.940427
0.943056
0.954218
0.983721
1.04786
1.17813
1.02694
1.01952
0.999437
0.958454
0.928234
0.92888
0.935472
0.956867
1.01085
1.13324
1.02687
1.01932
0.998963
0.957289
0.924168
0.920374
0.924458
0.939785
0.98022
1.07378
1.02583
1.01845
0.998093
0.956215
0.924327
0.900621
0.898984
0.901163
0.910397
0.93679
1.02601
1.0184
0.997769
0.955392
0.923563
0.899071
0.897746
0.900288
0.909666
0.933725
1.02578
1.01823
0.997682
0.955459
0.922423
0.898704
0.889161
0.890774
0.898161
0.918629
1.02596
1.01833
0.997624
0.955142
0.921557
0.899193
0.883504
0.884462
0.889367
0.901416
1.08523
1.15282
1.20363
1.25148
1.35082
1.56746
2.06868
3.38696
7.15519
6.67518
1.08148
1.14271
1.18642
1.21887
1.28545
1.42821
1.74912
2.5364
4.57118
4.44691
1.0727
1.13743
1.16274
1.18963
1.21735
1.27403
1.39404
1.65641
2.22974
3.56648
1.06868
1.1349
1.16348
1.16661
1.17313
1.18674
1.21448
1.25743
1.34445
1.5316
1.06773
1.13507
1.163
1.16436
1.16734
1.17541
1.19378
1.23371
1.31917
1.50542
1.06754
1.1351
1.16255
1.16322
1.16481
1.17051
1.18484
1.2166
1.2852
1.43549
1.06721
1.1343
1.16177
1.16176
1.16167
1.16256
1.16691
1.17793
1.20211
1.25371
1.06715
1.13412
1.16146
1.16119
1.16061
1.16133
1.16518
1.17506
1.19688
1.2436
1.06723
1.13357
1.16123
1.16088
1.15944
1.15967
1.16199
1.16891
1.1851
1.22092
1.06728
1.13361
1.16092
1.16043
1.15861
1.15843
1.15931
1.16309
1.17266
1.19374
1.04814
1.12265
1.19755
1.26032
1.38839
1.66064
2.27941
3.90332
8.5378
7.92477
1.0491
1.11495
1.18773
1.2343
1.32404
1.51003
1.9175
2.91401
5.51268
5.33788
1.04278
1.11928
1.16462
1.2262
1.26934
1.34484
1.50016
1.8335
2.54712
4.20697
1.04004
1.11681
1.17159
1.21184
1.2492
1.28375
1.32624
1.37836
1.48363
1.70962
1.03948
1.11681
1.17196
1.21053
1.24565
1.2773
1.30369
1.35548
1.4615
1.68771
1.03931
1.11697
1.17153
1.20983
1.24422
1.27466
1.29887
1.3414
1.42853
1.61412
1.03924
1.11652
1.17096
1.20934
1.24181
1.27076
1.29303
1.3123
1.34494
1.41109
1.0392
1.1161
1.17113
1.2089
1.24086
1.2695
1.29109
1.30872
1.33784
1.39714
1.03938
1.11536
1.17143
1.20847
1.24061
1.26736
1.28948
1.30569
1.32892
1.37647
1.03938
1.1153
1.17133
1.20825
1.24007
1.26648
1.28899
1.30322
1.32184
1.34995
1.01623
1.07502
1.16766
1.23661
1.37647
1.67327
2.34912
4.13075
9.2286
8.5451
1.02016
1.06926
1.164
1.21623
1.31496
1.51977
1.96933
3.07479
5.98144
5.78119
1.01567
1.0812
1.14037
1.21951
1.2705
1.35452
1.52732
1.89888
2.68953
4.52431
1.01543
1.0778
1.15103
1.20809
1.2647
1.31226
1.36503
1.42178
1.53621
1.78119
1.01541
1.07757
1.15178
1.20769
1.26113
1.31066
1.34178
1.39816
1.5132
1.75811
1.01544
1.07778
1.15133
1.20722
1.26006
1.30892
1.3399
1.38659
1.48184
1.68401
1.01543
1.0777
1.15092
1.20705
1.25884
1.30568
1.34073
1.36525
1.40122
1.47421
1.01532
1.0771
1.15131
1.20681
1.25802
1.30429
1.33862
1.36132
1.39314
1.45809
1.01519
1.07636
1.152
1.20613
1.25812
1.30171
1.33721
1.36055
1.38658
1.43944
1.01516
1.07621
1.15195
1.20597
1.25786
1.30133
1.33745
1.35935
1.38492
1.41718
1.01623
1.07503
1.16768
1.23662
1.37649
1.6733
2.34919
4.13097
9.22979
8.54577
1.02017
1.06926
1.164
1.21623
1.31498
1.51983
1.96947
3.07519
5.98243
5.78202
1.01567
1.0812
1.14037
1.21951
1.27051
1.35454
1.52736
1.89898
2.6897
4.52484
1.01542
1.0778
1.15103
1.20809
1.26471
1.31227
1.36507
1.42182
1.53623
1.78119
1.01541
1.07757
1.15178
1.20769
1.26113
1.31066
1.34178
1.39817
1.51324
1.75821
1.01544
1.07778
1.15133
1.20722
1.26006
1.30892
1.3399
1.38658
1.48183
1.68394
1.01543
1.0777
1.15093
1.20706
1.25884
1.30569
1.34072
1.36522
1.40119
1.47419
1.01532
1.0771
1.15131
1.20681
1.258
1.3043
1.33861
1.36131
1.3931
1.45806
1.01519
1.07636
1.15201
1.20613
1.25812
1.30169
1.33722
1.36059
1.38661
1.43939
1.01516
1.07621
1.15194
1.20598
1.25788
1.30135
1.33751
1.35947
1.38548
1.41777
1.04814
1.12269
1.19758
1.26036
1.38844
1.66073
2.27959
3.9038
8.54005
7.9262
1.04911
1.11496
1.18774
1.23433
1.32411
1.51021
1.91793
2.91513
5.51518
5.33991
1.04278
1.11928
1.16461
1.22622
1.26937
1.34491
1.50028
1.83374
2.54753
4.20823
1.04004
1.1168
1.17159
1.21184
1.24923
1.28381
1.32635
1.37848
1.48374
1.70974
1.03948
1.11681
1.17195
1.21053
1.24566
1.2773
1.3037
1.35552
1.46157
1.68785
1.03931
1.11697
1.17153
1.20983
1.24423
1.27466
1.29888
1.34142
1.42856
1.61413
1.03925
1.11652
1.17096
1.20935
1.2418
1.27077
1.29302
1.31226
1.34485
1.41092
1.03921
1.11609
1.17113
1.2089
1.24083
1.26951
1.29107
1.30866
1.33773
1.39696
1.03938
1.11536
1.17144
1.20847
1.24061
1.2673
1.28949
1.30567
1.3287
1.37582
1.03938
1.1153
1.17134
1.20827
1.24014
1.26658
1.28921
1.30362
1.32305
1.35073
1.08524
1.15286
1.20367
1.25153
1.3509
1.56758
2.06889
3.38735
7.15667
6.67663
1.08149
1.14272
1.18645
1.21893
1.28556
1.42844
1.74966
2.53783
4.57414
4.44922
1.0727
1.13743
1.16272
1.18968
1.21742
1.27414
1.39424
1.65682
2.23041
3.56835
1.06867
1.13489
1.16347
1.16663
1.17319
1.18687
1.21469
1.25768
1.34479
1.53205
1.06773
1.13507
1.163
1.16436
1.16735
1.17542
1.19382
1.23376
1.31927
1.50558
1.06754
1.13511
1.16256
1.16322
1.16482
1.17053
1.18486
1.21665
1.28529
1.43562
1.06721
1.13429
1.16177
1.16176
1.16168
1.16257
1.16692
1.17794
1.20207
1.25344
1.06715
1.1341
1.16145
1.16118
1.16061
1.16132
1.16516
1.17503
1.19677
1.24327
1.06724
1.13357
1.16123
1.16087
1.15941
1.15962
1.16185
1.16858
1.1844
1.21953
1.06729
1.13361
1.16096
1.16049
1.15872
1.1586
1.1595
1.16324
1.17253
1.19298
1.05374
1.05119
1.05222
1.06686
1.11761
1.25249
1.58534
2.4756
5.08062
4.7604
1.04364
1.03906
1.02846
1.03487
1.06333
1.14449
1.34857
1.85464
3.18374
3.11788
1.03137
1.02403
1.00468
0.994684
1.00195
1.02928
1.10209
1.27333
1.67132
2.56139
1.02697
1.01998
1.00049
0.960706
0.94057
0.943237
0.95449
0.984175
1.04866
1.17936
1.02694
1.01952
0.999438
0.958458
0.928258
0.928909
0.935514
0.956937
1.01097
1.13344
1.02688
1.01933
0.998967
0.95729
0.924146
0.920434
0.924526
0.939886
0.980447
1.07453
1.02582
1.01845
0.998094
0.956215
0.924354
0.900606
0.899106
0.901328
0.910707
0.93718
1.026
1.01839
0.997756
0.955357
0.923643
0.898976
0.897871
0.900459
0.909892
0.933973
1.02579
1.01825
0.997689
0.955459
0.922357
0.898792
0.888673
0.890183
0.897376
0.917558
1.02597
1.01834
0.997632
0.955146
0.921617
0.899327
0.88342
0.884315
0.889016
0.901222
0.660583
0.544951
0.504629
0.504957
0.511987
0.543931
0.659826
1.03293
2.11947
2.00356
0.657089
0.539598
0.492124
0.485414
0.488338
0.50384
0.559334
0.763294
1.30288
1.28473
0.655286
0.530379
0.48249
0.459836
0.459941
0.464011
0.482865
0.547915
0.712625
1.06055
0.651421
0.529867
0.479499
0.442892
0.42113
0.418689
0.420916
0.432434
0.470579
0.556524
0.653012
0.528295
0.478661
0.442009
0.413637
0.408708
0.409328
0.413698
0.430217
0.479883
0.653474
0.527931
0.478522
0.441485
0.411132
0.402964
0.403042
0.405076
0.414285
0.444116
0.652049
0.528447
0.478052
0.440487
0.412493
0.390775
0.387153
0.382604
0.379821
0.374057
0.652942
0.527761
0.477837
0.440282
0.41195
0.39071
0.384807
0.384249
0.384181
0.383076
0.652482
0.527968
0.477898
0.440175
0.411238
0.390278
0.379761
0.378873
0.380619
0.388681
0.652915
0.527876
0.477962
0.440175
0.410742
0.39103
0.377303
0.378306
0.382797
0.395357
1.01123
0.574743
0.394161
0.384133
0.391456
0.39614
0.393838
0.388138
0.372622
0.354471
1.01866
0.626581
0.462836
0.458317
0.447299
0.418312
0.392734
0.385964
0.375831
0.359032
0.99684
0.763792
0.638348
0.541025
0.456316
0.41053
0.377062
0.365681
0.36423
0.361303
0.920007
0.869118
0.742059
0.578869
0.49722
0.446613
0.423665
0.412426
0.388715
0.366884
0.823768
0.832496
0.789038
0.680731
0.571801
0.507225
0.450292
0.418983
0.37827
0.361853
0.64524
0.762544
0.761977
0.726551
0.638304
0.537512
0.50747
0.492304
0.441707
0.417536
0.308371
0.666759
0.70995
0.711791
0.695779
0.650383
0.652593
0.655147
0.700419
0.742723
0.357752
0.648668
0.710224
0.736769
0.742563
0.73446
0.710268
0.693367
0.692586
0.692065
0.442023
0.62217
0.701817
0.7817
0.823558
0.821194
0.809806
0.783306
0.776522
0.769885
0.436469
0.532743
0.714625
0.886276
1.06061
1.05591
1.03811
0.989151
0.851179
0.772677
2.3795
1.3889
0.978993
0.96259
0.982173
0.985715
0.974849
0.944319
0.909702
0.882803
2.41259
1.50283
1.14827
1.13486
1.1024
1.02397
0.967393
0.943782
0.921566
0.887109
2.37978
1.78388
1.58374
1.34296
1.13523
1.01089
0.936349
0.903222
0.896342
0.887502
2.21342
2.09284
1.78965
1.41627
1.2142
1.09459
1.04538
1.00905
0.939159
0.891781
2.07082
2.03912
1.91795
1.65569
1.41873
1.27884
1.13505
1.03088
0.9232
0.879309
1.74359
1.93177
1.88984
1.78226
1.56388
1.3565
1.26949
1.21699
1.0706
1.02037
1.13412
1.7653
1.80379
1.78421
1.72021
1.58737
1.59345
1.59844
1.70274
1.82102
1.10248
1.66972
1.77866
1.82997
1.82282
1.79216
1.72208
1.69209
1.70027
1.7266
1.0428
1.50886
1.77724
1.94798
2.01287
2.00401
1.97687
1.94127
1.91443
1.84752
0.980138
1.24473
1.78777
2.24351
2.50333
2.49087
2.44917
2.34611
2.08324
1.84295
3.2662
1.92991
1.39055
1.37817
1.41034
1.40649
1.38739
1.34087
1.29524
1.25256
3.32125
2.07807
1.62965
1.61554
1.56694
1.45107
1.37487
1.34001
1.31436
1.26979
3.29317
2.43539
2.23764
1.90076
1.62151
1.44312
1.33735
1.28822
1.27885
1.26786
3.08604
2.90859
2.46251
1.981
1.71096
1.55383
1.48975
1.43297
1.32789
1.26903
2.8831
2.84534
2.68684
2.33113
2.00552
1.8227
1.62019
1.46125
1.30833
1.24283
2.46057
2.71048
2.65817
2.51241
2.20737
1.93287
1.81304
1.74316
1.54186
1.45982
1.56393
2.57065
2.56589
2.52943
2.42283
2.24154
2.24714
2.2553
2.38717
2.57107
1.51544
2.4251
2.55784
2.59581
2.58198
2.53158
2.42534
2.40161
2.41964
2.48899
1.42672
2.15878
2.58639
2.77057
2.83631
2.82496
2.79232
2.79434
2.74706
2.60711
1.30881
1.69213
2.53755
3.17136
3.45814
3.44273
3.38049
3.21617
2.94528
2.59095
3.79497
2.25858
1.65413
1.64795
1.68392
1.67686
1.65133
1.59249
1.54335
1.4823
3.86937
2.42518
1.93697
1.92736
1.86549
1.72368
1.63672
1.59525
1.56938
1.51723
3.84594
2.82418
2.63638
2.24762
1.93406
1.72353
1.59751
1.53909
1.52884
1.51498
3.62846
3.40756
2.8557
2.32978
2.02312
1.84918
1.7777
1.70459
1.57499
1.5118
3.37653
3.33677
3.16025
2.7542
2.37004
2.16734
1.93016
1.73409
1.55323
1.47108
2.87152
3.18975
3.13466
2.96978
2.61525
2.29877
2.15975
2.08532
1.872
1.75878
1.80196
3.09132
3.06737
2.99968
2.84699
2.65545
2.65846
2.66337
2.80025
3.02617
1.74298
2.92586
3.08023
3.07907
3.05933
2.99486
2.86381
2.85469
2.88282
2.9806
1.64434
2.58124
3.12724
3.28045
3.34846
3.33674
3.31188
3.34176
3.2724
3.09434
1.4961
1.97769
3.03811
3.71814
4.04466
4.02688
3.94464
3.71663
3.43932
3.0992
4.04221
2.41337
1.78322
1.78149
1.80802
1.80436
1.77896
1.71537
1.66562
1.5927
4.12783
2.58852
2.08745
2.08235
2.01287
1.85821
1.76603
1.71988
1.69391
1.63889
4.10685
3.00607
2.82147
2.41486
2.0871
1.86186
1.72621
1.66321
1.65233
1.63646
3.88974
3.64347
3.0336
2.49536
2.17286
1.99416
1.91968
1.83642
1.69503
1.63043
3.60831
3.56973
3.38537
2.95632
2.54403
2.33432
2.08097
1.86574
1.67172
1.58076
3.06084
3.41749
3.36246
3.18959
2.81263
2.47645
2.32828
2.25278
2.03649
1.91049
1.90791
3.34555
3.31508
3.22785
3.04431
2.85541
2.85482
2.85826
3.00269
3.24332
1.84276
3.16123
3.3415
3.31684
3.28661
3.21575
3.07345
3.07198
3.11128
3.21984
1.7375
2.76504
3.39496
3.52063
3.59241
3.57593
3.56139
3.59133
3.51431
3.3359
1.58505
2.13194
3.29356
3.95483
4.32815
4.31078
4.2199
3.96203
3.63656
3.36297
4.04243
2.41344
1.78353
1.78191
1.80865
1.80472
1.77901
1.71506
1.66478
1.59278
4.12806
2.58874
2.08798
2.08286
2.0132
1.85848
1.76619
1.71968
1.69363
1.63886
4.10704
3.00654
2.82165
2.41428
2.0868
1.86182
1.72637
1.66319
1.65257
1.63668
3.88965
3.64329
3.03318
2.49441
2.17252
1.99446
1.92014
1.83677
1.69532
1.63068
3.60856
3.56972
3.38515
2.95566
2.54399
2.33523
2.08148
1.86582
1.67179
1.58099
3.06058
3.41749
3.36237
3.18927
2.81156
2.47741
2.32859
2.25353
2.0391
1.91298
1.90804
3.34583
3.31512
3.22764
3.04351
2.85561
2.85512
2.85845
3.00029
3.24077
1.84279
3.16155
3.34108
3.31662
3.28606
3.21473
3.0731
3.07105
3.1093
3.22035
1.73645
2.76027
3.39548
3.52041
3.59153
3.57504
3.56032
3.58992
3.51378
3.33567
1.58606
2.13646
3.30661
3.95887
4.32746
4.31021
4.21946
3.96345
3.63879
3.36121
3.79589
2.25873
1.65498
1.64907
1.6853
1.67784
1.65161
1.59186
1.54143
1.4824
3.87022
2.42573
1.93841
1.92886
1.86657
1.72445
1.63701
1.5947
1.56891
1.51718
3.84662
2.82537
2.637
2.2458
1.93325
1.72343
1.59792
1.53926
1.52952
1.5157
3.62861
3.40731
2.85445
2.3272
2.02224
1.85004
1.77906
1.70548
1.57573
1.51252
3.37661
3.33671
3.15987
2.75289
2.3702
2.16993
1.93157
1.73422
1.55343
1.47166
2.87116
3.1897
3.13442
2.96892
2.61246
2.30086
2.16058
2.08773
1.87809
1.76209
1.80134
3.0902
3.06726
2.99954
2.84563
2.65616
2.65897
2.66328
2.7943
3.02308
1.74225
2.92361
3.07815
3.07864
3.05797
2.99255
2.86285
2.85151
2.87884
2.98217
1.64089
2.5682
3.12856
3.28091
3.34626
3.33432
3.30882
3.33836
3.26998
3.09366
1.49585
1.981
3.06872
3.7298
4.04278
4.02486
3.94401
3.72163
3.44053
3.09405
3.26809
1.93
1.39176
1.37967
1.41213
1.40765
1.38773
1.34053
1.2934
1.25241
3.32279
2.07868
1.63161
1.61784
1.56891
1.45224
1.37525
1.33938
1.31465
1.26935
3.29451
2.43668
2.239
1.89774
1.62051
1.44297
1.33781
1.28859
1.27969
1.269
3.08682
2.90864
2.46072
1.97757
1.70959
1.55486
1.49157
1.43406
1.32871
1.27001
2.88334
2.84548
2.68669
2.33012
2.00582
1.82628
1.62206
1.4614
1.30863
1.2435
2.46034
2.71063
2.65805
2.51127
2.20385
1.93526
1.81395
1.74648
1.54843
1.46252
1.56135
2.56334
2.56591
2.52945
2.42197
2.24242
2.2473
2.25459
2.37952
2.56854
1.51312
2.41715
2.55429
2.59545
2.58065
2.52948
2.42336
2.39779
2.41612
2.49064
1.42173
2.13934
2.58713
2.77186
2.83351
2.82177
2.78757
2.78721
2.74176
2.60874
1.30616
1.68346
2.56668
3.18669
3.45492
3.43994
3.38052
3.22476
2.93979
2.58537
2.38192
1.38896
0.98029
0.963973
0.984024
0.9865
0.975438
0.944404
0.90866
0.88267
2.41458
1.50333
1.15011
1.13705
1.10441
1.02493
0.967611
0.943393
0.922741
0.88648
2.38174
1.78477
1.58551
1.34033
1.13462
1.01082
0.936698
0.903607
0.897049
0.888619
2.21501
2.09339
1.78774
1.41287
1.21242
1.09537
1.04703
1.00997
0.939594
0.89264
2.07214
2.0398
1.91816
1.65522
1.41895
1.2823
1.13669
1.03088
0.92338
0.879833
1.74893
1.93257
1.89029
1.78165
1.56113
1.35846
1.27015
1.22032
1.07543
1.02251
1.12885
1.75292
1.80428
1.7844
1.72029
1.58802
1.59281
1.59763
1.69468
1.81935
1.10002
1.65922
1.77604
1.83006
1.8221
1.79066
1.71969
1.68872
1.69789
1.72888
1.04112
1.49133
1.77757
1.9494
2.01037
2.00116
1.97236
1.93483
1.91001
1.85105
0.984425
1.24231
1.79719
2.25784
2.49963
2.48779
2.44801
2.34572
2.07729
1.84235
1.0133
0.575334
0.395288
0.385066
0.392438
0.396438
0.393996
0.388087
0.372578
0.354542
1.02049
0.627389
0.464204
0.459942
0.448756
0.418841
0.392434
0.385605
0.376507
0.358928
0.998485
0.764564
0.640132
0.540435
0.456237
0.410433
0.377031
0.365835
0.36452
0.36178
0.921271
0.869939
0.741514
0.577281
0.495856
0.446662
0.424353
0.412741
0.388416
0.366957
0.825202
0.83324
0.789611
0.68081
0.572122
0.509173
0.451101
0.418769
0.377981
0.361694
0.655298
0.76434
0.763106
0.727062
0.638178
0.538748
0.50788
0.493814
0.444714
0.418566
0.326107
0.661801
0.711291
0.712652
0.696408
0.650556
0.652643
0.654538
0.69335
0.742497
0.361003
0.644654
0.710612
0.737661
0.742069
0.7337
0.708832
0.691121
0.691983
0.692399
0.451703
0.616097
0.70063
0.78242
0.822469
0.82004
0.808303
0.780652
0.774051
0.772307
0.456103
0.533699
0.713316
0.892725
1.05878
1.05426
1.03688
0.986759
0.847666
0.774822
)
;

boundaryField
{
    inlet
    {
        type            fixedValue;
        value           uniform 1;
    }
    outlet
    {
        type            waveTransmissive;
        gamma           1.4;
        fieldInf        1;
        lInf            3;
        value           nonuniform List<scalar> 
100
(
0.382688
0.385742
0.384265
0.385679
0.379211
0.41244
0.681578
0.705574
0.761322
0.789597
0.902666
0.901297
0.889754
0.885336
0.871307
0.953588
1.62738
1.67792
1.78776
1.8357
1.273
1.27702
1.25535
1.24419
1.21988
1.34563
2.30055
2.3766
2.5145
2.57081
1.50881
1.51996
1.49229
1.47374
1.44084
1.60141
2.72726
2.82673
2.9793
3.03386
1.62347
1.63905
1.60842
1.58519
1.54765
1.72743
2.93249
3.04858
3.20529
3.25475
1.62334
1.63938
1.60843
1.58551
1.54789
1.72811
2.93372
3.04705
3.20386
3.2529
1.50855
1.52089
1.49229
1.4746
1.44154
1.60281
2.73036
2.82324
2.97534
3.02884
1.27287
1.2783
1.25532
1.24527
1.22085
1.34732
2.30373
2.37258
2.50977
2.56448
0.902977
0.902867
0.889676
0.886246
0.872183
0.955095
1.62952
1.67447
1.78484
1.83144
0.383118
0.38694
0.384128
0.385853
0.379425
0.413158
0.682171
0.703466
0.760512
0.789408
)
;
    }
    top
    {
        type            symmetryPlane;
    }
    bottom
    {
        type            symmetryPlane;
    }
    step
    {
        type            zeroGradient;
    }
    defaultFaces
    {
        type            empty;
    }
}


// ************************************************************************* //
