/*--------------------------------*- C++ -*----------------------------------*\
  =========                 |
  \\      /  F ield         | OpenFOAM: The Open Source CFD Toolbox
   \\    /   O peration     | Website:  https://openfoam.org
    \\  /    A nd           | Version:  6.0
     \\/     M anipulation  |
\*---------------------------------------------------------------------------*/
FoamFile
{
    version     2.0;
    format      ascii;
    class       volScalarField;
    location    "3.000888";
    object      p;
}
// * * * * * * * * * * * * * * * * * * * * * * * * * * * * * * * * * * * * * //

dimensions      [1 -1 -2 0 0 0 0];

internalField   nonuniform List<scalar> 
2700
(
1
1
1
1
1
1
1
1
1
1
1
1
1
1
1
3.88989
10.1249
10.6671
10.6056
10.5381
10.6325
11.2989
12.0384
12.1533
11.5026
10.7128
11.1934
12.1183
12.1571
11.6861
1
1
1
1
1
1
1
1
1
1
1
1
1
1
1
3.81968
9.92577
10.6067
10.8149
10.9862
11.1785
11.1821
11.1499
11.3982
11.7298
11.8981
11.7601
11.6543
11.7024
12.037
1
1
1
1
1
1
1
1
1
1
1
1
1
1
1
3.78076
9.86959
10.3084
10.7609
11.3288
11.541
11.1887
10.6892
10.545
11.412
12.6725
12.3964
11.348
11.2838
11.6887
1
1
1
1
1
1
1
1
1
1
1
1
1
1
1
3.74919
9.8647
10.4637
10.7819
11.1132
11.3002
11.1528
10.7802
10.7553
11.6238
12.183
11.9302
11.624
11.2974
12.1665
1
1
1
1
1
1
1
1
1
1
1
1
1
1
1
3.74325
9.95817
10.6933
10.7006
10.7112
10.7706
11.1934
11.5345
11.7731
11.5331
11.0855
11.361
11.763
11.8864
12.0661
1
1
1
1
1
1
1
1
1
1
1
1
1
1
1
3.69127
10.0094
10.7696
10.7201
10.5871
10.5082
10.8623
11.961
12.4642
11.6517
10.7147
10.8217
11.2998
12.3491
12.1934
1
1
1
1
1
1
1
1
1
1
1
1
1
1
1
3.58429
9.93001
10.558
10.6268
10.6854
10.8737
11.3426
11.6884
11.7536
11.4188
11.1882
11.4467
12.2198
12.0224
11.6614
1
1
1
1
1
1
1
1
1
1
1
1
1
1
1
3.43868
9.75254
10.2491
10.4868
11.0279
11.4797
11.4863
11.0757
10.6688
11.2807
11.9472
12.3479
12.1748
11.3421
11.2086
1
1
1
1
1
1
1
1
1
1
1
1
1
1
1
3.31085
9.58134
10.2023
10.6222
11.1801
11.5558
11.3997
10.7355
10.5045
11.111
12.3269
12.5728
11.7274
11.2086
11.1982
1
1
1
1
1
1
1
1
1
1
1
1
1
1
1
3.1695
9.48452
10.6214
10.8842
10.9939
10.9768
10.9299
10.9991
11.0857
11.6992
12.0046
11.6227
11.1197
11.3865
12.0817
1
1
1
1
1
1
1
1
1
1
1
1
1
1
1
3.11481
9.5478
10.8453
10.9556
10.7923
10.4111
10.4219
11.1814
12.0666
12.0282
11.4
10.6341
10.8425
11.6862
12.6199
1
1
1
1
1
1
1
1
1
1
1
1
1
1
1
3.02096
9.66414
10.726
10.6542
10.4695
10.3654
10.6345
11.5415
12.1774
12.0273
10.8856
10.5128
10.6539
11.5516
12.4862
1
1
1
1
1
1
1
1
1
1
1
1
1
1
1
2.83374
9.52031
10.3731
10.3181
10.495
10.9827
11.5902
11.5374
11.4522
10.8891
10.9251
11.3618
11.7558
11.7875
11.1219
1
1
1
1
1
1
1
1
1
1
1
1
1
1
1
2.609
9.19395
10.071
10.0698
10.5954
11.4786
11.8682
11.7695
10.5816
10.1585
10.6813
12.3012
12.6838
11.6046
10.2827
1
1
1
1
1
1
1
1
1
1
1
1
1
1
1
2.38713
8.8339
10.0974
10.6182
11.1708
11.3239
11.4225
10.761
10.5325
10.5936
11.6733
12.3846
12.8416
11.1812
10.5885
1
1
1
1
1
1
1
1
1
1
1
1
1
1
1
2.20762
8.57547
10.5354
11.0897
11.1825
11.0254
10.3822
10.2104
10.7289
12.0015
12.1145
11.7922
10.5986
11.2397
11.836
1
1
1
1
1
1
1
1
1
1
1
1
1
1
1
2.14753
8.76371
10.8363
11.0081
11.0251
10.4084
9.99541
9.98977
11.208
12.3339
12.5924
10.6988
9.70748
10.7863
12.495
1
1
1
1
1
1
1
1
1
1
1
1
1
1
1
1.98014
8.76303
10.7733
10.636
10.2597
10.2712
10.5146
11.4208
11.7966
11.8251
11.072
10.4458
9.94797
10.7654
12.4802
1
1
1
1
1
1
1
1
1
1
1
1
1
1
1
1.782
8.38514
10.6548
9.99232
9.8483
10.1225
11.429
12.0972
11.8921
10.7617
9.91564
10.3215
11.1124
11.6962
12.063
1
1
1
1
1
1
1
1
1
1
1
1
1
1
1
1.54018
7.80766
10.1228
9.89498
10.0909
10.9551
11.6367
11.9697
11.6159
9.98981
9.65966
10.8245
12.3323
11.9709
10.5144
1
1
1
1
1
1
1
1
1
1
1
1
1
1
1
1.33495
7.40894
9.80261
10.0969
11.2144
11.4489
11.1954
10.8871
10.1715
10.3498
10.432
11.9679
12.2925
11.5303
10.0126
1
1
1
1
1
1
1
1
1
1
1
1
1
1
1
1.18287
7.25568
10.1189
10.9062
11.3319
11.6026
11.0779
9.57306
9.6214
10.2929
12.0115
12.1899
12.2314
10.2613
9.63202
1
1
1
1
1
1
1
1
1
1
1
1
1
1
1
1.08339
7.32938
10.8232
10.861
10.9393
10.717
9.94033
9.75875
9.91081
11.761
12.2322
11.7981
9.72158
10.0643
10.259
1
1
1
1
1
1
1
1
1
1
1
1
1
1
1
1.00754
7.08362
10.8263
10.7251
10.5246
9.56171
9.49069
9.93164
11.5654
11.9833
11.863
10.0828
9.02728
9.86711
11.558
1
1
1
1
1
1
1
1
1
1
1
1
1
1
1
0.999777
6.62562
10.4481
10.1948
9.62226
9.4113
9.68311
11.3515
11.9929
12.1188
10.4312
9.06393
8.61347
9.62903
12.2771
1
1
1
1
1
1
1
1
1
1
1
1
1
1
1
0.999953
5.83832
9.71177
9.58052
9.5885
10.0019
11.5082
11.6645
11.2919
10.0207
9.28847
9.36738
9.24249
10.9586
12.0326
1
1
1
1
1
1
1
1
1
1
1
1
1
1
1
1.00003
5.46355
9.58109
9.37196
9.8129
11.202
11.6163
11.7963
10.9178
8.64544
8.7788
9.63651
11.9526
11.341
10.9526
1
1
1
1
1
1
1
1
1
1
1
1
1
1
1
0.999991
5.05751
9.47781
9.93854
10.8548
11.0306
11.0652
10.8213
9.34649
8.95133
9.01764
11.7014
12.0052
10.8862
8.59523
1
1
1
1
1
1
1
1
1
1
1
1
1
1
1
0.999988
4.82987
9.7437
10.7629
11.0256
11.0014
10.6102
8.88249
8.98981
9.2298
11.5092
11.9935
11.4918
10.2621
7.57527
1
1
1
1
1
1
1
1
1
1
1
1
1
1
1
0.999992
4.49157
9.99959
10.5776
10.6564
10.3369
9.0929
8.85603
9.49749
11.7238
11.8396
11.1825
10.7403
8.25189
7.12112
1
1
1
1
1
1
1
1
1
1
1
1
1
1
1
0.999999
3.20611
9.14813
9.85804
9.76834
9.74124
9.99752
10.3808
10.6808
10.7113
10.1314
9.3014
8.56016
8.42729
6.95215
1
1
1
1
1
1
1
1
1
1
1
1
1
1
1
1
1.54479
7.73941
9.86904
9.95296
10.0811
10.0968
10.0726
9.91272
9.60025
9.39253
9.28087
8.93446
8.01418
6.33171
1
1
1
1
1
1
1
1
1
1
1
1
1
1
1
1
1.02381
5.71512
9.6257
9.75196
9.74226
9.67341
9.58205
9.47975
9.40238
9.24345
8.86053
8.24101
7.14271
5.80181
1
1
1
1
1
1
1
1
1
1
1
1
1
1
1
1
0.999948
2.95612
8.70714
9.49254
9.51729
9.50804
9.43588
9.29703
9.09106
8.78122
8.32751
7.74236
6.83192
5.86048
1
1
1
1
1
1
1
1
1
1
1
1
1
1
1
1
0.999987
1.1941
6.89168
9.52017
9.41833
9.35586
9.19856
8.98414
8.71795
8.41019
8.02019
7.49411
6.70179
5.90688
1
1
1
1
1
1
1
1
1
1
1
1
1
1
1
1
0.999998
1.00177
3.94654
8.76765
9.14246
9.03602
8.91101
8.71485
8.46701
8.14709
7.77373
7.25333
6.61752
5.96005
1
1
1
1
1
1
1
1
1
1
1
1
1
1
1
1
1
0.999992
1.38699
7.15331
9.08315
8.86581
8.72929
8.53278
8.2698
7.94448
7.55669
7.09688
6.57055
5.99914
1
1
1
1
1
1
1
1
1
1
1
1
1
1
1
1
1
0.999999
1.0082
4.11355
8.40554
8.5868
8.48444
8.30495
8.06624
7.76878
7.40791
6.99037
6.53137
6.03725
1
1
1
1
1
1
1
1
1
1
1
1
1
1
1
1
1
1
0.999992
1.41818
6.47237
8.53107
8.33397
8.1468
7.90791
7.62547
7.29663
6.9212
6.50909
6.07527
1
1
1
1
1
1
1
1
1
1
1
1
1
1
1
1
1
1
0.999998
1.00933
3.02283
7.70163
8.15495
7.97051
7.75125
7.49068
7.19483
6.8601
6.49365
6.1147
1
1
1
1
1
1
1
1
1
1
1
1
1
1
1
1
1
1
1
1.00002
1.19075
5.11023
8.04121
7.8874
7.67577
7.42044
7.13027
6.81748
6.4826
6.14791
1
1
1
1
1
1
1
1
1
1
1
1
1
1
1
1
1
1
1
1
1.0022
1.80696
6.26255
7.7819
7.59231
7.34548
7.06603
6.77829
6.47299
6.17546
1
1
1
1
1
1
1
1
1
1
1
1
1
1
1
1
1
1
1
1
1
1.03279
2.70193
6.87311
7.60577
7.31326
7.06571
6.79778
6.51216
6.22834
1
1
1
1
1
1
1
1
1
1
1
1
1
1
1
1
1
1
1
1
1
1.00019
1.13973
3.92633
7.16772
7.3185
7.0573
6.79572
6.52611
6.24874
1
1
1
1
1
1
1
1
1
1
1
1
1
1
1
1
1
1
1
1
1
1
1.0016
1.42015
4.79176
7.15141
7.05853
6.79062
6.53986
6.27528
1
1
1
1
1
1
1
1
1
1
1
1
1
1
1
1
1
1
1
1
1
1
1
1.01037
1.77679
5.32589
6.94313
6.80637
6.55695
6.30342
1
1
1
1
1
1
1
1
1
1
1
1
1
1
1
1
1
1
1
1
1
1
1
1.00005
1.03182
2.14731
5.58021
6.74239
6.59901
6.347
1
1
1
1
1
1
1
1
1
1
1
1
1
1
1
1
1
1
1
1
1
1
1
1
1.00022
1.06726
2.46187
5.67019
6.55579
6.41901
1
1
1
1
1
1
1
1
1
1
1
1
1
1
1
1
1
1
1
1
1
1
1
1
1
1.00066
1.10981
2.68031
5.64907
6.38716
1
1
1
1
1
1
1
1
1
1
1
1
1
1
1
1
1
1
1
1
1
1
1
1
1
1
1.00138
1.14888
2.78946
5.63282
1
1
1
1
1
1
1
1
1
1
1
1
1
1
1
1
1
1
1
1
1
1
1
1
1
1
1
1.00239
1.16963
3.16832
1
1
1
1
1
1
1
1
1
1
1
1
1
1
1
1
1
1
1
1
1
1
1
1
1
1
1
1.00001
1.00249
1.27651
1
1
1
1
1
1
1
1
1
1
1
1
1
1
1
1
1
1
1
1
1
1
1
1
1
1
1
1
1.00001
1.0053
1
1
1
1
1
1
1
1
1
1
1
1
1
1
1
1
1
1
1
1
1
1
1
1
1
1
1
1
1
1.00001
1
1
1
1
1
1
1
1
1
1
1
1
1
1
1
1
1
1
1
1
1
1
1
1
1
1
1
1
1
1
1
1
1
1
1
1
1
1
1
1
1
1
1
1
1
1
1
1
1
1
1
1
1
1
1
1
1
1
1
1
1
1
1
1
1
1
1
1
1
1
1
1
1
1
1
1
1
1
1
1
1
1
1
1
1
1
1
1
1
1
1
1
1
1
1
1
1
1
1
1
1
1
1
1
1
1
1
1
1
1
1
1
1
1
1
1
1
1
1
1
1
1
1
1
1
1
1
1
1
1
1
1
1
1
1
1
1
1
1
1
1
1
1
1
1
1
1
1
1
1
1
1
1
1
1
1
1
1
1
1
1
1
1
1
1
1
1
1
1
1
1
1
1
1
1
1
1
1
1
1
1.01626
0.720864
0.907322
1.04542
1.17203
1.21846
1.27369
1.31745
1.30377
1.63491
4.111
5.67521
5.75204
5.61167
5.34294
5.07647
4.82182
4.58608
4.33704
4.09595
3.86576
3.6486
3.44732
3.26826
3.10251
2.94239
2.78759
2.63996
2.51668
2.32164
2.44813
1.02644
0.970938
1.02519
1.11902
1.1966
1.27108
1.29498
1.29315
1.54851
4.08068
5.72999
5.72687
5.56493
5.30402
5.04887
4.80212
4.54302
4.32293
4.08885
3.86418
3.64682
3.44024
3.25567
3.08939
2.9337
2.78393
2.63848
2.5153
2.32087
3.14212
1.37152
1.00797
1.0305
1.1057
1.21013
1.26629
1.29085
1.29429
1.51311
4.06797
5.80905
5.73348
5.57608
5.31661
5.05402
4.79208
4.5488
4.30983
4.07504
3.85945
3.65598
3.45418
3.25855
3.07789
2.91518
2.76643
2.62425
2.50221
2.30901
3.67388
1.85007
1.23445
1.05358
1.07573
1.15908
1.26096
1.27914
1.28314
1.57614
3.67138
6.00399
5.75561
5.51049
5.28048
5.02998
4.77277
4.5229
4.28699
4.0591
3.84837
3.65006
3.45526
3.26424
3.0812
2.9139
2.76269
2.62232
2.50282
2.31211
4.05858
2.30499
1.5041
1.15184
1.07432
1.11898
1.19081
1.24719
1.30424
1.83308
3.16766
5.57434
5.83314
5.45279
5.23065
5.00992
4.76824
4.51654
4.27352
4.04183
3.83017
3.63526
3.44534
3.25778
3.07464
2.90414
2.74989
2.60706
2.48841
2.30436
4.35752
2.71572
1.82862
1.34889
1.13424
1.11589
1.13611
1.1958
1.35516
2.25155
2.93093
4.83386
5.6946
5.4331
5.21151
4.99198
4.75321
4.50557
4.26177
4.02678
3.81161
3.61681
3.43061
3.24769
3.06772
2.89726
2.74093
2.59721
2.48039
2.29967
4.60532
3.05339
2.14463
1.54112
1.25706
1.13573
1.12376
1.15185
1.48487
2.67449
2.92028
3.8933
5.33726
5.36814
5.17447
4.94681
4.71375
4.48689
4.26011
4.02844
3.8065
3.60474
3.41733
3.23827
3.06113
2.88889
2.7285
2.58237
2.46862
2.29409
4.78174
3.34561
2.4322
1.76131
1.4264
1.20646
1.12973
1.16311
1.73081
2.96275
2.9835
3.19232
4.63343
5.24367
5.12841
4.89038
4.66019
4.45229
4.24662
4.02833
3.80561
3.59405
3.39971
3.21883
3.0435
2.87492
2.71798
2.57295
2.46028
2.28654
4.92858
3.58057
2.68183
1.97757
1.60662
1.30825
1.15568
1.21576
2.06293
3.03122
3.04766
2.98234
3.74255
4.93599
5.10127
4.84186
4.61348
4.41216
4.2158
4.01225
3.79717
3.58175
3.37813
3.19165
3.01885
2.85824
2.70808
2.56591
2.45349
2.27835
5.03171
3.81678
2.88129
2.18511
1.79574
1.44197
1.2248
1.4046
2.4389
2.9038
3.00443
2.90272
3.08349
4.27948
4.95292
4.79712
4.58664
4.37254
4.16782
3.97193
3.77236
3.56677
3.35915
3.16508
2.9933
2.84138
2.70032
2.56306
2.45001
2.27008
5.12637
4.02861
3.06168
2.3936
1.97499
1.57439
1.32616
1.76057
2.88277
2.93519
2.89086
2.79128
2.7693
3.43421
4.58006
4.78627
4.56041
4.3336
4.12413
3.92645
3.73183
3.53614
3.33619
3.14331
2.97118
2.82275
2.69035
2.56155
2.44943
2.2641
5.2227
4.2214
3.21134
2.61133
2.13293
1.70119
1.50251
2.30667
3.15352
3.02702
2.85597
2.73102
2.61225
2.77423
3.84425
4.60011
4.51275
4.30098
4.08767
3.88331
3.68504
3.49305
3.30467
3.12346
2.95505
2.80743
2.67804
2.55422
2.44427
2.25731
5.32731
4.37743
3.36213
2.82323
2.25943
1.84982
1.84381
2.92678
3.27423
3.12545
2.88212
2.69459
2.54442
2.45909
2.96284
4.11011
4.4354
4.26682
4.06104
3.84564
3.64166
3.45143
3.27083
3.10121
2.94159
2.79494
2.66428
2.54143
2.4332
2.24809
5.42391
4.48514
3.521
3.01176
2.37262
2.00575
2.42209
3.54945
3.40696
3.18028
2.926
2.69971
2.52071
2.37051
2.41643
3.27119
4.17483
4.22997
4.0329
3.81364
3.60793
3.41755
3.24174
3.08192
2.93181
2.78647
2.65083
2.52424
2.41638
2.23524
5.53764
4.5619
3.70099
3.16975
2.49435
2.21781
3.23778
4.01855
3.65318
3.28662
3.0069
2.74544
2.53029
2.34384
2.22192
2.47234
3.53517
4.06717
3.96315
3.77616
3.57676
3.38862
3.21805
3.06308
2.91663
2.77443
2.63727
2.50507
2.39482
2.21676
5.64274
4.61736
3.89928
3.2872
2.6455
2.62641
4.13553
4.25285
3.85648
3.41105
3.08205
2.80191
2.56117
2.35546
2.19239
2.11786
2.67177
3.68017
3.88752
3.73229
3.546
3.36261
3.19696
3.04597
2.89723
2.75515
2.61728
2.48058
2.37089
2.19721
5.72825
4.70075
4.11114
3.3665
2.79702
3.3881
4.8963
4.48558
4.01081
3.5534
3.18296
2.88378
2.6209
2.39246
2.1806
2.02847
2.09783
2.91686
3.69047
3.67057
3.49734
3.33934
3.2007
3.05199
2.90009
2.7489
2.59567
2.45454
2.34507
2.17764
5.79961
4.84172
4.28376
3.4294
3.0068
4.46033
5.38483
4.76305
4.16311
3.68125
3.28157
2.95552
2.67445
2.43483
2.21393
2.017
1.91806
2.17178
3.11279
3.51892
3.45887
3.30697
3.13178
2.97778
2.83429
2.6883
2.57107
2.45
2.34011
2.16347
5.89371
5.04249
4.37357
3.53141
3.54348
5.55871
5.61249
4.98961
4.3246
3.80487
3.38343
3.0368
2.74106
2.48585
2.25961
2.0378
1.87741
1.83477
2.36604
3.24507
3.38421
3.2622
3.08142
2.92599
2.78509
2.65369
2.53391
2.40859
2.29642
2.14019
5.97488
5.28287
4.38676
3.64865
4.60393
6.46305
5.79777
5.13411
4.48274
3.93856
3.4911
3.11737
2.7991
2.52372
2.28598
2.06578
1.86071
1.74741
1.83734
2.58992
3.19895
3.16837
3.03186
2.88531
2.73795
2.62341
2.50438
2.38135
2.27563
2.12563
5.93368
5.50087
4.48162
3.8778
6.1081
6.99315
6.0629
5.2803
4.61968
4.0559
3.5851
3.19103
2.85795
2.57164
2.32515
2.11055
1.898
1.73597
1.66306
1.96369
2.76314
3.03114
2.97942
2.85322
2.70931
2.58891
2.46387
2.35065
2.26812
2.11772
5.52719
5.32839
4.33899
4.70395
7.54278
7.24899
6.27529
5.4221
4.74246
4.168
3.68111
3.27004
2.92149
2.62108
2.35777
2.1366
1.93557
1.73602
1.61668
1.61881
2.14209
2.82736
2.92462
2.82055
2.68207
2.55554
2.43462
2.33244
2.2347
2.10759
4.63931
4.99423
4.38697
6.36649
8.53286
7.4455
6.43796
5.56534
4.86186
4.27165
3.76651
3.33632
2.97221
2.66184
2.39173
2.15836
1.96141
1.7685
1.60076
1.51805
1.64693
2.31102
2.76357
2.74569
2.6472
2.52326
2.4079
2.31095
2.20825
2.11446
3.09709
4.70044
4.81518
8.33968
9.03848
7.65078
6.58687
5.69995
4.97092
4.36139
3.84196
3.40014
3.02421
2.70274
2.42342
2.17784
1.97501
1.79812
1.61675
1.49935
1.44855
1.77799
2.47114
2.66409
2.61074
2.503
2.39216
2.27642
2.18794
2.19865
2.18618
4.28014
6.22105
9.78747
9.24927
7.78003
6.68606
5.79632
5.05726
4.43717
3.90957
3.45789
3.06981
2.73789
2.45342
2.20357
1.98962
1.81039
1.63639
1.47852
1.3947
1.44318
1.95121
2.49974
2.5636
2.47952
2.36878
2.24069
2.17545
2.45286
1.436
3.65728
7.69669
10.7667
9.40142
7.89033
6.77483
5.8769
5.12813
4.49859
3.96412
3.50586
3.1092
2.76549
2.47305
2.22294
2.0065
1.82762
1.6675
1.49805
1.37671
1.31871
1.49254
2.09496
2.4202
2.41706
2.32534
2.22537
2.26143
2.9337
1.05767
2.80228
9.08096
11.3061
9.58659
7.9393
6.83308
5.94076
5.18624
4.54636
4.00242
3.53838
3.13874
2.79044
2.49097
2.23556
2.01617
1.83448
1.68373
1.5268
1.37747
1.28539
1.27357
1.6143
2.19856
2.33163
2.28064
2.29693
2.65252
3.41792
0.996327
2.30284
10.6639
11.982
9.70642
7.99396
6.88016
5.99461
5.24165
4.59607
4.04319
3.56903
3.16074
2.80756
2.50509
2.24809
2.02879
1.84203
1.68414
1.53968
1.39999
1.26979
1.21022
1.2664
1.73975
2.17711
2.27965
2.63694
3.4231
3.79115
0.998019
2.44754
11.4484
12.2196
9.73319
8.05071
6.92268
6.03247
5.27736
4.628
4.0691
3.58741
3.17201
2.81451
2.51058
2.25373
2.03544
1.84757
1.68388
1.54872
1.40928
1.28562
1.20278
1.1505
1.35136
1.87224
2.44339
3.27961
3.79345
3.84879
0.998612
2.52477
12.3477
12.7056
9.78419
8.06723
6.92831
6.0437
5.29595
4.65172
4.09275
3.60426
3.17945
2.81673
2.51214
2.2557
2.03729
1.85051
1.6853
1.54477
1.41979
1.30055
1.16346
1.07999
1.12889
1.66155
2.81515
3.99438
4.22469
3.96373
)
;

boundaryField
{
    inlet
    {
        type            fixedValue;
        value           uniform 1;
    }
    outlet
    {
        type            zeroGradient;
    }
    top
    {
        type            symmetryPlane;
    }
    bottom
    {
        type            symmetryPlane;
    }
    step
    {
        type            zeroGradient;
    }
    defaultFaces
    {
        type            empty;
    }
}


// ************************************************************************* //
