/*--------------------------------*- C++ -*----------------------------------*\
  =========                 |
  \\      /  F ield         | OpenFOAM: The Open Source CFD Toolbox
   \\    /   O peration     | Website:  https://openfoam.org
    \\  /    A nd           | Version:  6.0
     \\/     M anipulation  |
\*---------------------------------------------------------------------------*/
FoamFile
{
    version     2.0;
    format      ascii;
    class       volScalarField;
    location    "3.000888";
    object      rho;
}
// * * * * * * * * * * * * * * * * * * * * * * * * * * * * * * * * * * * * * //

dimensions      [1 -3 0 0 0 0 0];

internalField   nonuniform List<scalar> 
2700
(
1.39997
1.39997
1.39997
1.39997
1.39997
1.39997
1.39997
1.39997
1.39997
1.39997
1.39997
1.39997
1.39997
1.39997
1.39997
2.86867
5.30627
5.49198
5.46645
5.44026
5.47534
5.71783
5.9824
6.02185
5.78466
5.49468
5.66423
5.98716
5.99722
5.8284
1.39997
1.39997
1.39997
1.39997
1.39997
1.39997
1.39997
1.39997
1.39997
1.39997
1.39997
1.39997
1.39997
1.39997
1.39997
2.8391
5.23176
5.46926
5.54337
5.60528
5.67524
5.6768
5.6657
5.75306
5.86821
5.9262
5.86856
5.82637
5.83758
5.9551
1.39997
1.39997
1.39997
1.39997
1.39997
1.39997
1.39997
1.39997
1.39997
1.39997
1.39997
1.39997
1.39997
1.39997
1.39997
2.81953
5.21009
5.3588
5.52341
5.72998
5.80687
5.68005
5.49757
5.44371
5.75644
6.19919
6.09734
5.71791
5.68926
5.83418
1.39997
1.39997
1.39997
1.39997
1.39997
1.39997
1.39997
1.39997
1.39997
1.39997
1.39997
1.39997
1.39997
1.39997
1.39997
2.80325
5.20687
5.41618
5.53153
5.652
5.7204
5.66765
5.53171
5.52202
5.8333
6.02978
5.93375
5.81876
5.69556
6.00398
1.39997
1.39997
1.39997
1.39997
1.39997
1.39997
1.39997
1.39997
1.39997
1.39997
1.39997
1.39997
1.39997
1.39997
1.39997
2.79826
5.24104
5.50152
5.50248
5.50563
5.52792
5.68324
5.80786
5.89232
5.80357
5.63914
5.73198
5.87048
5.90903
5.97161
1.39997
1.39997
1.39997
1.39997
1.39997
1.39997
1.39997
1.39997
1.39997
1.39997
1.39997
1.39997
1.39997
1.39997
1.39997
2.77457
5.26333
5.53035
5.5102
5.46016
5.4319
5.56376
5.9607
6.13847
5.84785
5.50501
5.53931
5.70907
6.07297
6.01829
1.39997
1.39997
1.39997
1.39997
1.39997
1.39997
1.39997
1.39997
1.39997
1.39997
1.39997
1.39997
1.39997
1.39997
1.39997
2.72798
5.23957
5.45396
5.47611
5.49704
5.56664
5.73856
5.86447
5.88773
5.76497
5.67948
5.76648
6.03644
5.95913
5.82979
1.39997
1.39997
1.39997
1.39997
1.39997
1.39997
1.39997
1.39997
1.39997
1.39997
1.39997
1.39997
1.39997
1.39997
1.39997
2.66286
5.17845
5.34123
5.42595
5.62387
5.78838
5.79206
5.64385
5.49513
5.71702
5.95388
6.08949
6.02397
5.71831
5.66994
1.39997
1.39997
1.39997
1.39997
1.39997
1.39997
1.39997
1.39997
1.39997
1.39997
1.39997
1.39997
1.39997
1.39997
1.39997
2.60337
5.1166
5.32575
5.47788
5.68133
5.81711
5.76216
5.52056
5.43598
5.65746
6.09005
6.17023
5.86629
5.67288
5.66842
1.39997
1.39997
1.39997
1.39997
1.39997
1.39997
1.39997
1.39997
1.39997
1.39997
1.39997
1.39997
1.39997
1.39997
1.39997
2.53505
5.08292
5.48456
5.57697
5.61538
5.60887
5.59246
5.6184
5.65102
5.87042
5.97826
5.83615
5.64819
5.73736
5.9852
1.39997
1.39997
1.39997
1.39997
1.39997
1.39997
1.39997
1.39997
1.39997
1.39997
1.39997
1.39997
1.39997
1.39997
1.39997
2.50512
5.11077
5.57047
5.60723
5.54372
5.4018
5.40734
5.68665
6.00442
5.98989
5.76464
5.47917
5.55036
5.84759
6.17674
1.39997
1.39997
1.39997
1.39997
1.39997
1.39997
1.39997
1.39997
1.39997
1.39997
1.39997
1.39997
1.39997
1.39997
1.39997
2.46123
5.16281
5.52969
5.49857
5.4263
5.38676
5.48776
5.81874
6.04619
5.9933
5.57855
5.43613
5.48416
5.8007
6.13249
1.39997
1.39997
1.39997
1.39997
1.39997
1.39997
1.39997
1.39997
1.39997
1.39997
1.39997
1.39997
1.39997
1.39997
1.39997
2.37271
5.1228
5.40441
5.37626
5.43815
5.61803
5.83815
5.81997
5.79136
5.5833
5.59458
5.74804
5.88473
5.88559
5.64605
1.39997
1.39997
1.39997
1.39997
1.39997
1.39997
1.39997
1.39997
1.39997
1.39997
1.39997
1.39997
1.39997
1.39997
1.39997
2.26757
5.0073
5.2943
5.2867
5.47974
5.80028
5.93981
5.90739
5.47316
5.31568
5.5111
6.08517
6.21505
5.82306
5.34156
1.39997
1.39997
1.39997
1.39997
1.39997
1.39997
1.39997
1.39997
1.39997
1.39997
1.39997
1.39997
1.39997
1.39997
1.39997
2.15705
4.87239
5.30686
5.49308
5.69354
5.74667
5.78256
5.54144
5.45702
5.48033
5.86999
6.11715
6.27755
5.67356
5.45768
1.39997
1.39997
1.39997
1.39997
1.39997
1.39997
1.39997
1.39997
1.39997
1.39997
1.39997
1.39997
1.39997
1.39997
1.39997
2.06659
4.77177
5.47128
5.67113
5.7009
5.64262
5.40345
5.34115
5.535
5.99317
6.03048
5.91355
5.47275
5.69608
5.90876
1.39997
1.39997
1.39997
1.39997
1.39997
1.39997
1.39997
1.39997
1.39997
1.39997
1.39997
1.39997
1.39997
1.39997
1.39997
2.02727
4.84813
5.58589
5.64421
5.64753
5.41654
5.26208
5.2625
5.7119
6.11487
6.20699
5.51657
5.1431
5.53351
6.14313
1.39997
1.39997
1.39997
1.39997
1.39997
1.39997
1.39997
1.39997
1.39997
1.39997
1.39997
1.39997
1.39997
1.39997
1.39997
1.94565
4.86387
5.56861
5.51449
5.36682
5.36835
5.46032
5.79115
5.92557
5.93752
5.66307
5.42562
5.23699
5.52989
6.14134
1.39997
1.39997
1.39997
1.39997
1.39997
1.39997
1.39997
1.39997
1.39997
1.39997
1.39997
1.39997
1.39997
1.39997
1.39997
1.84552
4.74536
5.53525
5.27753
5.21816
5.3197
5.79614
6.03799
5.96433
5.55341
5.2381
5.38462
5.67448
5.86848
6.00206
1.39997
1.39997
1.39997
1.39997
1.39997
1.39997
1.39997
1.39997
1.39997
1.39997
1.39997
1.39997
1.39997
1.39997
1.39997
1.72595
4.54747
5.35132
5.24811
5.31661
5.63053
5.87578
5.99599
5.87147
5.27128
5.14637
5.57488
6.11377
5.97049
5.43792
1.39997
1.39997
1.39997
1.39997
1.39997
1.39997
1.39997
1.39997
1.39997
1.39997
1.39997
1.39997
1.39997
1.39997
1.39997
1.61083
4.40809
5.24188
5.33779
5.73897
5.81768
5.72298
5.61162
5.34175
5.41033
5.44778
5.99306
6.10273
5.81651
5.2564
1.39997
1.39997
1.39997
1.39997
1.39997
1.39997
1.39997
1.39997
1.39997
1.39997
1.39997
1.39997
1.39997
1.39997
1.39997
1.51796
4.34282
5.36807
5.65121
5.79232
5.88491
5.68894
5.11951
5.13671
5.39577
6.01885
6.07775
6.10006
5.35532
5.11755
1.39997
1.39997
1.39997
1.39997
1.39997
1.39997
1.39997
1.39997
1.39997
1.39997
1.39997
1.39997
1.39997
1.39997
1.39997
1.45221
4.36911
5.63816
5.64382
5.66479
5.57298
5.26954
5.19424
5.25349
5.93188
6.09986
5.94341
5.16613
5.28449
5.35902
1.39997
1.39997
1.39997
1.39997
1.39997
1.39997
1.39997
1.39997
1.39997
1.39997
1.39997
1.39997
1.39997
1.39997
1.39997
1.4055
4.26383
5.63595
5.59952
5.51796
5.13906
5.10499
5.2721
5.86517
6.01716
5.97838
5.31431
4.9105
5.21121
5.82868
1.39997
1.39997
1.39997
1.39997
1.39997
1.39997
1.39997
1.39997
1.39997
1.39997
1.39997
1.39997
1.39997
1.39997
1.39997
1.39974
4.06298
5.47832
5.39179
5.1743
5.08631
5.18966
5.7997
6.02896
6.07813
5.4531
4.92932
4.75346
5.13086
6.09226
1.39997
1.39997
1.39997
1.39997
1.39997
1.39997
1.39997
1.39997
1.39997
1.39997
1.39997
1.39997
1.39997
1.39997
1.39997
1.39992
3.71271
5.17597
5.14486
5.15903
5.32093
5.87168
5.92461
5.78336
5.31086
5.02563
5.04812
5.01038
5.6242
6.01362
1.39997
1.39997
1.39997
1.39997
1.39997
1.39997
1.39997
1.39997
1.39997
1.39997
1.39997
1.39997
1.39997
1.39997
1.39997
1.4
3.54656
5.11202
5.05543
5.24089
5.76785
5.91744
5.98314
5.65603
4.78732
4.83473
5.16745
6.00534
5.76781
5.63876
1.39997
1.39997
1.39997
1.39997
1.39997
1.39997
1.39997
1.39997
1.39997
1.39997
1.39997
1.39997
1.39997
1.39997
1.39997
1.39996
3.37455
5.05459
5.25749
5.62071
5.70352
5.72194
5.62817
5.06377
4.9137
4.95335
5.9341
6.03395
5.61743
4.73265
1.39997
1.39997
1.39997
1.39997
1.39997
1.39997
1.39997
1.39997
1.39997
1.39997
1.39997
1.39997
1.39997
1.39997
1.39997
1.39996
3.27404
5.14034
5.5452
5.66578
5.6742
5.54497
4.88219
4.92389
5.03385
5.86761
6.04226
5.85695
5.40396
4.32481
1.39997
1.39997
1.39997
1.39997
1.39997
1.39997
1.39997
1.39997
1.39997
1.39997
1.39997
1.39997
1.39997
1.39997
1.39997
1.39996
3.1286
5.2371
5.47252
5.515
5.40586
4.94442
4.86007
5.11016
5.93351
5.97722
5.73173
5.57317
4.56485
4.10079
1.39997
1.39997
1.39997
1.39997
1.39997
1.39997
1.39997
1.39997
1.39997
1.39997
1.39997
1.39997
1.39997
1.39997
1.39997
1.39997
2.57612
4.99308
5.22512
5.18675
5.1756
5.2739
5.42016
5.53268
5.5361
5.31202
4.99163
4.68502
4.60469
3.86468
1.39997
1.39997
1.39997
1.39997
1.39997
1.39997
1.39997
1.39997
1.39997
1.39997
1.39997
1.39997
1.39997
1.39997
1.39997
1.39997
1.75286
4.60286
5.30109
5.29127
5.32071
5.31721
5.30244
5.23835
5.11528
5.0312
4.98181
4.83807
4.45123
3.65849
1.39997
1.39997
1.39997
1.39997
1.39997
1.39997
1.39997
1.39997
1.39997
1.39997
1.39997
1.39997
1.39997
1.39997
1.39997
1.39997
1.41894
3.73682
5.24813
5.2545
5.22403
5.17788
5.13124
5.08366
5.04561
4.9769
4.82272
4.56981
4.11489
3.52973
1.39997
1.39997
1.39997
1.39997
1.39997
1.39997
1.39997
1.39997
1.39997
1.39997
1.39997
1.39997
1.39997
1.39997
1.39997
1.39997
1.3999
2.49924
4.97157
5.21276
5.18362
5.15378
5.10769
5.03565
4.94044
4.8083
4.6205
4.37887
3.99923
3.57554
1.39997
1.39997
1.39997
1.39997
1.39997
1.39997
1.39997
1.39997
1.39997
1.39997
1.39997
1.39997
1.39997
1.39997
1.39997
1.39997
1.39996
1.54493
4.27561
5.24163
5.18554
5.13921
5.05629
4.94963
4.82372
4.68319
4.51235
4.2882
3.95252
3.60596
1.39997
1.39997
1.39997
1.39997
1.39997
1.39997
1.39997
1.39997
1.39997
1.39997
1.39997
1.39997
1.39997
1.39997
1.39997
1.39997
1.39997
1.40134
2.97647
4.98056
5.09505
5.04617
4.98091
4.88238
4.7602
4.60877
4.43823
4.20883
3.93154
3.63999
1.39997
1.39997
1.39997
1.39997
1.39997
1.39997
1.39997
1.39997
1.39997
1.39997
1.39997
1.39997
1.39997
1.39997
1.39997
1.39997
1.39997
1.39996
1.67099
4.42209
5.10553
5.00723
4.93659
4.84039
4.71491
4.56226
4.38289
4.1732
3.93547
3.67436
1.39997
1.39997
1.39997
1.39997
1.39997
1.39997
1.39997
1.39997
1.39997
1.39997
1.39997
1.39997
1.39997
1.39997
1.39997
1.39997
1.39997
1.39997
1.40656
3.07905
4.88819
4.90495
4.85752
4.77329
4.66146
4.52284
4.35536
4.16168
3.94871
3.71701
1.39997
1.39997
1.39997
1.39997
1.39997
1.39997
1.39997
1.39997
1.39997
1.39997
1.39997
1.39997
1.39997
1.39997
1.39997
1.39997
1.39997
1.39997
1.39996
1.69258
4.17348
4.92995
4.83384
4.73947
4.6245
4.49177
4.33862
4.16399
3.97087
3.76455
1.39997
1.39997
1.39997
1.39997
1.39997
1.39997
1.39997
1.39997
1.39997
1.39997
1.39997
1.39997
1.39997
1.39997
1.39997
1.39997
1.39997
1.39997
1.39997
1.4076
2.59881
4.71765
4.79048
4.70119
4.59205
4.46525
4.32405
4.16628
3.99338
3.81217
1.39997
1.39997
1.39997
1.39997
1.39997
1.39997
1.39997
1.39997
1.39997
1.39997
1.39997
1.39997
1.39997
1.39997
1.39997
1.39997
1.39997
1.39997
1.39997
1.39999
1.54535
3.61217
4.79353
4.71178
4.60196
4.47301
4.33
4.17803
4.01713
3.8555
1.39997
1.39997
1.39997
1.39997
1.39997
1.39997
1.39997
1.39997
1.39997
1.39997
1.39997
1.39997
1.39997
1.39997
1.39997
1.39997
1.39997
1.39997
1.39997
1.39997
1.40184
1.94205
4.15901
4.71753
4.61849
4.48877
4.34465
4.19847
4.04627
3.89865
1.39997
1.39997
1.39997
1.39997
1.39997
1.39997
1.39997
1.39997
1.39997
1.39997
1.39997
1.39997
1.39997
1.39997
1.39997
1.39997
1.39997
1.39997
1.39997
1.39997
1.39997
1.42687
2.46505
4.4654
4.67445
4.53001
4.39556
4.2529
4.10445
3.95901
1.39997
1.39997
1.39997
1.39997
1.39997
1.39997
1.39997
1.39997
1.39997
1.39997
1.39997
1.39997
1.39997
1.39997
1.39997
1.39997
1.39997
1.39997
1.39997
1.39997
1.39997
1.40015
1.50972
3.10649
4.58289
4.56902
4.43767
4.29967
4.1566
4.01036
1.39997
1.39997
1.39997
1.39997
1.39997
1.39997
1.39997
1.39997
1.39997
1.39997
1.39997
1.39997
1.39997
1.39997
1.39997
1.39997
1.39997
1.39997
1.39997
1.39997
1.39997
1.39997
1.4014
1.70447
3.55843
4.55121
4.49316
4.34824
4.21129
4.06823
1.39997
1.39997
1.39997
1.39997
1.39997
1.39997
1.39997
1.39997
1.39997
1.39997
1.39997
1.39997
1.39997
1.39997
1.39997
1.39997
1.39997
1.39997
1.39997
1.39997
1.39997
1.39997
1.39997
1.40883
1.94027
3.81963
4.48597
4.40756
4.27079
4.13041
1.39997
1.39997
1.39997
1.39997
1.39997
1.39997
1.39997
1.39997
1.39997
1.39997
1.39997
1.39997
1.39997
1.39997
1.39997
1.39997
1.39997
1.39997
1.39997
1.39997
1.39997
1.39997
1.39997
1.40001
1.4267
2.17133
3.96101
4.42298
4.34144
4.2022
1.39997
1.39997
1.39997
1.39997
1.39997
1.39997
1.39997
1.39997
1.39997
1.39997
1.39997
1.39997
1.39997
1.39997
1.39997
1.39997
1.39997
1.39997
1.39997
1.39997
1.39997
1.39997
1.39997
1.39997
1.40018
1.45552
2.36421
4.0222
4.3636
4.28556
1.39997
1.39997
1.39997
1.39997
1.39997
1.39997
1.39997
1.39997
1.39997
1.39997
1.39997
1.39997
1.39997
1.39997
1.39997
1.39997
1.39997
1.39997
1.39997
1.39997
1.39997
1.39997
1.39997
1.39997
1.39997
1.40058
1.48914
2.49839
4.02965
4.31023
1.39997
1.39997
1.39997
1.39997
1.39997
1.39997
1.39997
1.39997
1.39997
1.39997
1.39997
1.39997
1.39997
1.39997
1.39997
1.39997
1.39997
1.39997
1.39997
1.39997
1.39997
1.39997
1.39997
1.39997
1.39997
1.39997
1.40124
1.51939
2.57524
4.02115
1.39997
1.39997
1.39997
1.39997
1.39997
1.39997
1.39997
1.39997
1.39997
1.39997
1.39997
1.39997
1.39997
1.39997
1.39997
1.39997
1.39997
1.39997
1.39997
1.39997
1.39997
1.39997
1.39997
1.39997
1.39997
1.39997
1.39997
1.40216
1.53619
2.73945
1.39997
1.39997
1.39997
1.39997
1.39997
1.39997
1.39997
1.39997
1.39997
1.39997
1.39997
1.39997
1.39997
1.39997
1.39997
1.39997
1.39997
1.39997
1.39997
1.39997
1.39997
1.39997
1.39997
1.39997
1.39997
1.39997
1.39997
1.39998
1.40222
1.60723
1.39997
1.39997
1.39997
1.39997
1.39997
1.39997
1.39997
1.39997
1.39997
1.39997
1.39997
1.39997
1.39997
1.39997
1.39997
1.39997
1.39997
1.39997
1.39997
1.39997
1.39997
1.39997
1.39997
1.39997
1.39997
1.39997
1.39997
1.39997
1.39998
1.40454
1.39997
1.39997
1.39997
1.39997
1.39997
1.39997
1.39997
1.39997
1.39997
1.39997
1.39997
1.39997
1.39997
1.39997
1.39997
1.39997
1.39997
1.39997
1.39997
1.39997
1.39997
1.39997
1.39997
1.39997
1.39997
1.39997
1.39997
1.39997
1.39997
1.39998
1.39997
1.39997
1.39997
1.39997
1.39997
1.39997
1.39997
1.39997
1.39997
1.39997
1.39997
1.39997
1.39997
1.39997
1.39997
1.39997
1.39997
1.39997
1.39997
1.39997
1.39997
1.39997
1.39997
1.39997
1.39997
1.39997
1.39997
1.39997
1.39997
1.39997
1.39997
1.39997
1.39997
1.39997
1.39997
1.39997
1.39997
1.39997
1.39997
1.39997
1.39997
1.39997
1.39997
1.39997
1.39997
1.39997
1.39997
1.39997
1.39997
1.39997
1.39997
1.39997
1.39997
1.39997
1.39997
1.39997
1.39997
1.39997
1.39997
1.39997
1.39997
1.39997
1.39997
1.39997
1.39997
1.39997
1.39997
1.39997
1.39997
1.39997
1.39997
1.39997
1.39997
1.39997
1.39997
1.39997
1.39997
1.39997
1.39997
1.39997
1.39997
1.39997
1.39997
1.39997
1.39997
1.39997
1.39997
1.39997
1.39997
1.39997
1.39997
1.39997
1.39997
1.39997
1.39997
1.39997
1.39997
1.39997
1.39997
1.39997
1.39997
1.39997
1.39997
1.39997
1.39997
1.39997
1.39997
1.39997
1.39997
1.39997
1.39997
1.39997
1.39997
1.39997
1.39997
1.39997
1.39997
1.39997
1.39997
1.39997
1.39997
1.39997
1.39997
1.39997
1.39997
1.39997
1.39997
1.39997
1.39997
1.39997
1.39997
1.39997
1.39997
1.39997
1.39997
1.39997
1.39997
1.39997
1.39997
1.39997
1.39997
1.39997
1.39997
1.39997
1.39997
1.39997
1.39997
1.39997
1.39997
1.39997
1.39997
1.39997
1.39997
1.39997
1.39997
1.39997
1.39997
1.39997
1.39997
1.39997
1.39997
1.39997
1.39997
1.39997
1.39997
1.39997
1.39997
1.39997
1.39997
1.39997
1.39997
1.39997
1.39997
1.39997
1.39997
1.39997
1.39997
1.39997
1.39997
1.39997
0.832964
0.608522
0.729751
0.821518
0.900406
0.936797
0.974999
1.00544
0.99937
1.14261
2.16129
2.78308
2.86213
2.85686
2.80543
2.74601
2.67921
2.60331
2.50648
2.40272
2.29945
2.20181
2.11314
2.03673
1.96787
1.90147
1.83544
1.76957
1.71211
1.6178
1.68107
0.81909
0.801367
0.83513
0.893568
0.944638
0.993783
1.01176
1.01092
1.13439
2.19792
2.85929
2.90554
2.8901
2.83297
2.76982
2.7006
2.61196
2.52388
2.42035
2.31651
2.21599
2.12263
2.042
1.97158
1.90607
1.84137
1.77565
1.71747
1.62232
2.18195
1.11317
0.874259
0.890287
0.939824
1.00519
1.04593
1.06011
1.05973
1.18605
2.32154
3.05176
3.05369
3.0258
2.94948
2.86509
2.77593
2.68457
2.58224
2.47217
2.36597
2.26526
2.16818
2.07771
1.99682
1.92473
1.85757
1.79068
1.73067
1.63248
2.52724
1.48643
1.07626
0.958618
0.978619
1.03714
1.10596
1.11543
1.11527
1.28946
2.34422
3.32097
3.24047
3.15666
3.07188
2.97425
2.8711
2.76576
2.65778
2.54567
2.43678
2.33285
2.2327
2.13796
2.05005
1.97068
1.89789
1.82781
1.7656
1.6633
2.75192
1.80694
1.30261
1.06447
1.01925
1.05441
1.1056
1.14228
1.17788
1.4926
2.21803
3.28951
3.39404
3.24218
3.15063
3.05648
2.95118
2.83835
2.72437
2.61027
2.50119
2.39796
2.29735
2.19979
2.10654
2.02037
1.94134
1.86583
1.80069
1.69664
2.90894
2.06353
1.53953
1.22967
1.08346
1.07809
1.09325
1.13428
1.24006
1.75389
2.12001
3.02928
3.40096
3.28823
3.19243
3.09596
2.99017
2.87833
2.76471
2.65149
2.544
2.44349
2.3457
2.24923
2.15458
2.06479
1.98132
1.90251
1.83632
1.7309
3.03492
2.25695
1.74392
1.37278
1.18589
1.10518
1.0954
1.11449
1.33693
1.98329
2.11757
2.61011
3.27719
3.28536
3.20049
3.0996
2.99635
2.89464
2.79039
2.68079
2.5727
2.47156
2.37517
2.28125
2.18717
2.0948
2.00751
1.92612
1.86093
1.75797
3.13206
2.41802
1.91689
1.51993
1.30755
1.16092
1.10463
1.127
1.48592
2.13303
2.15695
2.27753
2.96929
3.2485
3.19816
3.09275
2.99035
2.8968
2.80268
2.70011
2.59261
2.48782
2.38883
2.29432
2.201
2.10991
2.02376
1.94255
1.87802
1.77573
3.22141
2.54924
2.06336
1.65694
1.42696
1.23236
1.12563
1.16695
1.66679
2.1695
2.19651
2.18501
2.56906
3.13018
3.2081
3.09206
2.98889
2.89726
2.80625
2.70986
2.60585
2.49901
2.395
2.29714
2.20446
2.11688
2.0338
1.95391
1.88962
1.78683
3.29359
2.68317
2.18176
1.78621
1.54876
1.32351
1.17505
1.29418
1.87031
2.12101
2.1979
2.15691
2.2642
2.85849
3.17186
3.10057
3.00281
2.90252
2.80514
2.71047
2.61245
2.50913
2.40193
2.29901
2.20567
2.12161
2.04267
1.96499
1.90019
1.79449
3.36299
2.80717
2.29111
1.91508
1.66358
1.41434
1.24601
1.51147
2.11691
2.16114
2.15133
2.11088
2.12065
2.47483
3.03465
3.13074
3.02421
2.91352
2.8106
2.71274
2.61459
2.51384
2.40859
2.30461
2.20966
2.12621
2.05091
1.97706
1.91221
1.80255
3.43421
2.92266
2.38506
2.04871
1.76538
1.50238
1.36638
1.81806
2.27835
2.22305
2.14536
2.09424
2.04806
2.1488
2.71143
3.08395
3.03816
2.93065
2.82259
2.7189
2.61649
2.51517
2.41378
2.31413
2.21948
2.13499
2.06002
1.98773
1.92313
1.81087
3.51198
3.02226
2.48124
2.17896
1.84894
1.60333
1.58969
2.15784
2.35916
2.29204
2.17738
2.09059
2.02307
1.9936
2.28182
2.88466
3.03644
2.94748
2.84098
2.72905
2.62108
2.5186
2.41969
2.32487
2.23355
2.14803
2.07084
1.99764
1.93276
1.81938
3.58981
3.10014
2.58331
2.29646
1.92637
1.70353
1.92989
2.50439
2.44262
2.33945
2.22062
2.11179
2.02637
1.95663
1.99737
2.48049
2.94767
2.95859
2.85749
2.74156
2.62979
2.52518
2.42778
2.33765
2.25084
2.165
2.08373
2.00698
1.94093
1.82752
3.68077
3.16403
2.69773
2.39841
2.01145
1.83767
2.35599
2.76177
2.59032
2.41725
2.28571
2.15815
2.05125
1.95502
1.90027
2.05562
2.64397
2.90846
2.85041
2.74833
2.63743
2.53211
2.43672
2.34901
2.26403
2.17957
2.09692
2.01601
1.9473
1.83352
3.77252
3.22099
2.82327
2.48009
2.11438
2.08732
2.80993
2.90058
2.7193
2.50742
2.3494
2.21084
2.08777
1.97903
1.89268
1.85977
2.18742
2.73568
2.83424
2.7478
2.64198
2.53797
2.44444
2.35841
2.27195
2.18767
2.1049
2.02114
1.95182
1.83896
3.85903
3.29678
2.96005
2.5439
2.21178
2.50925
3.2173
3.03623
2.82356
2.60882
2.42855
2.2783
2.14104
2.0172
1.89606
1.81186
1.85823
2.33771
2.75475
2.73295
2.63315
2.54334
2.46394
2.37828
2.28982
2.20079
2.10896
2.02215
1.95257
1.84314
3.94073
3.40528
3.08306
2.60248
2.34356
3.03739
3.48425
3.20608
2.93186
2.70379
2.50659
2.33923
2.18902
2.05608
1.92825
1.80904
1.7536
1.91319
2.45744
2.66595
2.62882
2.54171
2.44123
2.35116
2.26658
2.18004
2.1082
2.03232
1.96264
1.84804
4.03324
3.54758
3.16196
2.67983
2.6641
3.57214
3.62688
3.35426
3.04716
2.79708
2.58576
2.4043
2.24283
2.09833
1.96607
1.83035
1.73187
1.70807
2.03689
2.53121
2.59937
2.52976
2.4247
2.33264
2.24896
2.17046
2.09758
2.01932
1.94817
1.8449
4.11302
3.72193
3.21044
2.76635
3.22647
4.04509
3.75451
3.46142
3.15941
2.894
2.66542
2.46593
2.28915
2.13111
1.99035
1.85615
1.72463
1.65462
1.71482
2.17229
2.51127
2.48988
2.40616
2.31818
2.23054
2.16165
2.08923
2.01289
1.94556
1.84531
4.116
3.87623
3.30973
2.92015
3.94453
4.33874
3.92472
3.57059
3.25811
2.9786
2.73403
2.52072
2.33387
2.1684
2.02207
1.89144
1.7559
1.65088
1.60592
1.80251
2.28154
2.42274
2.38759
2.30976
2.22306
2.15006
2.07367
2.00297
1.94902
1.84953
3.88893
3.78966
3.25582
3.40444
4.63155
4.50492
4.06798
3.67243
3.34499
3.05562
2.79992
2.57614
2.38036
2.20656
2.04989
1.91441
1.78819
1.65687
1.57841
1.58333
1.92079
2.3228
2.36615
2.30231
2.21713
2.13915
2.06468
2.0003
1.93689
1.85313
3.35268
3.61545
3.28542
4.22513
5.11909
4.63735
4.17728
3.76599
3.42295
3.12344
2.85755
2.62359
2.41955
2.24019
2.07895
1.93549
1.81171
1.68637
1.57199
1.51926
1.60887
2.03132
2.2916
2.27219
2.20788
2.13003
2.05788
1.99594
1.93031
1.86644
2.54249
3.43311
3.50239
5.08363
5.35632
4.75252
4.26714
3.84756
3.49103
3.18237
2.91002
2.67076
2.4604
2.2746
2.10787
1.95661
1.82801
1.71316
1.59031
1.51131
1.47884
1.70391
2.13732
2.23771
2.20081
2.13079
2.05953
1.98439
1.92981
1.92783
2.2128
3.25753
4.19189
5.68228
5.45474
4.82023
4.3257
3.9078
3.54793
3.23535
2.95988
2.71579
2.49881
2.30707
2.13741
1.9833
1.84677
1.7292
1.61225
1.5015
1.44479
1.48038
1.82308
2.1587
2.18516
2.13013
2.05772
1.97498
1.93278
2.09192
1.80499
3.05234
4.91693
6.08841
5.52585
4.87931
4.38011
3.96198
3.59976
3.28382
3.00567
2.75836
2.53669
2.33771
2.16228
2.00688
1.86779
1.74957
1.64142
1.52208
1.43543
1.39451
1.51973
1.91943
2.11576
2.10454
2.04366
1.9794
1.99767
2.37999
1.45493
2.60366
5.53229
6.31514
5.61983
4.92116
4.43009
4.01667
3.65267
3.33142
3.04756
2.79603
2.5712
2.3677
2.186
2.02539
1.88295
1.7617
1.65856
1.54847
1.44006
1.37219
1.36445
1.60684
1.98837
2.06244
2.02889
2.03567
2.24891
2.68216
1.39583
2.24507
6.067
6.61111
5.70371
4.98056
4.4867
4.0753
3.70975
3.38297
3.09157
2.83159
2.59892
2.38994
2.20429
2.04109
1.8975
1.77187
1.66284
1.56102
1.45954
1.3619
1.31765
1.35905
1.69084
1.97174
2.03806
2.25822
2.7105
2.92712
1.39786
2.33936
6.30659
6.75722
5.76442
5.04528
4.53842
4.12014
3.74961
3.41744
3.11986
2.85314
2.61414
2.40065
2.21272
2.04868
1.90508
1.77814
1.6648
1.569
1.46774
1.375
1.31204
1.27176
1.4229
1.78068
2.14759
2.64165
2.9392
2.98875
1.39857
2.42739
6.68129
6.96134
5.81756
5.07307
4.55455
4.13571
3.76689
3.43598
3.13742
2.86626
2.62118
2.40394
2.21513
2.05108
1.90719
1.78086
1.66636
1.56649
1.47589
1.38699
1.28158
1.21614
1.25474
1.64171
2.38712
3.03401
3.18507
3.05797
)
;

boundaryField
{
    inlet
    {
        type            calculated;
        value           uniform 1.39997;
    }
    outlet
    {
        type            calculated;
        value           nonuniform List<scalar> 
30
(
1.61788
1.62229
1.63242
1.66318
1.69626
1.73048
1.75749
1.77531
1.78651
1.79435
1.80259
1.81101
1.81958
1.8277
1.83367
1.83916
1.84331
1.84828
1.84462
1.84496
1.84926
1.85319
1.86675
1.92849
2.09385
2.38268
2.68417
2.92824
2.99034
3.05972
)
;
    }
    top
    {
        type            symmetryPlane;
    }
    bottom
    {
        type            symmetryPlane;
    }
    step
    {
        type            calculated;
        value           nonuniform List<scalar> 
60
(
5.8284
5.9551
5.83418
6.00398
5.97161
6.01829
5.82979
5.66994
5.66842
5.9852
6.17674
6.13249
5.64605
5.34156
5.45768
5.90876
6.14313
6.14134
6.00206
5.43792
5.2564
5.11755
5.35902
5.82868
6.09226
6.01362
5.63876
4.73265
4.32481
4.10079
0.832964
0.608522
0.729751
0.821518
0.900406
0.936797
0.974999
1.00544
0.99937
1.14261
2.16129
2.78308
2.86213
2.85686
2.80543
2.74601
2.67921
2.60331
2.50648
2.40272
2.29945
2.20181
2.11314
2.03673
1.96787
1.90147
1.83544
1.76957
1.71211
1.6178
)
;
    }
    defaultFaces
    {
        type            empty;
    }
}


// ************************************************************************* //
