/*--------------------------------*- C++ -*----------------------------------*\
  =========                 |
  \\      /  F ield         | OpenFOAM: The Open Source CFD Toolbox
   \\    /   O peration     | Website:  https://openfoam.org
    \\  /    A nd           | Version:  6.0
     \\/     M anipulation  |
\*---------------------------------------------------------------------------*/
FoamFile
{
    version     2.0;
    format      ascii;
    class       volScalarField;
    location    "3.000888";
    object      T;
}
// * * * * * * * * * * * * * * * * * * * * * * * * * * * * * * * * * * * * * //

dimensions      [0 0 0 1 0 0 0];

internalField   nonuniform List<scalar> 
2700
(
1
1
1
1
1
1
1
1
1
1
1
1
1
1
1
1.89834
2.67129
2.71918
2.71611
2.71181
2.71859
2.76645
2.81717
2.82541
2.78379
2.72946
2.76657
2.8336
2.83791
2.80697
1
1
1
1
1
1
1
1
1
1
1
1
1
1
1
1.88349
2.65604
2.715
2.73129
2.74389
2.75752
2.75764
2.7551
2.77367
2.79837
2.81073
2.80541
2.8003
2.80648
2.82975
1
1
1
1
1
1
1
1
1
1
1
1
1
1
1
1.87724
2.65199
2.69304
2.72746
2.7679
2.7824
2.75768
2.72202
2.71188
2.77541
2.86185
2.84626
2.77844
2.77663
2.80482
1
1
1
1
1
1
1
1
1
1
1
1
1
1
1
1.87238
2.65232
2.70463
2.72879
2.75267
2.76553
2.75486
2.72826
2.72674
2.78967
2.82859
2.81474
2.7967
2.7769
2.83692
1
1
1
1
1
1
1
1
1
1
1
1
1
1
1
1.87275
2.65999
2.72112
2.72249
2.72364
2.72769
2.75731
2.78036
2.79721
2.78208
2.75209
2.77479
2.80521
2.81612
2.82876
1
1
1
1
1
1
1
1
1
1
1
1
1
1
1
1.86251
2.66236
2.72626
2.72364
2.71449
2.70829
2.7332
2.80924
2.84264
2.78941
2.72484
2.735
2.77092
2.84678
2.83641
1
1
1
1
1
1
1
1
1
1
1
1
1
1
1
1.83942
2.65322
2.71013
2.71675
2.72131
2.73466
2.76713
2.79025
2.79473
2.77296
2.75784
2.77901
2.83401
2.8244
2.80037
1
1
1
1
1
1
1
1
1
1
1
1
1
1
1
1.80785
2.63655
2.68635
2.70573
2.74522
2.77647
2.77629
2.74736
2.71805
2.76239
2.80921
2.83877
2.82941
2.7768
2.76752
1
1
1
1
1
1
1
1
1
1
1
1
1
1
1
1.78042
2.62158
2.68186
2.71469
2.75495
2.78106
2.76966
2.72243
2.70529
2.74948
2.83368
2.85265
2.7987
2.76608
2.76568
1
1
1
1
1
1
1
1
1
1
1
1
1
1
1
1.75034
2.61229
2.71117
2.73224
2.7409
2.73981
2.7361
2.74072
2.74634
2.79002
2.8112
2.78804
2.75615
2.77841
2.82596
1
1
1
1
1
1
1
1
1
1
1
1
1
1
1
1.74069
2.61538
2.72564
2.73531
2.72539
2.69822
2.69826
2.75269
2.81339
2.81126
2.76855
2.71709
2.73482
2.79778
2.86033
1
1
1
1
1
1
1
1
1
1
1
1
1
1
1
1.71834
2.62057
2.71554
2.71263
2.7011
2.69386
2.71294
2.77685
2.81964
2.80944
2.73179
2.70737
2.71968
2.78791
2.85045
1
1
1
1
1
1
1
1
1
1
1
1
1
1
1
1.67199
2.60173
2.68708
2.68681
2.70179
2.73681
2.77928
2.77527
2.7684
2.73037
2.73385
2.76723
2.79669
2.80381
2.75774
1
1
1
1
1
1
1
1
1
1
1
1
1
1
1
1.61076
2.5705
2.66308
2.66657
2.70692
2.7705
2.79725
2.7892
2.70665
2.67539
2.71335
2.83005
2.85708
2.78996
2.69499
1
1
1
1
1
1
1
1
1
1
1
1
1
1
1
1.5493
2.53822
2.66373
2.70616
2.74675
2.75867
2.76541
2.71862
2.70205
2.70616
2.78405
2.83433
2.86383
2.75898
2.71608
1
1
1
1
1
1
1
1
1
1
1
1
1
1
1
1.4955
2.51592
2.69576
2.7376
2.74607
2.73546
2.68989
2.67626
2.71367
2.80348
2.81237
2.79166
2.71119
2.76246
2.80431
1
1
1
1
1
1
1
1
1
1
1
1
1
1
1
1.48301
2.53065
2.71585
2.7304
2.73301
2.69018
2.65926
2.65755
2.74705
2.8238
2.84019
2.7151
2.64241
2.72892
2.84751
1
1
1
1
1
1
1
1
1
1
1
1
1
1
1
1.42478
2.52226
2.70845
2.70018
2.6763
2.67854
2.69583
2.7609
2.78706
2.78817
2.73712
2.69533
2.65932
2.72542
2.84497
1
1
1
1
1
1
1
1
1
1
1
1
1
1
1
1.35178
2.47377
2.6948
2.65066
2.64218
2.66391
2.76049
2.80486
2.79135
2.71293
2.65012
2.68353
2.74157
2.79022
2.81368
1
1
1
1
1
1
1
1
1
1
1
1
1
1
1
1.24929
2.40364
2.64824
2.63955
2.65713
2.72386
2.77257
2.79473
2.76964
2.65314
2.62772
2.71827
2.82392
2.80695
2.7069
1
1
1
1
1
1
1
1
1
1
1
1
1
1
1
1.1602
2.35301
2.61802
2.64817
2.73565
2.75506
2.73865
2.71609
2.66576
2.67811
2.68082
2.79568
2.8199
2.77521
2.66671
1
1
1
1
1
1
1
1
1
1
1
1
1
1
1
1.09092
2.33897
2.63897
2.70178
2.73885
2.76017
2.72613
2.61783
2.62224
2.67055
2.79385
2.80787
2.80712
2.68248
2.63496
1
1
1
1
1
1
1
1
1
1
1
1
1
1
1
1.04442
2.34851
2.68743
2.69412
2.70349
2.69219
2.64087
2.63021
2.64107
2.77568
2.80738
2.77903
2.63445
2.66625
2.68003
1
1
1
1
1
1
1
1
1
1
1
1
1
1
1
1.00358
2.32581
2.68926
2.68144
2.6702
2.60477
2.60269
2.63728
2.76056
2.78808
2.77799
2.65615
2.57365
2.65075
2.77606
1
1
1
1
1
1
1
1
1
1
1
1
1
1
1
0.99994
2.28297
2.66998
2.64706
2.60342
2.59039
2.61213
2.74009
2.78484
2.79131
2.67798
2.57423
2.5368
2.62731
2.82122
1
1
1
1
1
1
1
1
1
1
1
1
1
1
1
0.999987
2.20148
2.62679
2.60696
2.60196
2.63155
2.74388
2.75629
2.73342
2.64151
2.58745
2.59781
2.58248
2.72779
2.80118
1
1
1
1
1
1
1
1
1
1
1
1
1
1
1
1.00001
2.15668
2.62386
2.59532
2.62126
2.71894
2.74822
2.76017
2.70235
2.52821
2.54203
2.61073
2.7864
2.7527
2.71927
1
1
1
1
1
1
1
1
1
1
1
1
1
1
1
0.999997
2.09816
2.62506
2.64644
2.70365
2.70755
2.70728
2.69173
2.584
2.55033
2.54866
2.76059
2.7854
2.71305
2.54256
1
1
1
1
1
1
1
1
1
1
1
1
1
1
1
0.999997
2.06524
2.65369
2.71726
2.72433
2.71432
2.6788
2.54706
2.556
2.56691
2.74602
2.77884
2.74684
2.65854
2.45217
1
1
1
1
1
1
1
1
1
1
1
1
1
1
1
0.999998
2.00986
2.67306
2.70595
2.7051
2.67697
2.57458
2.55103
2.60191
2.76614
2.77303
2.7313
2.69793
2.53073
2.43108
1
1
1
1
1
1
1
1
1
1
1
1
1
1
1
1
1.74233
2.56497
2.64127
2.6366
2.63495
2.65387
2.68126
2.70264
2.70868
2.67009
2.6087
2.55793
2.56216
2.5184
1
1
1
1
1
1
1
1
1
1
1
1
1
1
1
1
1.23378
2.35395
2.60632
2.63336
2.65251
2.6584
2.65941
2.64921
2.62743
2.61355
2.60807
2.58532
2.52056
2.42291
1
1
1
1
1
1
1
1
1
1
1
1
1
1
1
1
1.01013
2.14112
2.56771
2.59824
2.61079
2.61545
2.61429
2.61059
2.60881
2.60012
2.57209
2.52465
2.4301
2.30112
1
1
1
1
1
1
1
1
1
1
1
1
1
1
1
1
0.999999
1.6559
2.45189
2.54937
2.57039
2.58276
2.58628
2.58468
2.57612
2.55671
2.52316
2.47531
2.39158
2.29461
1
1
1
1
1
1
1
1
1
1
1
1
1
1
1
1
0.999997
1.08206
2.25655
2.54271
2.54272
2.54862
2.54687
2.5411
2.53018
2.5141
2.48828
2.4466
2.37375
2.29327
1
1
1
1
1
1
1
1
1
1
1
1
1
1
1
1
0.999999
1.00079
1.85623
2.46447
2.51208
2.50688
2.50459
2.49889
2.49014
2.47478
2.4521
2.41265
2.35641
2.29228
1
1
1
1
1
1
1
1
1
1
1
1
1
1
1
1
1
0.999998
1.16203
2.26463
2.49066
2.47879
2.47554
2.46791
2.4555
2.43783
2.41374
2.38077
2.33735
2.28573
1
1
1
1
1
1
1
1
1
1
1
1
1
1
1
1
1
1
1.00348
1.87033
2.40733
2.45084
2.44527
2.43578
2.42252
2.4047
2.38117
2.35153
2.31562
2.27386
1
1
1
1
1
1
1
1
1
1
1
1
1
1
1
1
1
1
1
1.17301
2.17112
2.42259
2.41367
2.40644
2.39395
2.37666
2.35445
2.32697
2.29484
2.25928
1
1
1
1
1
1
1
1
1
1
1
1
1
1
1
1
1
1
1
1.00386
1.62838
2.28547
2.3832
2.37354
2.36311
2.34852
2.32942
2.30516
2.2765
2.24555
1
1
1
1
1
1
1
1
1
1
1
1
1
1
1
1
1
1
1
1.00001
1.07873
1.98057
2.34847
2.34351
2.33505
2.32246
2.30535
2.28439
2.25919
2.23236
1
1
1
1
1
1
1
1
1
1
1
1
1
1
1
1
1
1
1
1
1.00086
1.30259
2.10805
2.30935
2.3014
2.29093
2.27687
2.2602
2.23959
2.21755
1
1
1
1
1
1
1
1
1
1
1
1
1
1
1
1
1
1
1
1
1
1.01332
1.5345
2.15482
2.27788
2.26011
2.2504
2.23769
2.2212
2.20244
1
1
1
1
1
1
1
1
1
1
1
1
1
1
1
1
1
1
1
1
1
1.00006
1.05688
1.76944
2.18958
2.24242
2.22639
2.21268
2.19803
2.18136
1
1
1
1
1
1
1
1
1
1
1
1
1
1
1
1
1
1
1
1
1
1
1.00058
1.16644
1.88519
2.1998
2.19928
2.18632
2.17406
2.15946
1
1
1
1
1
1
1
1
1
1
1
1
1
1
1
1
1
1
1
1
1
1
1
1.00402
1.28201
1.95204
2.16679
2.1619
2.14937
2.13649
1
1
1
1
1
1
1
1
1
1
1
1
1
1
1
1
1
1
1
1
1
1
1
1.00001
1.01249
1.38448
1.97226
2.13411
2.12796
2.11451
1
1
1
1
1
1
1
1
1
1
1
1
1
1
1
1
1
1
1
1
1
1
1
1
1.00007
1.02653
1.4578
1.97357
2.10329
2.0969
1
1
1
1
1
1
1
1
1
1
1
1
1
1
1
1
1
1
1
1
1
1
1
1
1
1.00022
1.04335
1.50191
1.96258
2.07456
1
1
1
1
1
1
1
1
1
1
1
1
1
1
1
1
1
1
1
1
1
1
1
1
1
1
1.00047
1.05858
1.51643
1.96107
1
1
1
1
1
1
1
1
1
1
1
1
1
1
1
1
1
1
1
1
1
1
1
1
1
1
1
1.00082
1.06591
1.61914
1
1
1
1
1
1
1
1
1
1
1
1
1
1
1
1
1
1
1
1
1
1
1
1
1
1
1
1
1.00089
1.1119
1
1
1
1
1
1
1
1
1
1
1
1
1
1
1
1
1
1
1
1
1
1
1
1
1
1
1
1
1
1.00203
1
1
1
1
1
1
1
1
1
1
1
1
1
1
1
1
1
1
1
1
1
1
1
1
1
1
1
1
1
1
1
1
1
1
1
1
1
1
1
1
1
1
1
1
1
1
1
1
1
1
1
1
1
1
1
1
1
1
1
1
1
1
1
1
1
1
1
1
1
1
1
1
1
1
1
1
1
1
1
1
1
1
1
1
1
1
1
1
1
1
1
1
1
1
1
1
1
1
1
1
1
1
1
1
1
1
1
1
1
1
1
1
1
1
1
1
1
1
1
1
1
1
1
1
1
1
1
1
1
1
1
1
1
1
1
1
1
1
1
1
1
1
1
1
1
1
1
1
1
1
1
1
1
1
1
1
1
1
1
1
1
1
1
1
1
1
1
1
1
1
1
1
1
1
1
1
1
1
1
1
1
1
1
1
1
1
1
1
1
1
1
1
1
1
1
1
1
1
1
1
1
1
1
1
1
1
1
1
1
1
1.70804
1.65842
1.74063
1.78153
1.82229
1.8209
1.82885
1.8344
1.82639
2.00316
2.66289
2.85479
2.81352
2.74993
2.66624
2.58809
2.51955
2.46623
2.42241
2.38655
2.35358
2.31988
2.28387
2.24647
2.20716
2.16635
2.12622
2.08856
2.05786
2.00904
2.03876
1.75437
1.6962
1.71858
1.75318
1.77338
1.79061
1.79186
1.7908
1.91104
2.59919
2.80552
2.75937
2.69566
2.62109
2.55188
2.48938
2.43499
2.39788
2.36506
2.33529
2.3039
2.26899
2.23204
2.1937
2.15474
2.11659
2.08025
2.05031
2.00278
2.01603
1.72489
1.61408
1.62045
1.64706
1.68539
1.69492
1.70469
1.70984
1.78602
2.45313
2.66485
2.62852
2.57993
2.52352
2.46955
2.41676
2.37214
2.33658
2.30766
2.28368
2.25946
2.23032
2.19562
2.15791
2.12038
2.08494
2.05166
2.02408
1.98014
2.03515
1.74246
1.60573
1.53865
1.53889
1.56457
1.59617
1.60544
1.6107
1.71122
2.19255
2.53101
2.48657
2.44388
2.40651
2.36759
2.32723
2.28939
2.25815
2.23226
2.21095
2.19044
2.16655
2.13748
2.10413
2.07003
2.03788
2.00851
1.98452
1.94605
2.0647
1.78584
1.61652
1.51489
1.47562
1.4857
1.50788
1.52854
1.55015
1.71932
1.99935
2.37236
2.40604
2.35451
2.32422
2.29471
2.26193
2.22771
2.19603
2.16775
2.14383
2.12233
2.09954
2.07328
2.04336
2.01236
1.98304
1.95613
1.93464
1.90143
2.09712
1.84243
1.66286
1.53571
1.46558
1.44906
1.45485
1.4759
1.52991
1.7972
1.93546
2.23395
2.34412
2.31315
2.28539
2.25733
2.22541
2.19143
2.15804
2.12611
2.09754
2.07221
2.04747
2.02143
1.9933
1.9644
1.9367
1.91117
1.89099
1.85999
2.12437
1.89399
1.72165
1.57164
1.48399
1.43867
1.43622
1.44689
1.55489
1.88787
1.93065
2.08822
2.28
2.28749
2.26343
2.23428
2.20238
2.17005
2.13734
2.10375
2.07135
2.04184
2.01423
1.98728
1.95938
1.93067
1.90276
1.87696
1.85713
1.82691
2.13734
1.93702
1.77632
1.6223
1.52723
1.45489
1.43179
1.44482
1.63069
1.94454
1.93644
1.96228
2.18458
2.2598
2.24492
2.21369
2.18173
2.15171
2.12123
2.08863
2.05497
2.02247
1.9924
1.96409
1.93585
1.90756
1.88021
1.85429
1.83401
1.80268
2.14188
1.96635
1.81959
1.67088
1.57623
1.48618
1.43735
1.45852
1.7327
1.95603
1.94245
1.91083
2.03944
2.20761
2.22612
2.19221
2.16091
2.13198
2.10316
2.07281
2.03999
2.00653
1.97464
1.94512
1.91715
1.89026
1.86411
1.83847
1.81773
1.78507
2.13877
1.99144
1.84883
1.71262
1.62322
1.52527
1.45923
1.51942
1.82558
1.91665
1.91369
1.88405
1.90654
2.09591
2.18608
2.16599
2.13838
2.109
2.08005
2.05152
2.02155
1.99008
1.95789
1.92735
1.89989
1.87492
1.8507
1.82607
1.80505
1.771
2.13404
2.00911
1.87082
1.74978
1.66203
1.55839
1.49002
1.6307
1.90645
1.9014
1.88122
1.85122
1.82819
1.94267
2.11291
2.14027
2.1111
2.08233
2.05425
2.02633
1.99819
1.96929
1.93913
1.90946
1.88244
1.85859
1.83645
1.81385
1.79328
1.75844
2.12906
2.02207
1.88497
1.78443
1.69144
1.58523
1.53945
1.77622
1.93773
1.90627
1.86368
1.82565
1.78562
1.80745
1.98487
2.08823
2.07945
2.05457
2.02743
1.99953
1.9717
1.94426
1.91668
1.88959
1.86394
1.84091
1.81997
1.79895
1.77934
1.74511
2.12361
2.02771
1.89698
1.81391
1.71079
1.6152
1.62376
1.89885
1.94299
1.90901
1.85309
1.80444
1.76074
1.72685
1.81779
1.99469
2.04497
2.02662
2.00119
1.97277
1.94508
1.91848
1.89242
1.86746
1.84377
1.82159
1.80116
1.78106
1.76245
1.72985
2.11524
2.02541
1.90813
1.83603
1.72428
1.64834
1.75701
1.98417
1.95267
1.90313
1.84467
1.78972
1.74149
1.6961
1.69369
1.84624
1.9828
2.00157
1.97584
1.94742
1.92068
1.8947
1.86934
1.84569
1.82352
1.80184
1.78098
1.76078
1.74291
1.7123
2.10622
2.01847
1.92061
1.8502
1.73606
1.68957
1.92394
2.03705
1.97441
1.90347
1.84169
1.78094
1.72692
1.6784
1.63693
1.68377
1.87186
1.95771
1.94648
1.92353
1.89857
1.87352
1.84886
1.82554
1.8035
1.78206
1.76073
1.73959
1.72171
1.69259
2.094
2.00689
1.93353
1.85556
1.75164
1.76154
2.06041
2.05264
1.98542
1.90449
1.83655
1.77425
1.71741
1.66626
1.62165
1.59425
1.70996
1.88331
1.92023
1.90155
1.879
1.85485
1.83095
1.80811
1.78527
1.76312
1.74076
1.7182
1.70056
1.67269
2.07808
1.99616
1.94438
1.85266
1.7704
1.8903
2.13057
2.06824
1.98863
1.90686
1.83486
1.77202
1.71374
1.66041
1.61005
1.56734
1.58047
1.7468
1.8755
1.88027
1.85943
1.83812
1.81858
1.79654
1.77308
1.74864
1.72305
1.69932
1.68138
1.65404
2.06035
1.99052
1.94519
1.8448
1.79617
2.05582
2.16362
2.07983
1.98789
1.90608
1.83281
1.7688
1.71042
1.65785
1.60738
1.5609
1.53126
1.5892
1.77331
1.84789
1.84201
1.82147
1.79598
1.77308
1.75062
1.72636
1.70734
1.68769
1.66922
1.63892
2.04576
1.9899
1.93641
1.84484
1.86208
2.17853
2.16641
2.08251
1.98687
1.90438
1.83184
1.76826
1.71096
1.65851
1.60899
1.55864
1.51762
1.50382
1.6262
1.7948
1.82266
1.8053
1.77915
1.75608
1.73371
1.71166
1.69118
1.66985
1.65022
1.62404
2.0337
1.9871
1.91292
1.84648
1.99765
2.2368
2.16185
2.07649
1.98635
1.90527
1.83364
1.7698
1.71184
1.65788
1.60791
1.55808
1.51043
1.47848
1.5
1.66912
1.78333
1.78146
1.76402
1.74246
1.71844
1.69902
1.67815
1.65624
1.63748
1.61264
2.01821
1.98673
1.89566
1.85908
2.16785
2.25646
2.16267
2.07032
1.98502
1.90631
1.83576
1.77225
1.71434
1.66031
1.6098
1.56215
1.51327
1.47213
1.44978
1.52515
1.69548
1.75153
1.74699
1.72937
1.70619
1.68572
1.6634
1.64298
1.62918
1.60297
1.98972
1.9684
1.86572
1.93435
2.27994
2.25273
2.1596
2.06696
1.98485
1.90962
1.84057
1.77706
1.71823
1.66297
1.61024
1.56245
1.51535
1.46685
1.43391
1.43134
1.56126
1.70407
1.73039
1.71509
1.69355
1.67248
1.65081
1.63243
1.61522
1.5922
1.93722
1.93386
1.86935
2.1095
2.33357
2.24772
2.15761
2.06886
1.98848
1.91461
1.84528
1.78029
1.71974
1.66347
1.6106
1.56117
1.51564
1.46815
1.4256
1.39886
1.43309
1.59274
1.68831
1.69171
1.67853
1.65843
1.63809
1.62092
1.60155
1.586
1.70535
1.91677
1.92471
2.29665
2.36237
2.25372
2.16103
2.07398
1.99343
1.91864
1.84831
1.7823
1.72077
1.66348
1.60955
1.55826
1.51255
1.4694
1.42324
1.38889
1.37129
1.46083
1.61862
1.66673
1.66073
1.64452
1.62607
1.60599
1.58723
1.59663
1.38313
1.83945
2.07765
2.41138
2.37384
2.2596
2.16388
2.07653
1.99553
1.92001
1.84915
1.78252
1.71987
1.6614
1.60695
1.55546
1.50826
1.46569
1.42093
1.37855
1.35143
1.36479
1.49836
1.62114
1.64242
1.62959
1.6116
1.58832
1.57574
1.64152
1.11378
1.67742
2.19143
2.47569
2.38184
2.26389
2.16537
2.07661
1.99436
1.91785
1.84639
1.77935
1.71593
1.65615
1.60118
1.5507
1.50394
1.46242
1.42221
1.37786
1.3427
1.32387
1.37492
1.52799
1.60141
1.60787
1.59293
1.57393
1.58482
1.72568
1.01772
1.50676
2.29797
2.50639
2.38814
2.25856
2.15935
2.07059
1.98774
1.91052
1.8386
1.77166
1.70898
1.64993
1.59528
1.54525
1.49902
1.4578
1.42121
1.38038
1.33912
1.31142
1.30672
1.40647
1.54795
1.58269
1.57369
1.57964
1.65122
1.784
0.999278
1.43599
2.46071
2.5373
2.38243
2.24699
2.14679
2.0593
1.97807
1.90199
1.8309
1.76457
1.70261
1.64461
1.59101
1.54195
1.49683
1.45541
1.4179
1.38083
1.34284
1.30528
1.28582
1.30453
1.44046
1.54579
1.56592
1.63475
1.76803
1.81321
0.999522
1.4647
2.54138
2.53167
2.36384
2.23392
2.13544
2.04975
1.97037
1.89588
1.82592
1.76026
1.69873
1.64131
1.58843
1.54009
1.49577
1.45464
1.41602
1.38188
1.34421
1.30897
1.28339
1.26649
1.32959
1.47195
1.5928
1.73806
1.80686
1.80283
0.999614
1.45613
2.58729
2.55518
2.35452
2.22624
2.12961
2.04584
1.96825
1.89532
1.82625
1.76044
1.69814
1.64036
1.58768
1.53963
1.49546
1.45472
1.41588
1.38056
1.34675
1.31272
1.27093
1.24325
1.25955
1.41688
1.651
1.84311
1.85692
1.81463
)
;

boundaryField
{
    inlet
    {
        type            fixedValue;
        value           uniform 1;
    }
    outlet
    {
        type            inletOutlet;
        inletValue      uniform 1;
        value           nonuniform List<scalar> 
30
(
2.00895
2.00282
1.98021
1.9462
1.90185
1.86044
1.82741
1.80311
1.78539
1.77114
1.7584
1.74497
1.72966
1.71213
1.69245
1.67252
1.65389
1.63871
1.62429
1.61294
1.6032
1.59215
1.58574
1.59609
1.64
1.72373
1.78267
1.81252
1.80186
1.8136
)
;
    }
    top
    {
        type            symmetryPlane;
    }
    bottom
    {
        type            symmetryPlane;
    }
    step
    {
        type            zeroGradient;
    }
    defaultFaces
    {
        type            empty;
    }
}


// ************************************************************************* //
