/*--------------------------------*- C++ -*----------------------------------*\
  =========                 |
  \\      /  F ield         | OpenFOAM: The Open Source CFD Toolbox
   \\    /   O peration     | Website:  https://openfoam.org
    \\  /    A nd           | Version:  6.0
     \\/     M anipulation  |
\*---------------------------------------------------------------------------*/
FoamFile
{
    version     2.0;
    format      ascii;
    class       volVectorField;
    location    "3.000888";
    object      U;
}
// * * * * * * * * * * * * * * * * * * * * * * * * * * * * * * * * * * * * * //

dimensions      [0 1 -1 0 0 0 0];

internalField   nonuniform List<vector> 
2700
(
(3 -1.38001e-16 0)
(3 1.40831e-16 0)
(3 -3.8346e-16 0)
(3 -4.42379e-16 0)
(3 -1.0519e-16 0)
(3 -1.54279e-16 0)
(3 -4.33018e-16 0)
(3 -2.67534e-16 0)
(3 8.2177e-16 0)
(3 5.22175e-16 0)
(3 -3.99625e-17 0)
(3 -5.23078e-17 0)
(3 7.53584e-16 0)
(3 1.03538e-15 0)
(3 5.13628e-16 0)
(1.75878 0.00518937 0)
(0.786668 0.00512942 0)
(0.695811 -0.00501491 0)
(0.643014 0.00355447 0)
(0.582429 0.0197252 0)
(0.521685 0.0359438 0)
(0.483562 0.0334616 0)
(0.450063 -0.00847495 0)
(0.402902 -0.0360354 0)
(0.338341 -0.0246884 0)
(0.250626 0.0343102 0)
(0.184019 0.0544298 0)
(0.167385 0.0437165 0)
(0.135235 -0.000583838 0)
(0.052895 -0.0242906 0)
(3 -1.11775e-16 0)
(3 4.52593e-16 0)
(3 1.70562e-16 0)
(3 -5.36604e-16 0)
(3 -1.56092e-16 0)
(3 2.65415e-16 0)
(3 5.69572e-17 0)
(3 -7.28772e-17 0)
(3 5.53794e-16 0)
(3 4.07759e-16 0)
(3 3.25305e-16 0)
(3 -5.24748e-16 0)
(3 8.67561e-17 0)
(3 6.16394e-16 0)
(3 7.52903e-16 0)
(1.7743 0.026038 0)
(0.777722 0.0323551 0)
(0.69044 0.00022301 0)
(0.640062 -0.0143669 0)
(0.591644 -0.00337871 0)
(0.543018 0.0445804 0)
(0.48484 0.0834844 0)
(0.429947 0.0724361 0)
(0.374398 0.00187169 0)
(0.327414 -0.0551017 0)
(0.278771 -0.0439288 0)
(0.221956 0.10459 0)
(0.157042 0.148801 0)
(0.0864291 0.0453032 0)
(0.0421729 -0.0608568 0)
(3 1.36036e-16 0)
(3 1.76441e-16 0)
(3 8.89431e-16 0)
(3 3.83959e-16 0)
(3 1.99838e-16 0)
(3 6.3317e-16 0)
(3 8.38314e-16 0)
(3 1.05525e-15 0)
(3 -5.09029e-16 0)
(3 -1.13917e-16 0)
(3 8.04005e-16 0)
(3 4.97029e-16 0)
(3 4.08102e-16 0)
(3 7.96971e-16 0)
(3 -3.27758e-17 0)
(1.78164 0.0309657 0)
(0.772407 0.0303533 0)
(0.681015 0.032759 0)
(0.639974 0.0327124 0)
(0.59819 0.0398148 0)
(0.54564 0.0426653 0)
(0.487296 0.0475632 0)
(0.412874 0.0408754 0)
(0.351607 0.0258675 0)
(0.319983 0.02389 0)
(0.298978 0.0371041 0)
(0.255454 0.0630619 0)
(0.147319 0.0904692 0)
(0.0413483 0.067337 0)
(0.0361834 0.0397721 0)
(3 2.51025e-18 0)
(3 6.1865e-17 0)
(3 4.81709e-16 0)
(3 5.4417e-16 0)
(3 1.76694e-16 0)
(3 7.87219e-16 0)
(3 1.13906e-15 0)
(3 3.98186e-16 0)
(3 -4.2156e-16 0)
(3 -2.66965e-16 0)
(3 5.7038e-16 0)
(3 1.00004e-15 0)
(3 9.4145e-16 0)
(3 3.09061e-16 0)
(3 -1.24848e-15 0)
(1.79095 0.0403569 0)
(0.774406 0.0302808 0)
(0.685631 0.068254 0)
(0.638582 0.0879056 0)
(0.592701 0.0724276 0)
(0.540043 0.0321414 0)
(0.485961 0.00363003 0)
(0.422147 0.02766 0)
(0.363427 0.0848225 0)
(0.333695 0.11669 0)
(0.291903 0.112175 0)
(0.246193 0.00900228 0)
(0.162001 -0.00332269 0)
(0.0540765 0.0878534 0)
(0.0393637 0.153894 0)
(3 -9.54878e-17 0)
(3 2.67645e-16 0)
(3 -1.226e-16 0)
(3 -5.58289e-16 0)
(3 -3.98577e-16 0)
(3 9.63588e-17 0)
(3 1.1684e-15 0)
(3 4.10607e-16 0)
(3 -1.37904e-16 0)
(3 1.04482e-16 0)
(3 2.70739e-16 0)
(3 8.44092e-16 0)
(3 9.33649e-16 0)
(3 -6.91644e-16 0)
(3 -1.01562e-15 0)
(1.80205 0.0557638 0)
(0.787408 0.0541359 0)
(0.693772 0.0844784 0)
(0.6391 0.0945667 0)
(0.579124 0.0857278 0)
(0.524145 0.0534013 0)
(0.479422 0.0146386 0)
(0.446389 0.01622 0)
(0.393739 0.102143 0)
(0.331827 0.167606 0)
(0.263957 0.125821 0)
(0.198801 0.0405041 0)
(0.162864 -0.0267279 0)
(0.117136 0.056575 0)
(0.0515801 0.207593 0)
(3 -1.10122e-17 0)
(3 2.97411e-16 0)
(3 -9.82999e-17 0)
(3 -4.57142e-16 0)
(3 -6.66731e-16 0)
(3 -7.5398e-16 0)
(3 3.19409e-16 0)
(3 -1.21571e-17 0)
(3 -3.36876e-16 0)
(3 -2.70934e-16 0)
(3 -1.70721e-17 0)
(3 1.04094e-15 0)
(3 1.39866e-15 0)
(3 3.8442e-16 0)
(3 -1.19591e-16 0)
(1.82629 0.0850169 0)
(0.793927 0.0872809 0)
(0.694349 0.0788859 0)
(0.639298 0.0720499 0)
(0.573047 0.0737178 0)
(0.512885 0.0820153 0)
(0.470589 0.0929521 0)
(0.447686 0.107798 0)
(0.399785 0.101093 0)
(0.335933 0.0892135 0)
(0.244251 0.0890634 0)
(0.167493 0.0934807 0)
(0.15661 0.0946278 0)
(0.136731 0.118427 0)
(0.0600616 0.106602 0)
(3 1.57383e-16 0)
(3 -7.62506e-17 0)
(3 -3.93701e-16 0)
(3 -3.84756e-16 0)
(3 -6.27265e-16 0)
(3 -8.31626e-16 0)
(3 1.93179e-18 0)
(3 -2.30888e-16 0)
(3 -6.81895e-16 0)
(3 -1.01464e-15 0)
(3 -1.5945e-17 0)
(3 1.49162e-15 0)
(3 1.96477e-15 0)
(3 1.67229e-15 0)
(3 -1.70609e-15 0)
(1.86816 0.106149 0)
(0.792278 0.112057 0)
(0.689555 0.0861638 0)
(0.636982 0.05445 0)
(0.582135 0.0580585 0)
(0.530425 0.104729 0)
(0.486172 0.165881 0)
(0.439098 0.179567 0)
(0.38707 0.10554 0)
(0.320252 0.0135932 0)
(0.263038 0.0341199 0)
(0.197736 0.138922 0)
(0.163531 0.224993 0)
(0.119551 0.181828 0)
(0.0459254 0.0303077 0)
(3 -9.26001e-18 0)
(3 -9.08826e-16 0)
(3 -1.12065e-15 0)
(3 -9.76908e-16 0)
(3 -2.34572e-16 0)
(3 -3.71073e-16 0)
(3 7.08839e-17 0)
(3 1.98935e-16 0)
(3 -3.36574e-16 0)
(3 -5.37474e-16 0)
(3 -1.6917e-17 0)
(3 1.67158e-15 0)
(3 1.08534e-15 0)
(3 1.05515e-15 0)
(3 -9.8596e-16 0)
(1.91819 0.10737 0)
(0.795455 0.1092 0)
(0.67843 0.0885787 0)
(0.631859 0.082249 0)
(0.595271 0.0980132 0)
(0.551968 0.134048 0)
(0.498568 0.168599 0)
(0.429873 0.148462 0)
(0.357071 0.0957609 0)
(0.315406 0.0704663 0)
(0.290287 0.0803825 0)
(0.251703 0.205183 0)
(0.165359 0.2817 0)
(0.0565238 0.16496 0)
(0.0407707 0.0883835 0)
(3 -3.34002e-16 0)
(3 -2.12683e-16 0)
(3 4.16194e-16 0)
(3 2.06742e-16 0)
(3 -6.97347e-17 0)
(3 6.43564e-17 0)
(3 -7.28033e-16 0)
(3 -2.32038e-16 0)
(3 -1.32672e-16 0)
(3 -1.2227e-16 0)
(3 -7.77839e-17 0)
(3 4.16287e-16 0)
(3 -2.39309e-16 0)
(3 2.9392e-16 0)
(3 8.29985e-16 0)
(1.96295 0.10157 0)
(0.792528 0.0967543 0)
(0.679982 0.115015 0)
(0.6376 0.147321 0)
(0.59456 0.153313 0)
(0.55124 0.134304 0)
(0.497912 0.104702 0)
(0.420238 0.0974214 0)
(0.347998 0.123325 0)
(0.30703 0.165419 0)
(0.294329 0.192164 0)
(0.271584 0.181889 0)
(0.151391 0.152563 0)
(0.0309599 0.175976 0)
(0.0377632 0.198927 0)
(3 1.72703e-16 0)
(3 1.55813e-16 0)
(3 5.65813e-16 0)
(3 2.75409e-16 0)
(3 2.21851e-16 0)
(3 4.45395e-17 0)
(3 -1.43833e-15 0)
(3 -1.26132e-15 0)
(3 -4.84608e-16 0)
(3 3.00788e-16 0)
(3 1.43007e-16 0)
(3 5.38359e-16 0)
(3 4.41567e-16 0)
(3 2.69213e-17 0)
(3 8.72814e-16 0)
(2.00352 0.112315 0)
(0.795777 0.105177 0)
(0.699625 0.150186 0)
(0.646968 0.182123 0)
(0.590214 0.191287 0)
(0.536889 0.164339 0)
(0.479092 0.0785372 0)
(0.427552 0.0616981 0)
(0.381989 0.122012 0)
(0.34102 0.23554 0)
(0.284191 0.286189 0)
(0.23078 0.168691 0)
(0.152311 0.0646287 0)
(0.0642232 0.179231 0)
(0.0438665 0.26563 0)
(3 6.43389e-17 0)
(3 8.2761e-17 0)
(3 -8.95479e-17 0)
(3 6.1986e-16 0)
(3 4.56492e-16 0)
(3 2.83412e-16 0)
(3 -8.46725e-16 0)
(3 -1.83905e-15 0)
(3 -1.51604e-15 0)
(3 2.78327e-17 0)
(3 3.70716e-16 0)
(3 7.25402e-16 0)
(3 1.55126e-15 0)
(3 1.85795e-16 0)
(3 6.23047e-16 0)
(2.04143 0.14651 0)
(0.817267 0.157913 0)
(0.704694 0.177679 0)
(0.65328 0.172419 0)
(0.595413 0.160984 0)
(0.521892 0.134639 0)
(0.459809 0.126785 0)
(0.435689 0.132134 0)
(0.410284 0.199236 0)
(0.36835 0.242121 0)
(0.277138 0.250111 0)
(0.176772 0.154251 0)
(0.155255 0.117125 0)
(0.114617 0.160467 0)
(0.0607932 0.284204 0)
(3 -6.28795e-17 0)
(3 1.45212e-16 0)
(3 5.32161e-16 0)
(3 8.6437e-16 0)
(3 4.8221e-16 0)
(3 8.69872e-16 0)
(3 -2.00565e-16 0)
(3 -1.23252e-15 0)
(3 -1.04892e-15 0)
(3 -3.61108e-16 0)
(3 3.4319e-16 0)
(3 3.62336e-16 0)
(3 8.01344e-16 0)
(3 4.19932e-16 0)
(3 -2.1235e-15 0)
(2.10443 0.17951 0)
(0.829956 0.203181 0)
(0.699825 0.196555 0)
(0.649812 0.157164 0)
(0.586489 0.126567 0)
(0.527083 0.133865 0)
(0.47848 0.191405 0)
(0.45071 0.246362 0)
(0.411581 0.230586 0)
(0.370971 0.192009 0)
(0.263334 0.13187 0)
(0.168061 0.192354 0)
(0.149992 0.230123 0)
(0.133416 0.249988 0)
(0.0733736 0.265221 0)
(3 2.11373e-16 0)
(3 -1.52069e-16 0)
(3 1.65635e-16 0)
(3 -2.1138e-16 0)
(3 2.00378e-16 0)
(3 -3.03475e-16 0)
(3 -4.69827e-16 0)
(3 -5.54547e-16 0)
(3 -3.05422e-16 0)
(3 -6.26543e-16 0)
(3 -7.34118e-16 0)
(3 -5.7964e-16 0)
(3 7.37105e-18 0)
(3 3.85015e-16 0)
(3 -2.39174e-15 0)
(2.1924 0.17859 0)
(0.847137 0.210637 0)
(0.690333 0.193363 0)
(0.637215 0.144598 0)
(0.587577 0.121244 0)
(0.556715 0.156107 0)
(0.517395 0.237405 0)
(0.456626 0.299433 0)
(0.391552 0.293778 0)
(0.325723 0.144626 0)
(0.273269 0.0921668 0)
(0.22165 0.184759 0)
(0.167902 0.320141 0)
(0.116085 0.347705 0)
(0.0584277 0.221375 0)
(3 8.51732e-17 0)
(3 4.32084e-16 0)
(3 -4.37654e-16 0)
(3 -3.09049e-16 0)
(3 2.19523e-16 0)
(3 -8.49082e-16 0)
(3 -1.55039e-15 0)
(3 7.4884e-17 0)
(3 2.68135e-16 0)
(3 -8.16318e-16 0)
(3 -1.15369e-15 0)
(3 -1.44861e-15 0)
(3 -9.50549e-16 0)
(3 -6.62961e-16 0)
(3 -6.79632e-16 0)
(2.28535 0.168944 0)
(0.85679 0.201066 0)
(0.679405 0.171208 0)
(0.631591 0.173282 0)
(0.595274 0.204395 0)
(0.567667 0.240941 0)
(0.526673 0.241425 0)
(0.476076 0.240301 0)
(0.374226 0.194248 0)
(0.296488 0.175309 0)
(0.275089 0.179355 0)
(0.265811 0.31108 0)
(0.183343 0.380526 0)
(0.0963582 0.337697 0)
(0.0443914 0.22639 0)
(3 -2.13384e-16 0)
(3 4.14165e-17 0)
(3 -2.32555e-16 0)
(3 5.5245e-16 0)
(3 1.72355e-16 0)
(3 -6.13423e-16 0)
(3 -1.3235e-15 0)
(3 -8.65899e-16 0)
(3 -1.97228e-16 0)
(3 -7.75083e-17 0)
(3 -9.88432e-16 0)
(3 -1.59495e-15 0)
(3 -1.76541e-15 0)
(3 6.53914e-16 0)
(3 9.96178e-16 0)
(2.36966 0.157645 0)
(0.852529 0.185797 0)
(0.683844 0.163547 0)
(0.656372 0.217212 0)
(0.613957 0.276743 0)
(0.56589 0.291053 0)
(0.522598 0.258408 0)
(0.450746 0.145732 0)
(0.38013 0.141114 0)
(0.320367 0.225862 0)
(0.312261 0.349248 0)
(0.2829 0.360606 0)
(0.186595 0.364034 0)
(0.0473879 0.287239 0)
(0.0396253 0.249988 0)
(3 -6.27858e-17 0)
(3 -2.8305e-16 0)
(3 7.41399e-17 0)
(3 -3.047e-16 0)
(3 -2.40662e-16 0)
(3 -6.39829e-16 0)
(3 -1.04938e-15 0)
(3 -1.01084e-15 0)
(3 -2.51972e-16 0)
(3 -3.91054e-16 0)
(3 -6.05081e-16 0)
(3 -1.05408e-15 0)
(3 -5.60398e-16 0)
(3 2.30406e-16 0)
(3 4.70534e-16 0)
(2.44708 0.171301 0)
(0.856186 0.211815 0)
(0.708969 0.245584 0)
(0.674374 0.268856 0)
(0.628432 0.283654 0)
(0.575273 0.284537 0)
(0.495 0.204839 0)
(0.435741 0.148434 0)
(0.406365 0.143061 0)
(0.391357 0.306272 0)
(0.321456 0.414202 0)
(0.261386 0.410194 0)
(0.164484 0.264743 0)
(0.0425789 0.283032 0)
(0.0524502 0.34175 0)
(3 9.97964e-17 0)
(3 -3.71043e-16 0)
(3 -1.9679e-16 0)
(3 -9.23449e-16 0)
(3 -3.90521e-16 0)
(3 -1.95856e-16 0)
(3 -2.96695e-17 0)
(3 6.10354e-16 0)
(3 -2.98855e-17 0)
(3 -4.06952e-16 0)
(3 -3.80529e-16 0)
(3 -4.37855e-16 0)
(3 -2.89765e-17 0)
(3 -5.5664e-16 0)
(3 -9.79881e-16 0)
(2.50923 0.204285 0)
(0.896319 0.275312 0)
(0.717297 0.294746 0)
(0.679443 0.278038 0)
(0.636033 0.252088 0)
(0.560908 0.195575 0)
(0.486142 0.200327 0)
(0.433594 0.224269 0)
(0.429747 0.303968 0)
(0.413587 0.33805 0)
(0.344073 0.351759 0)
(0.224028 0.277212 0)
(0.151007 0.246605 0)
(0.0690688 0.328106 0)
(0.0691224 0.439625 0)
(3 -6.12341e-17 0)
(3 -1.16612e-15 0)
(3 -1.30579e-15 0)
(3 -9.14881e-16 0)
(3 -9.66454e-16 0)
(3 -3.59465e-16 0)
(3 1.25201e-15 0)
(3 1.02836e-15 0)
(3 1.51593e-16 0)
(3 3.34458e-16 0)
(3 2.03738e-16 0)
(3 2.30794e-16 0)
(3 3.56564e-16 0)
(3 -1.227e-15 0)
(3 -1.94538e-15 0)
(2.61814 0.215826 0)
(0.936327 0.329418 0)
(0.725412 0.311274 0)
(0.686399 0.284293 0)
(0.61618 0.204555 0)
(0.564981 0.164893 0)
(0.517565 0.182561 0)
(0.482731 0.329839 0)
(0.439812 0.409532 0)
(0.403689 0.398381 0)
(0.309609 0.282434 0)
(0.215719 0.213719 0)
(0.171808 0.265662 0)
(0.12116 0.383349 0)
(0.0802757 0.511936 0)
(3 1.28646e-16 0)
(3 5.01001e-17 0)
(3 -4.58096e-16 0)
(3 -5.2302e-16 0)
(3 -9.38944e-16 0)
(3 -4.38798e-16 0)
(3 7.71756e-16 0)
(3 7.79837e-16 0)
(3 4.97683e-16 0)
(3 4.20873e-16 0)
(3 1.08402e-16 0)
(3 2.23432e-16 0)
(3 -4.12183e-16 0)
(3 -7.4406e-16 0)
(3 -5.15122e-16 0)
(2.73897 0.208407 0)
(0.980972 0.332905 0)
(0.741406 0.285752 0)
(0.678714 0.222849 0)
(0.612222 0.216278 0)
(0.56314 0.216837 0)
(0.556006 0.317481 0)
(0.517385 0.378273 0)
(0.46212 0.397559 0)
(0.383177 0.330031 0)
(0.28357 0.252614 0)
(0.217341 0.25819 0)
(0.196205 0.342289 0)
(0.167294 0.480531 0)
(0.0906491 0.516194 0)
(3 -2.55472e-17 0)
(3 5.75151e-16 0)
(3 8.12709e-16 0)
(3 -2.72893e-17 0)
(3 -1.63991e-16 0)
(3 -2.33483e-16 0)
(3 -6.44709e-16 0)
(3 9.03572e-16 0)
(3 9.86583e-16 0)
(3 3.60593e-16 0)
(3 -4.26974e-16 0)
(3 -7.15922e-16 0)
(3 -1.28746e-15 0)
(3 2.22359e-16 0)
(3 1.03425e-15 0)
(2.87827 0.163026 0)
(1.03363 0.307799 0)
(0.75229 0.24209 0)
(0.702257 0.207978 0)
(0.640975 0.238038 0)
(0.612684 0.35951 0)
(0.574142 0.39425 0)
(0.527172 0.379549 0)
(0.462244 0.323949 0)
(0.354968 0.249814 0)
(0.291174 0.290204 0)
(0.252068 0.412582 0)
(0.227127 0.517615 0)
(0.167963 0.505268 0)
(0.075408 0.381423 0)
(3 9.84266e-17 0)
(3 4.67027e-16 0)
(3 4.4305e-16 0)
(3 6.61562e-16 0)
(3 -4.25804e-17 0)
(3 -1.84106e-16 0)
(3 -3.28448e-16 0)
(3 2.22751e-16 0)
(3 2.89088e-16 0)
(3 2.78523e-16 0)
(3 -1.64551e-17 0)
(3 -2.05304e-16 0)
(3 1.79822e-16 0)
(3 6.61501e-16 0)
(3 5.9733e-16 0)
(2.99264 0.0911216 0)
(1.09629 0.271687 0)
(0.766181 0.250809 0)
(0.734777 0.263361 0)
(0.705038 0.365112 0)
(0.648722 0.4097 0)
(0.588107 0.424853 0)
(0.519029 0.382038 0)
(0.422246 0.250026 0)
(0.380084 0.206817 0)
(0.344593 0.278214 0)
(0.321873 0.522026 0)
(0.219456 0.605975 0)
(0.133639 0.5358 0)
(0.055642 0.34854 0)
(3 -4.66659e-17 0)
(3 2.21415e-16 0)
(3 3.44212e-16 0)
(3 7.79133e-16 0)
(3 -4.07052e-16 0)
(3 -5.0324e-16 0)
(3 -3.31699e-16 0)
(3 -1.25007e-15 0)
(3 -7.83775e-16 0)
(3 -5.99381e-16 0)
(3 4.00277e-16 0)
(3 3.64281e-16 0)
(3 -2.12157e-16 0)
(3 3.14992e-16 0)
(3 8.69594e-16 0)
(3.00892 0.0366187 0)
(1.11276 0.287911 0)
(0.809058 0.300551 0)
(0.788515 0.382391 0)
(0.734175 0.391233 0)
(0.669746 0.383317 0)
(0.606096 0.344727 0)
(0.493448 0.258559 0)
(0.407404 0.28746 0)
(0.38616 0.333808 0)
(0.385203 0.480127 0)
(0.369831 0.519335 0)
(0.229913 0.616039 0)
(0.0446154 0.464212 0)
(0.053082 0.37868 0)
(3 8.62451e-18 0)
(3 2.78308e-16 0)
(3 2.23499e-16 0)
(3 -3.77344e-17 0)
(3 -4.26674e-16 0)
(3 -2.41392e-16 0)
(3 8.02142e-17 0)
(3 -4.24083e-17 0)
(3 -1.06446e-15 0)
(3 -1.15704e-15 0)
(3 -2.41101e-16 0)
(3 -1.75376e-16 0)
(3 -3.25408e-16 0)
(3 2.98995e-16 0)
(3 5.04496e-16 0)
(2.98933 0.0255411 0)
(1.13273 0.330578 0)
(0.83233 0.385773 0)
(0.807621 0.412722 0)
(0.744299 0.422432 0)
(0.678584 0.381108 0)
(0.578282 0.241598 0)
(0.51677 0.214813 0)
(0.460721 0.291539 0)
(0.446019 0.522603 0)
(0.388757 0.574752 0)
(0.35733 0.545268 0)
(0.213849 0.39626 0)
(0.0291703 0.464348 0)
(0.0605942 0.487613 0)
(3 1.84699e-16 0)
(3 3.88275e-16 0)
(3 3.41505e-17 0)
(3 -9.0784e-17 0)
(3 5.90841e-16 0)
(3 6.80473e-16 0)
(3 3.44811e-16 0)
(3 1.44533e-17 0)
(3 5.71001e-17 0)
(3 -1.16959e-15 0)
(3 -1.28132e-15 0)
(3 3.36099e-16 0)
(3 6.69979e-16 0)
(3 8.01612e-16 0)
(3 7.24045e-16 0)
(3.00164 0.00421901 0)
(1.16764 0.352037 0)
(0.833154 0.389219 0)
(0.822455 0.400415 0)
(0.767107 0.383861 0)
(0.652879 0.286925 0)
(0.572982 0.276443 0)
(0.525296 0.281683 0)
(0.54396 0.464017 0)
(0.492041 0.560839 0)
(0.403474 0.598313 0)
(0.301426 0.456314 0)
(0.208266 0.350974 0)
(0.0958332 0.483936 0)
(0.0860346 0.675181 0)
(3 -1.83557e-16 0)
(3 -2.57672e-16 0)
(3 5.20873e-16 0)
(3 8.58648e-16 0)
(3 1.23451e-15 0)
(3 1.61386e-15 0)
(3 4.19241e-16 0)
(3 5.51923e-16 0)
(3 -4.74447e-16 0)
(3 -9.93593e-16 0)
(3 -1.333e-15 0)
(3 7.1786e-16 0)
(3 1.46071e-15 0)
(3 1.09477e-15 0)
(3 8.96321e-16 0)
(3.00071 -0.000265108 0)
(1.23032 0.349615 0)
(0.820192 0.377066 0)
(0.805418 0.348774 0)
(0.736158 0.29136 0)
(0.673758 0.287539 0)
(0.609804 0.324756 0)
(0.619855 0.500958 0)
(0.574886 0.508741 0)
(0.522345 0.5128 0)
(0.383894 0.413149 0)
(0.265278 0.373184 0)
(0.219578 0.395833 0)
(0.167219 0.533391 0)
(0.119192 0.775013 0)
(3 -4.7576e-16 0)
(3 2.71036e-16 0)
(3 3.71098e-16 0)
(3 8.76463e-16 0)
(3 8.41127e-16 0)
(3 1.40922e-15 0)
(3 5.76934e-16 0)
(3 4.09846e-16 0)
(3 -8.60792e-16 0)
(3 -3.90458e-17 0)
(3 1.13445e-16 0)
(3 5.57841e-16 0)
(3 1.25392e-15 0)
(3 1.38068e-15 0)
(3 7.56905e-16 0)
(3.00021 -4.83577e-05 0)
(1.2911 0.296592 0)
(0.797535 0.297472 0)
(0.769708 0.299058 0)
(0.731294 0.286951 0)
(0.699747 0.33633 0)
(0.698505 0.517958 0)
(0.633966 0.571356 0)
(0.572194 0.575747 0)
(0.483307 0.435534 0)
(0.36978 0.310754 0)
(0.295975 0.352758 0)
(0.252618 0.458079 0)
(0.257921 0.739165 0)
(0.1328 0.853284 0)
(3 -9.27228e-17 0)
(3 -3.49076e-16 0)
(3 -4.92172e-17 0)
(3 3.89876e-17 0)
(3 3.12452e-16 0)
(3 9.30096e-17 0)
(3 9.28314e-18 0)
(3 -4.16361e-16 0)
(3 -4.84136e-17 0)
(3 4.36199e-16 0)
(3 6.57176e-16 0)
(3 7.16702e-16 0)
(3 6.3741e-16 0)
(3 1.22018e-15 0)
(3 1.04253e-15 0)
(3.00001 1.81961e-05 0)
(1.3481 0.291436 0)
(0.778874 0.29703 0)
(0.759036 0.325049 0)
(0.733163 0.374639 0)
(0.744589 0.502428 0)
(0.712084 0.525214 0)
(0.657691 0.531087 0)
(0.586512 0.478905 0)
(0.447713 0.326487 0)
(0.363394 0.381094 0)
(0.348513 0.492289 0)
(0.336064 0.781812 0)
(0.281193 0.830051 0)
(0.149287 0.856671 0)
(3 -1.56917e-16 0)
(3 -9.11372e-16 0)
(3 -6.61797e-16 0)
(3 -7.657e-16 0)
(3 -1.43905e-16 0)
(3 -5.59163e-16 0)
(3 -7.54613e-16 0)
(3 -5.08963e-16 0)
(3 5.46974e-16 0)
(3 4.01118e-16 0)
(3 6.03884e-16 0)
(3 7.3534e-16 0)
(3 5.39814e-16 0)
(3 9.77821e-16 0)
(3 1.43745e-15 0)
(3 -4.29491e-06 0)
(1.42833 0.308341 0)
(0.764332 0.324516 0)
(0.762645 0.363058 0)
(0.759014 0.500328 0)
(0.74195 0.538999 0)
(0.718417 0.549511 0)
(0.668516 0.518327 0)
(0.524975 0.333552 0)
(0.474798 0.295244 0)
(0.42002 0.373108 0)
(0.465844 0.753134 0)
(0.355946 0.855052 0)
(0.2687 0.876286 0)
(0.132232 0.744761 0)
(3 -2.64827e-16 0)
(3 -1.92356e-16 0)
(3 -9.22189e-16 0)
(3 -9.77267e-16 0)
(3 -4.98973e-16 0)
(3 -1.65365e-16 0)
(3 -1.20663e-15 0)
(3 -1.00551e-15 0)
(3 -4.96504e-16 0)
(3 -3.14349e-16 0)
(3 1.10071e-15 0)
(3 3.44046e-16 0)
(3 1.31474e-15 0)
(3 1.95194e-15 0)
(3 2.13991e-15 0)
(3 -8.17182e-06 0)
(1.50799 0.357178 0)
(0.79401 0.3845 0)
(0.776114 0.461061 0)
(0.766967 0.490409 0)
(0.758073 0.51482 0)
(0.736183 0.501217 0)
(0.61157 0.338419 0)
(0.52922 0.376119 0)
(0.492075 0.423165 0)
(0.537755 0.683554 0)
(0.513909 0.798668 0)
(0.398742 0.869441 0)
(0.271557 0.918009 0)
(0.103681 0.724208 0)
(3 -3.51497e-17 0)
(3 -3.04438e-16 0)
(3 -4.07279e-16 0)
(3 -2.01549e-16 0)
(3 -9.87652e-16 0)
(3 -7.12817e-16 0)
(3 -1.31698e-15 0)
(3 -1.43472e-15 0)
(3 -7.22018e-16 0)
(3 7.91291e-16 0)
(3 8.32321e-16 0)
(3 5.31392e-16 0)
(3 1.3423e-15 0)
(3 2.64915e-15 0)
(3 2.22417e-15 0)
(3 -5.47451e-06 0)
(1.63469 0.409466 0)
(0.831374 0.451708 0)
(0.776468 0.482214 0)
(0.766042 0.480807 0)
(0.744704 0.441248 0)
(0.678603 0.335386 0)
(0.632937 0.341349 0)
(0.591323 0.448818 0)
(0.624752 0.709145 0)
(0.591393 0.785695 0)
(0.611597 0.76384 0)
(0.45343 0.813696 0)
(0.283939 0.693416 0)
(0.140522 0.827703 0)
(3 1.34045e-16 0)
(3 5.53642e-17 0)
(3 4.04749e-16 0)
(3 1.02441e-16 0)
(3 -7.01075e-18 0)
(3 -5.23674e-16 0)
(3 -5.38684e-16 0)
(3 -5.62395e-16 0)
(3 1.46599e-16 0)
(3 3.94255e-16 0)
(3 5.40143e-16 0)
(3 7.17175e-16 0)
(3 6.90536e-16 0)
(3 8.37293e-16 0)
(3 4.55673e-16 0)
(3 -5.039e-07 0)
(2.06995 0.415791 0)
(0.897094 0.456275 0)
(0.772463 0.415746 0)
(0.742831 0.41334 0)
(0.716445 0.425625 0)
(0.709432 0.472819 0)
(0.709483 0.540742 0)
(0.709602 0.606074 0)
(0.68616 0.645256 0)
(0.627379 0.647411 0)
(0.584493 0.645049 0)
(0.55276 0.688827 0)
(0.594486 0.893051 0)
(0.713911 1.23838 0)
(3 5.47571e-17 0)
(3 2.16836e-16 0)
(3 -2.59666e-16 0)
(3 -6.7101e-18 0)
(3 3.01985e-16 0)
(3 -3.67406e-18 0)
(3 2.88562e-16 0)
(3 4.19316e-16 0)
(3 3.71649e-16 0)
(3 1.24844e-16 0)
(3 1.16324e-16 0)
(3 4.45832e-16 0)
(3 -2.28671e-17 0)
(3 -7.45869e-16 0)
(3 -7.45841e-16 0)
(3 -5.35846e-08 0)
(2.91566 0.16652 0)
(1.10029 0.508778 0)
(0.855295 0.461872 0)
(0.822375 0.471557 0)
(0.792482 0.501433 0)
(0.767355 0.533475 0)
(0.74846 0.563744 0)
(0.732062 0.588689 0)
(0.715866 0.613337 0)
(0.702498 0.663444 0)
(0.722159 0.751843 0)
(0.761491 0.88468 0)
(0.861699 1.01742 0)
(1.09906 1.15386 0)
(3 -7.73761e-17 0)
(3 -2.17112e-17 0)
(3 -2.61544e-16 0)
(3 3.8459e-17 0)
(3 -2.87273e-17 0)
(3 5.98472e-17 0)
(3 3.93426e-16 0)
(3 3.92497e-16 0)
(3 7.71518e-17 0)
(3 7.53252e-17 0)
(3 -7.68606e-17 0)
(3 -3.19422e-16 0)
(3 2.69771e-17 0)
(3 -1.3655e-15 0)
(3 -8.43351e-16 0)
(3 -5.88615e-09 0)
(3.03449 0.00328921 0)
(1.46241 0.517883 0)
(0.917894 0.555322 0)
(0.861785 0.554137 0)
(0.821915 0.553829 0)
(0.794065 0.559783 0)
(0.776841 0.580371 0)
(0.76899 0.616872 0)
(0.77386 0.671488 0)
(0.796722 0.737305 0)
(0.820146 0.81018 0)
(0.871201 0.898448 0)
(1.01254 0.985422 0)
(1.25851 1.03709 0)
(3 -1.18554e-17 0)
(3 -4.91127e-16 0)
(3 -1.60037e-16 0)
(3 6.33053e-17 0)
(3 8.41534e-17 0)
(3 1.79273e-16 0)
(3 1.4497e-16 0)
(3 2.24324e-16 0)
(3 2.8023e-16 0)
(3 2.28898e-16 0)
(3 -2.36671e-16 0)
(3 1.71947e-16 0)
(3 1.80402e-16 0)
(3 -1.12827e-15 0)
(3 -9.33309e-16 0)
(3 -8.99727e-11 0)
(3.00055 9.60186e-06 0)
(2.26011 0.455145 0)
(1.01586 0.61865 0)
(0.909339 0.597344 0)
(0.878273 0.599487 0)
(0.853274 0.603312 0)
(0.838935 0.619997 0)
(0.836334 0.651565 0)
(0.841748 0.694438 0)
(0.865705 0.744271 0)
(0.904477 0.806585 0)
(0.987055 0.880235 0)
(1.13119 0.941797 0)
(1.32941 0.980146 0)
(3 5.999e-17 0)
(3 2.93343e-17 0)
(3 2.2352e-16 0)
(3 1.68233e-17 0)
(3 -3.19131e-17 0)
(3 1.39513e-17 0)
(3 4.6784e-16 0)
(3 5.70348e-16 0)
(3 4.12999e-16 0)
(3 -2.64965e-17 0)
(3 -3.45504e-16 0)
(3 -6.26528e-16 0)
(3 -9.434e-16 0)
(3 -8.26609e-16 0)
(3 -8.4959e-16 0)
(3 -1.58358e-14 0)
(3.00001 -5.1721e-06 0)
(3.0505 0.0640221 0)
(1.33301 0.611327 0)
(0.993595 0.627106 0)
(0.97153 0.632525 0)
(0.945337 0.646873 0)
(0.926856 0.65538 0)
(0.916071 0.674755 0)
(0.919267 0.705143 0)
(0.944893 0.745868 0)
(0.987657 0.797255 0)
(1.07052 0.854313 0)
(1.1915 0.896055 0)
(1.3433 0.92103 0)
(3 1.37141e-16 0)
(3 4.74196e-16 0)
(3 3.21214e-16 0)
(3 -1.35737e-17 0)
(3 1.63319e-16 0)
(3 1.00361e-16 0)
(3 -1.25189e-17 0)
(3 -1.12996e-16 0)
(3 -4.84345e-16 0)
(3 -4.79652e-16 0)
(3 -6.3982e-16 0)
(3 -1.43615e-15 0)
(3 -1.56714e-15 0)
(3 -1.25783e-16 0)
(3 1.04819e-16 0)
(3 5.32436e-15 0)
(3 -1.47323e-06 0)
(3.00633 0.000272708 0)
(1.94606 0.575754 0)
(1.0332 0.695993 0)
(0.99432 0.680263 0)
(0.997592 0.697717 0)
(0.992194 0.711149 0)
(0.991001 0.725663 0)
(1.0009 0.744537 0)
(1.02518 0.77023 0)
(1.06775 0.802546 0)
(1.14139 0.839299 0)
(1.23859 0.863939 0)
(1.36366 0.880778 0)
(3 1.19664e-16 0)
(3 -6.49508e-17 0)
(3 -4.43702e-16 0)
(3 -5.13622e-16 0)
(3 1.54543e-16 0)
(3 3.44702e-16 0)
(3 1.88375e-16 0)
(3 -3.2273e-16 0)
(3 -4.32509e-16 0)
(3 -4.80353e-16 0)
(3 -4.71194e-16 0)
(3 -3.30192e-16 0)
(3 -1.29067e-16 0)
(3 5.39133e-16 0)
(3 1.14547e-15 0)
(3 1.50529e-15 0)
(3 -6.19105e-08 0)
(3.00002 7.65222e-07 0)
(2.99639 0.141016 0)
(1.32459 0.70619 0)
(1.05145 0.674005 0)
(1.06616 0.71009 0)
(1.06521 0.730127 0)
(1.06988 0.748379 0)
(1.08376 0.764325 0)
(1.10656 0.780671 0)
(1.14268 0.799906 0)
(1.20457 0.822271 0)
(1.28265 0.838525 0)
(1.38124 0.850309 0)
(3 -3.52624e-17 0)
(3 -2.19794e-16 0)
(3 -1.63535e-16 0)
(3 -1.00887e-16 0)
(3 -2.15085e-16 0)
(3 -2.01148e-16 0)
(3 -9.03998e-17 0)
(3 1.02717e-16 0)
(3 4.49419e-16 0)
(3 5.39574e-16 0)
(3 5.67382e-16 0)
(3 6.82064e-16 0)
(3 8.3388e-16 0)
(3 6.67733e-16 0)
(3 1.3632e-15 0)
(3 1.20796e-15 0)
(3 -1.09003e-10 0)
(3 -7.59744e-07 0)
(3.01297 0.00181487 0)
(1.93965 0.614975 0)
(1.12236 0.749809 0)
(1.08681 0.7488 0)
(1.09818 0.76057 0)
(1.11434 0.778106 0)
(1.13717 0.794798 0)
(1.1671 0.810392 0)
(1.20543 0.82395 0)
(1.25803 0.834998 0)
(1.32385 0.84227 0)
(1.40355 0.846067 0)
(3 -1.80653e-17 0)
(3 5.80481e-17 0)
(3 1.22369e-16 0)
(3 4.14684e-16 0)
(3 3.90835e-16 0)
(3 2.67574e-16 0)
(3 4.49254e-16 0)
(3 4.97462e-16 0)
(3 5.23603e-16 0)
(3 4.77335e-16 0)
(3 8.44594e-16 0)
(3 8.8474e-16 0)
(3 7.65886e-16 0)
(3 6.32511e-16 0)
(3 9.20352e-16 0)
(3 1.35376e-15 0)
(3 -2.7906e-14 0)
(3 -1.07943e-07 0)
(3.00007 1.26617e-05 0)
(2.96694 0.145181 0)
(1.46949 0.771172 0)
(1.13506 0.757356 0)
(1.14751 0.762825 0)
(1.16151 0.781019 0)
(1.18414 0.796693 0)
(1.21441 0.811269 0)
(1.25415 0.823331 0)
(1.30235 0.831736 0)
(1.36233 0.835397 0)
(1.42952 0.835527 0)
(3 2.8034e-18 0)
(3 -3.33984e-17 0)
(3 6.3626e-17 0)
(3 1.00518e-16 0)
(3 4.16073e-16 0)
(3 6.19512e-16 0)
(3 4.32115e-16 0)
(3 3.47694e-16 0)
(3 6.90296e-17 0)
(3 1.49811e-16 0)
(3 3.65739e-16 0)
(3 3.72354e-16 0)
(3 2.5452e-16 0)
(3 -2.01513e-17 0)
(3 5.95621e-17 0)
(3 3.48755e-16 0)
(3 7.46822e-16 0)
(3 -1.65275e-09 0)
(3 -8.11522e-07 0)
(3.00831 0.00369085 0)
(2.34138 0.55091 0)
(1.27104 0.812206 0)
(1.18644 0.811506 0)
(1.20338 0.809301 0)
(1.22045 0.816883 0)
(1.24897 0.825016 0)
(1.28813 0.833434 0)
(1.33411 0.84017 0)
(1.38917 0.842623 0)
(1.44909 0.840578 0)
(3 -2.85916e-17 0)
(3 -1.21824e-16 0)
(3 -2.82434e-16 0)
(3 -7.18925e-17 0)
(3 -6.71978e-17 0)
(3 -5.6016e-17 0)
(3 -9.88704e-17 0)
(3 -2.8959e-16 0)
(3 -5.69592e-16 0)
(3 -3.48403e-16 0)
(3 -3.14304e-16 0)
(3 -1.70224e-16 0)
(3 -3.33516e-17 0)
(3 2.33344e-17 0)
(3 -1.31387e-16 0)
(3 -9.88005e-16 0)
(3 -3.28062e-16 0)
(3 -2.39705e-12 0)
(3 -1.38958e-07 0)
(3.00003 2.91628e-05 0)
(3.01937 0.059544 0)
(1.77469 0.750613 0)
(1.25434 0.832396 0)
(1.26131 0.82762 0)
(1.2702 0.826892 0)
(1.29171 0.828373 0)
(1.32443 0.832279 0)
(1.36574 0.835408 0)
(1.41419 0.836899 0)
(1.4683 0.834495 0)
(3 -1.89948e-17 0)
(3 -4.56362e-17 0)
(3 -1.53151e-16 0)
(3 -2.4486e-16 0)
(3 -1.71122e-16 0)
(3 -2.24005e-16 0)
(3 -4.67584e-18 0)
(3 1.69576e-16 0)
(3 2.11643e-16 0)
(3 5.11507e-17 0)
(3 7.60458e-18 0)
(3 -6.28471e-17 0)
(3 -1.92596e-17 0)
(3 1.45543e-16 0)
(3 -1.18736e-16 0)
(3 -6.72586e-16 0)
(3 -2.2247e-16 0)
(3 1.55608e-17 0)
(3 -6.29406e-09 0)
(3 5.65671e-10 0)
(3.00175 0.00183498 0)
(2.81739 0.285118 0)
(1.56982 0.850525 0)
(1.29857 0.870628 0)
(1.31411 0.861953 0)
(1.3325 0.858634 0)
(1.35743 0.85542 0)
(1.39099 0.852017 0)
(1.43097 0.849607 0)
(1.47785 0.844587 0)
(3 -7.65072e-17 0)
(3 -7.47344e-17 0)
(3 -4.82263e-17 0)
(3 1.72529e-16 0)
(3 1.05307e-16 0)
(3 -6.39059e-16 0)
(3 -9.37137e-16 0)
(3 1.50786e-16 0)
(3 5.32368e-16 0)
(3 5.47542e-16 0)
(3 5.76671e-16 0)
(3 3.1854e-16 0)
(3 2.97254e-16 0)
(3 3.00926e-17 0)
(3 -6.24714e-17 0)
(3 -4.67725e-16 0)
(3 -7.44103e-17 0)
(3 4.04434e-16 0)
(3 -2.32413e-11 0)
(3 -1.45829e-10 0)
(3 4.56757e-06 0)
(3.00707 0.0146807 0)
(2.49841 0.534208 0)
(1.46884 0.902898 0)
(1.34732 0.882118 0)
(1.38188 0.872712 0)
(1.39952 0.867803 0)
(1.42663 0.860256 0)
(1.45872 0.85323 0)
(1.49742 0.844826 0)
(3 8.31748e-17 0)
(3 2.78453e-17 0)
(3 2.36322e-16 0)
(3 1.95697e-16 0)
(3 1.07824e-16 0)
(3 -3.3949e-16 0)
(3 -1.14221e-15 0)
(3 -9.93268e-16 0)
(3 -6.99749e-16 0)
(3 1.83462e-16 0)
(3 1.43483e-16 0)
(3 7.25038e-17 0)
(3 2.4803e-16 0)
(3 -2.03352e-16 0)
(3 -4.78554e-16 0)
(3 -4.86207e-16 0)
(3 -2.30778e-16 0)
(3 2.21914e-16 0)
(3 -4.1789e-14 0)
(3 -2.58271e-11 0)
(3 7.05175e-10 0)
(3.00004 0.000200635 0)
(3.0062 0.0493843 0)
(2.13438 0.717233 0)
(1.4259 0.903597 0)
(1.41285 0.903339 0)
(1.44143 0.890594 0)
(1.46428 0.882753 0)
(1.49062 0.873491 0)
(1.52125 0.863574 0)
(3 1.47148e-17 0)
(3 1.54262e-16 0)
(3 7.05332e-17 0)
(3 -4.06968e-16 0)
(3 -2.00785e-16 0)
(3 5.0924e-16 0)
(3 1.27608e-17 0)
(3 -5.52682e-16 0)
(3 -4.35795e-16 0)
(3 -4.48928e-17 0)
(3 1.27762e-17 0)
(3 -1.7166e-16 0)
(3 -5.24648e-16 0)
(3 -4.9633e-16 0)
(3 -1.96348e-16 0)
(3 -2.21102e-16 0)
(3 -3.5654e-16 0)
(3 -2.10057e-16 0)
(3 -9.00166e-16 0)
(3 -2.96521e-12 0)
(3 -2.9787e-12 0)
(3 1.21706e-07 0)
(3.0004 0.00144897 0)
(2.93589 0.152979 0)
(1.9098 0.802926 0)
(1.46895 0.91536 0)
(1.4709 0.915814 0)
(1.50217 0.90515 0)
(1.52576 0.894668 0)
(1.55183 0.883447 0)
(3 4.0825e-17 0)
(3 1.73578e-16 0)
(3 -1.12268e-16 0)
(3 -5.52163e-16 0)
(3 4.0321e-17 0)
(3 5.32055e-16 0)
(3 9.00818e-16 0)
(3 7.20548e-16 0)
(3 5.82356e-16 0)
(3 1.34489e-16 0)
(3 9.97536e-17 0)
(3 -2.71732e-16 0)
(3 -7.20984e-16 0)
(3 -7.88862e-16 0)
(3 -3.22621e-16 0)
(3 -5.9017e-16 0)
(3 -4.22771e-16 0)
(3 -6.90975e-16 0)
(3 -8.39834e-16 0)
(3 -4.54302e-14 0)
(3 -7.42985e-13 0)
(3 2.76261e-11 0)
(3 2.30494e-06 0)
(3.00067 0.00712176 0)
(2.80662 0.279821 0)
(1.81152 0.856457 0)
(1.51661 0.930777 0)
(1.52795 0.928269 0)
(1.55801 0.914783 0)
(1.58173 0.904661 0)
(3 6.5702e-17 0)
(3 -1.66761e-16 0)
(3 -7.77972e-17 0)
(3 -6.18895e-17 0)
(3 5.26138e-17 0)
(3 3.37338e-16 0)
(3 4.47838e-16 0)
(3 4.49389e-16 0)
(3 3.14601e-16 0)
(3 3.07771e-16 0)
(3 -3.83809e-16 0)
(3 -2.30322e-16 0)
(3 -8.4167e-17 0)
(3 -4.10618e-16 0)
(3 -6.46755e-16 0)
(3 -4.74877e-16 0)
(3 -6.2355e-16 0)
(3 -8.17275e-16 0)
(3 -7.74601e-16 0)
(3 1.29424e-17 0)
(3 -4.65939e-14 0)
(3 -3.93674e-14 0)
(3 7.23385e-10 0)
(3 3.43077e-05 0)
(2.9991 0.017214 0)
(2.66418 0.396478 0)
(1.77783 0.885812 0)
(1.56332 0.940138 0)
(1.57813 0.93575 0)
(1.6066 0.92364 0)
(3 -7.33935e-17 0)
(3 -1.35458e-16 0)
(3 2.2307e-17 0)
(3 -1.04858e-16 0)
(3 -8.59378e-17 0)
(3 -1.36852e-16 0)
(3 2.29945e-16 0)
(3 2.90103e-16 0)
(3 -5.62226e-17 0)
(3 -3.33931e-16 0)
(3 -1.48199e-17 0)
(3 4.35089e-16 0)
(3 7.77565e-16 0)
(3 3.90306e-16 0)
(3 -5.34157e-16 0)
(3 -1.06446e-15 0)
(3 -1.22913e-15 0)
(3 -4.10225e-16 0)
(3 4.786e-16 0)
(3 1.14088e-15 0)
(3 8.73381e-16 0)
(3 -6.81021e-15 0)
(3 6.24256e-14 0)
(3 1.85738e-08 0)
(2.99998 0.00017567 0)
(2.99232 0.0314946 0)
(2.55063 0.481834 0)
(1.77514 0.901932 0)
(1.60711 0.947072 0)
(1.6208 0.942862 0)
(3 -8.50809e-17 0)
(3 1.63579e-16 0)
(3 1.41149e-16 0)
(3 1.696e-16 0)
(3 -8.31e-17 0)
(3 -5.66141e-16 0)
(3 -5.28174e-16 0)
(3 -9.94374e-17 0)
(3 -1.46361e-17 0)
(3 -3.98451e-16 0)
(3 -1.69436e-17 0)
(3 9.30391e-16 0)
(3 1.27991e-15 0)
(3 8.06662e-16 0)
(3 -3.20789e-16 0)
(3 -7.52061e-16 0)
(3 -3.84796e-16 0)
(3 4.13201e-16 0)
(3 6.92063e-16 0)
(3 7.14402e-16 0)
(3 1.28724e-15 0)
(3 8.90049e-16 0)
(3 7.99994e-16 0)
(3 3.07665e-12 0)
(3 1.40602e-07 0)
(2.99993 0.000528265 0)
(2.9813 0.0479565 0)
(2.47405 0.536407 0)
(1.79463 0.913072 0)
(1.64714 0.952324 0)
(3 -7.6242e-17 0)
(3 -2.81464e-18 0)
(3 4.04304e-17 0)
(3 1.33933e-17 0)