/*--------------------------------*- C++ -*----------------------------------*\
  =========                 |
  \\      /  F ield         | OpenFOAM: The Open Source CFD Toolbox
   \\    /   O peration     | Website:  https://openfoam.org
    \\  /    A nd           | Version:  6.0
     \\/     M anipulation  |
\*---------------------------------------------------------------------------*/
FoamFile
{
    version     2.0;
    format      ascii;
    class       volScalarField;
    location    "2";
    object      p;
}
// * * * * * * * * * * * * * * * * * * * * * * * * * * * * * * * * * * * * * //

dimensions      [1 -1 -2 0 0 0 0];

internalField   nonuniform List<scalar> 
192000
(
0.758328
0.653492
0.611402
0.584049
0.566445
0.553515
0.543632
0.535809
0.529456
0.524038
0.519564
0.515511
0.512272
0.509086
0.50701
0.507159
0.508498
0.51108
0.526756
0.549001
0.652186
0.833534
1.51918
3.20638
4.84249
4.91735
4.88624
4.80739
4.78331
4.80004
4.85865
4.98132
5.09182
5.16743
5.25092
5.3657
5.53103
5.80278
6.25991
7.20661
0.758326
0.653493
0.611403
0.584049
0.566445
0.553515
0.543632
0.535809
0.529456
0.524038
0.519564
0.515512
0.51227
0.509088
0.506999
0.507138
0.508563
0.510977
0.527093
0.547836
0.654701
0.828252
1.52432
3.19768
4.84672
4.91919
4.88771
4.80857
4.7842
4.80088
4.85938
4.98189
5.09157
5.16726
5.25069
5.36528
5.53088
5.80267
6.2593
7.20462
0.758326
0.653493
0.611403
0.584049
0.566445
0.553515
0.543632
0.535808
0.529456
0.524039
0.519564
0.515512
0.51227
0.509089
0.506996
0.507134
0.508554
0.510961
0.527028
0.547707
0.654259
0.826903
1.52223
3.19065
4.85071
4.92191
4.89024
4.81093
4.78636
4.80297
4.86113
4.98281
5.09127
5.16687
5.25037
5.36438
5.53078
5.8022
6.25772
7.20086
0.758328
0.653492
0.611402
0.584048
0.566445
0.553515
0.543632
0.535809
0.529456
0.524039
0.519564
0.515512
0.512271
0.509087
0.507005
0.507151
0.508459
0.511016
0.526561
0.548512
0.651167
0.830147
1.51161
3.18612
4.85342
4.92563
4.89405
4.81451
4.7898
4.8063
4.86396
4.98422
5.09098
5.16633
5.25007
5.36328
5.5305
5.80129
6.25522
7.19611
0.758328
0.653492
0.611402
0.584048
0.566445
0.553515
0.543632
0.535809
0.529456
0.524039
0.519564
0.515513
0.51227
0.509088
0.50701
0.507159
0.508452
0.511151
0.526159
0.549019
0.648715
0.830999
1.50126
3.17217
4.85795
4.93143
4.89976
4.81992
4.79448
4.81074
4.86776
4.9865
5.09084
5.16563
5.24964
5.36205
5.52981
5.79992
6.25188
7.1906
0.758328
0.653492
0.611402
0.584048
0.566445
0.553515
0.543632
0.535809
0.529455
0.52404
0.519562
0.515516
0.512264
0.509095
0.506983
0.507125
0.50841
0.510931
0.526266
0.547942
0.64892
0.825198
1.4958
3.14833
4.86466
4.93987
4.90759
4.82669
4.80028
4.81634
4.87272
4.98992
5.0911
5.16476
5.24903
5.36071
5.52897
5.79827
6.24778
7.18379
0.758326
0.653493
0.611403
0.584049
0.566445
0.553515
0.543632
0.535809
0.529455
0.524041
0.51956
0.51552
0.512257
0.509106
0.506949
0.507077
0.508478
0.510796
0.526441
0.54654
0.649901
0.816062
1.49165
3.11138
4.87434
4.95102
4.91784
4.8354
4.80717
4.82295
4.87872
4.99446
5.09202
5.16395
5.24826
5.35904
5.5278
5.79622
6.24299
7.17576
0.758326
0.653493
0.611403
0.58405
0.566444
0.553515
0.543631
0.53581
0.529454
0.524043
0.519558
0.515524
0.512252
0.509111
0.506938
0.507066
0.508433
0.510754
0.52621
0.546047
0.64805
0.810849
1.47903
3.07207
4.88408
4.9636
4.92965
4.84527
4.81501
4.83052
4.88585
4.99988
5.0934
5.16318
5.24737
5.35727
5.5263
5.79369
6.23734
7.16699
0.758325
0.653493
0.611403
0.58405
0.566444
0.553515
0.543631
0.53581
0.529454
0.524044
0.519556
0.515527
0.512247
0.509116
0.506921
0.507044
0.508413
0.510685
0.525938
0.545488
0.645922
0.80526
1.46322
3.02408
4.89472
4.97803
4.94322
4.85651
4.82377
4.83884
4.89348
5.00571
5.09512
5.16269
5.2465
5.35557
5.52434
5.79068
6.23095
7.15823
0.758325
0.653492
0.611403
0.58405
0.566444
0.553516
0.543631
0.535811
0.529453
0.524045
0.519555
0.51553
0.512242
0.509123
0.5069
0.507019
0.508366
0.510605
0.52562
0.544891
0.643439
0.799412
1.4441
2.96819
4.90675
4.99417
4.95831
4.86884
4.83322
4.84784
4.90182
5.01227
5.09733
5.1624
5.2455
5.35368
5.522
5.78726
6.22404
7.14889
0.758325
0.653492
0.611403
0.58405
0.566444
0.553516
0.54363
0.535811
0.529453
0.524046
0.519553
0.515533
0.512235
0.509131
0.506875
0.506991
0.508272
0.510486
0.525233
0.544211
0.640742
0.793423
1.42183
2.9046
4.9206
5.01163
4.97476
4.8819
4.84321
4.85745
4.91095
5.01968
5.10022
5.16245
5.24446
5.35173
5.51948
5.78343
6.21663
7.139
0.758325
0.653493
0.611403
0.58405
0.566444
0.553516
0.54363
0.535812
0.529452
0.524048
0.519551
0.515537
0.512228
0.509141
0.506846
0.506956
0.508232
0.510438
0.524794
0.543615
0.637603
0.786323
1.39762
2.83025
4.93737
5.03106
4.99232
4.89507
4.85328
4.86719
4.92014
5.02725
5.10344
5.16292
5.24336
5.3497
5.51663
5.7791
6.20874
7.12957
0.758325
0.653493
0.611403
0.58405
0.566444
0.553516
0.54363
0.535812
0.529451
0.524049
0.519548
0.515541
0.51222
0.509152
0.506812
0.506917
0.508154
0.510314
0.52435
0.542985
0.634174
0.779316
1.37078
2.7475
4.9562
5.05115
5.01037
4.90821
4.86343
4.87709
4.9296
5.03532
5.10738
5.16393
5.24234
5.34768
5.51349
5.7745
6.20046
7.12027
0.758324
0.653494
0.611403
0.58405
0.566444
0.553516
0.54363
0.535813
0.52945
0.524051
0.519545
0.515546
0.512211
0.509166
0.506771
0.506869
0.508062
0.510152
0.523899
0.542238
0.630815
0.772
1.34327
2.65815
4.97511
5.0707
5.02781
4.92109
4.87336
4.88686
4.93901
5.0435
5.11174
5.16543
5.24139
5.3456
5.51005
5.76975
6.19175
7.11059
0.758324
0.653495
0.611402
0.584049
0.566444
0.553516
0.543629
0.535814
0.529449
0.524053
0.519542
0.515551
0.512201
0.509179
0.506729
0.506819
0.50795
0.509983
0.523383
0.541473
0.627474
0.764789
1.31847
2.5664
4.98861
5.08865
5.04401
4.93381
4.88301
4.89641
4.94838
5.05172
5.11641
5.16752
5.24059
5.3434
5.50627
5.76483
6.18275
7.10034
0.758324
0.653494
0.611401
0.584048
0.566444
0.553517
0.543628
0.535816
0.529446
0.524056
0.519537
0.515557
0.512191
0.509191
0.506701
0.506791
0.507769
0.510015
0.52241
0.541562
0.622383
0.760907
1.29402
2.48389
4.98991
5.10364
5.05815
4.94597
4.89213
4.90546
4.95727
5.05962
5.12121
5.1699
5.23981
5.34116
5.50214
5.75965
6.17347
7.08996
0.758324
0.653495
0.611401
0.584048
0.566444
0.553517
0.543628
0.535817
0.529445
0.524059
0.519533
0.515564
0.51218
0.509204
0.506666
0.506749
0.507682
0.509965
0.521694
0.541126
0.618461
0.754691
1.2731
2.42056
4.97077
5.11449
5.06933
4.95699
4.9006
4.91385
4.9655
5.06699
5.12602
5.17241
5.23893
5.33886
5.49761
5.75397
6.16386
7.07992
0.758323
0.653496
0.611402
0.584049
0.566444
0.553518
0.543627
0.535818
0.529442
0.524063
0.519527
0.515572
0.512165
0.509221
0.50662
0.506693
0.507563
0.509724
0.521359
0.539823
0.615738
0.746966
1.25377
2.36651
4.93925
5.12204
5.07793
4.96653
4.9084
4.9216
4.97315
5.07385
5.13064
5.17491
5.23777
5.33631
5.49262
5.74759
6.15379
7.07052
0.75832
0.653498
0.611402
0.584049
0.566444
0.553517
0.543627
0.535819
0.529441
0.524065
0.519522
0.515579
0.512152
0.509239
0.506569
0.506628
0.507503
0.509324
0.521351
0.537937
0.614094
0.737087
1.236
2.30856
4.90849
5.1276
5.08438
4.97413
4.91542
4.92867
4.98033
5.08027
5.13498
5.17728
5.23647
5.33348
5.48696
5.74039
6.14316
7.06168
0.758319
0.653498
0.611402
0.584049
0.566444
0.553518
0.543627
0.53582
0.529439
0.524068
0.519517
0.515587
0.512138
0.509254
0.506524
0.506573
0.507367
0.509092
0.520902
0.536218
0.611905
0.727654
1.21763
2.25273
4.87049
5.13101
5.08917
4.98043
4.92163
4.93502
4.98703
5.08625
5.13899
5.17946
5.23507
5.33031
5.4805
5.73233
6.13191
7.05288
0.75832
0.653498
0.611402
0.584048
0.566445
0.553518
0.543626
0.535822
0.529437
0.524072
0.519511
0.515595
0.512124
0.50927
0.506482
0.506525
0.507206
0.509073
0.519993
0.535738
0.607838
0.721777
1.19717
2.20469
4.82029
5.13197
5.092
4.9858
4.92676
4.94033
4.99311
5.09123
5.14231
5.18121
5.23355
5.32672
5.47342
5.72367
6.12002
7.04368
0.758319
0.653499
0.611402
0.584048
0.566445
0.553517
0.543627
0.535822
0.529435
0.524075
0.519506
0.515603
0.512111
0.509286
0.506437
0.506469
0.507099
0.508922
0.51943
0.534997
0.60443
0.715959
1.17811
2.16296
4.76191
5.12991
5.09239
4.98963
4.93085
4.94485
4.99819
5.09511
5.14466
5.18221
5.2316
5.32227
5.4654
5.7143
6.10725
7.03388
0.758319
0.6535
0.611402
0.584047
0.566446
0.553517
0.543627
0.535822
0.529434
0.524077
0.519502
0.51561
0.512098
0.509303
0.506389
0.50641
0.506988
0.508741
0.518914
0.533612
0.60205
0.707419
1.16281
2.12087
4.70355
5.12469
5.09021
4.99167
4.93396
4.94849
5.00248
5.09796
5.14591
5.18219
5.22891
5.3167
5.45624
5.70406
6.09336
7.02319
0.758319
0.6535
0.611402
0.584047
0.566446
0.553516
0.543627
0.535822
0.529434
0.524078
0.519498
0.515616
0.512087
0.509319
0.506339
0.506348
0.506884
0.508587
0.518279
0.532352
0.599249
0.69879
1.14686
2.07919
4.64338
5.11693
5.08523
4.99147
4.93634
4.95135
5.006
5.09973
5.14617
5.18127
5.22544
5.30999
5.44582
5.69249
6.07804
7.01129
0.75832
0.6535
0.611402
0.584047
0.566446
0.553516
0.543627
0.535823
0.529433
0.524079
0.519496
0.51562
0.512079
0.509325
0.506318
0.506261
0.506767
0.508381
0.517796
0.531275
0.596201
0.691551
1.12836
2.03806
4.57841
5.10693
5.0781
4.98972
4.93781
4.9533
5.00846
5.10037
5.14545
5.17913
5.22103
5.30215
5.43406
5.67921
6.06095
6.99794
0.758321
0.653499
0.611402
0.584046
0.566445
0.553517
0.543627
0.535824
0.529432
0.524081
0.519493
0.515624
0.512072
0.509331
0.5063
0.506167
0.506649
0.508201
0.517279
0.530277
0.593069
0.68514
1.10772
1.99658
4.5059
5.09515
5.06955
4.98693
4.9386
4.95447
5.0099
5.09971
5.14338
5.17555
5.21536
5.29291
5.4207
5.66381
6.04173
6.98296
0.758322
0.653499
0.611401
0.584046
0.566445
0.553517
0.543625
0.535825
0.52943
0.524084
0.519489
0.515629
0.512064
0.509338
0.506278
0.506068
0.506534
0.508072
0.51669
0.52934
0.589747
0.678565
1.08844
1.9536
4.42486
5.08234
5.06041
4.9836
4.93885
4.95486
5.01021
5.09776
5.13985
5.17055
5.20832
5.28206
5.40553
5.64587
6.01991
6.96593
0.758322
0.653499
0.611401
0.584046
0.566445
0.553518
0.543624
0.535827
0.529427
0.524088
0.519484
0.515637
0.512052
0.509348
0.506257
0.505975
0.506416
0.507875
0.516265
0.528421
0.587057
0.673673
1.06775
1.91349
4.33473
5.06803
5.05007
4.97987
4.93851
4.95457
5.00948
5.09418
5.13481
5.16394
5.19971
5.26933
5.38838
5.62477
5.99489
6.94616
0.758323
0.653499
0.611401
0.584046
0.566444
0.553519
0.543623
0.535829
0.529425
0.524092
0.519478
0.515645
0.512039
0.50936
0.506228
0.505882
0.506304
0.507731
0.515724
0.527505
0.583957
0.667685
1.04942
1.87049
4.24004
5.0529
5.03915
4.97597
4.93772
4.95355
5.00747
5.08905
5.12816
5.15557
5.1893
5.2545
5.36914
5.59964
5.96596
6.92288
0.758323
0.653499
0.611401
0.584046
0.566444
0.553519
0.543622
0.53583
0.529422
0.524096
0.519472
0.515652
0.512027
0.509372
0.5062
0.505801
0.5062
0.507558
0.515277
0.526577
0.581339
0.661706
1.03276
1.82394
4.13881
5.03672
5.02753
4.97204
4.93656
4.95191
5.00412
5.08256
5.11995
5.14536
5.17689
5.23725
5.34721
5.57006
5.93233
6.89491
0.758323
0.653499
0.611402
0.584047
0.566443
0.55352
0.543621
0.535832
0.52942
0.524098
0.519469
0.515657
0.51202
0.509376
0.506193
0.50574
0.506109
0.50729
0.51502
0.525013
0.580245
0.651129
1.02557
1.76634
4.03617
5.01863
5.01461
4.96823
4.93462
4.94938
4.99946
5.07436
5.10998
5.13321
5.16246
5.21753
5.32211
5.53571
5.89307
6.86056
0.758324
0.653498
0.611402
0.584047
0.566443
0.55352
0.54362
0.535832
0.529419
0.524099
0.519466
0.51566
0.512016
0.509377
0.506183
0.505658
0.506003
0.507138
0.514522
0.524174
0.577303
0.645423
1.00776
1.71745
3.92017
4.99938
5.00283
4.96408
4.9319
4.94589
4.99336
5.06426
5.09782
5.11874
5.14546
5.19487
5.29314
5.4957
5.84688
6.81777
0.758326
0.653498
0.611401
0.584046
0.566443
0.55352
0.54362
0.535833
0.529419
0.5241
0.519466
0.51566
0.512016
0.509368
0.506192
0.50553
0.505852
0.50693
0.514015
0.523228
0.574508
0.639851
0.98723
1.66879
3.79256
4.97997
4.9946
4.95963
4.92843
4.94145
4.98576
5.05228
5.0835
5.10197
5.12551
5.16948
5.25963
5.44875
5.79209
6.76373
0.758328
0.653498
0.611401
0.584045
0.566443
0.55352
0.54362
0.535833
0.529418
0.5241
0.519466
0.515659
0.512019
0.509353
0.506213
0.505367
0.505676
0.506799
0.513292
0.522875
0.570002
0.63865
0.955413
1.62636
3.64597
4.96291
4.98894
4.95642
4.92404
4.9358
4.97616
5.03811
5.06661
5.08237
5.10228
5.14055
5.22086
5.39388
5.72662
6.69446
0.758329
0.653498
0.6114
0.584044
0.566443
0.55352
0.54362
0.535833
0.529418
0.5241
0.519466
0.515658
0.512022
0.509341
0.506226
0.505239
0.505521
0.506579
0.512776
0.521927
0.566864
0.633751
0.930243
1.57279
3.48716
4.94784
4.98547
4.95497
4.91867
4.9289
4.96449
5.02145
5.04685
5.05959
5.0757
5.10731
5.17599
5.33083
5.64669
6.60361
0.758331
0.653498
0.611401
0.584043
0.566443
0.553519
0.54362
0.535833
0.529418
0.5241
0.519467
0.515656
0.512025
0.50933
0.506235
0.505141
0.505386
0.506293
0.512426
0.520432
0.565076
0.623209
0.917454
1.50114
3.32564
4.93184
4.98221
4.95342
4.91153
4.92008
4.95055
5.00177
5.02369
5.03348
5.04523
5.06913
5.12443
5.25901
5.54837
6.48307
0.758333
0.653497
0.6114
0.584042
0.566442
0.55352
0.54362
0.535833
0.529418
0.5241
0.519467
0.515654
0.512031
0.509314
0.506256
0.505016
0.505237
0.506128
0.511607
0.519283
0.561039
0.616359
0.891353
1.43978
3.14644
4.91922
4.97999
4.95049
4.90146
4.90806
4.93296
4.9776
4.99589
5.00251
5.00934
5.02422
5.06358
5.17382
5.42768
6.32251
0.75834
0.653491
0.611399
0.584043
0.56644
0.553524
0.543616
0.535838
0.529414
0.524103
0.519466
0.515652
0.512039
0.50929
0.506293
0.50484
0.505021
0.506433
0.508927
0.523902
0.543605
0.642443
0.801291
1.44072
2.9115
4.91
4.97733
4.94613
4.88813
4.89223
4.91044
4.94732
4.96243
4.96625
4.96744
4.97106
4.99177
5.07256
5.27816
6.10411
0.758342
0.653489
0.611398
0.584044
0.566439
0.553525
0.543615
0.535838
0.529415
0.524101
0.519471
0.515644
0.512056
0.509256
0.506336
0.504691
0.504845
0.506217
0.508453
0.522913
0.541162
0.63399
0.778567
1.36804
2.692
4.89237
4.97055
4.93744
4.86999
4.86961
4.88032
4.90695
4.91953
4.91999
4.91606
4.90524
4.90565
4.95043
5.08803
5.79486
0.758342
0.65349
0.611398
0.584044
0.56644
0.553524
0.543617
0.535835
0.529418
0.524096
0.519478
0.515632
0.512075
0.509221
0.50638
0.504538
0.504656
0.505916
0.507965
0.521423
0.538449
0.624152
0.755765
1.29699
2.47992
4.8358
4.95424
4.92022
4.8466
4.833
4.83876
4.85631
4.86482
4.86243
4.85206
4.82707
4.7948
4.80267
4.83813
5.32594
1.05252
1.04335
1.01973
0.99249
0.973628
0.957356
0.944586
0.933981
0.925043
0.917284
0.91078
0.904762
0.899965
0.895033
0.892979
0.893523
0.895662
0.90608
0.924904
0.999054
1.14166
1.60071
2.80602
6.14961
8.41696
8.44278
8.35311
8.21877
8.23252
8.29604
8.45077
8.66399
8.82632
8.94394
9.0837
9.27817
9.54306
9.97261
10.6309
11.6111
1.05251
1.04335
1.01973
0.992491
0.973626
0.957358
0.944584
0.933982
0.925042
0.917285
0.91078
0.904763
0.899963
0.895039
0.892957
0.89349
0.89657
0.904052
0.931122
0.986932
1.16215
1.57032
2.82534
6.13339
8.4201
8.4455
8.35506
8.22049
8.23418
8.29769
8.45212
8.66431
8.82573
8.94344
9.08343
9.27732
9.54297
9.9723
10.6284
11.6037
1.05251
1.04335
1.01973
0.992491
0.973626
0.957358
0.944584
0.933982
0.925042
0.917285
0.91078
0.904764
0.899963
0.895039
0.892951
0.893482
0.896553
0.904015
0.931005
0.986674
1.16134
1.56824
2.82015
6.11949
8.42273
8.44744
8.35719
8.22404
8.23776
8.30114
8.4549
8.6652
8.82477
8.94266
9.0829
9.27554
9.5426
9.97088
10.6228
11.595
1.05252
1.04335
1.01973
0.992489
0.973627
0.957356
0.944585
0.933981
0.925043
0.917285
0.91078
0.904763
0.899964
0.895033
0.892964
0.893502
0.895622
0.905927
0.924597
0.998103
1.1396
1.59477
2.79015
6.10783
8.42406
8.44875
8.35984
8.22945
8.24323
8.30644
8.45935
8.66712
8.82391
8.94192
9.08231
9.27347
9.54149
9.96799
10.6142
11.5865
1.05252
1.04335
1.01973
0.992489
0.973627
0.957357
0.944585
0.933981
0.925043
0.917286
0.91078
0.904764
0.899963
0.895031
0.892961
0.893504
0.895652
0.905923
0.924556
0.997684
1.13809
1.59235
2.77529
6.07868
8.4266
8.45316
8.36522
8.23682
8.25031
8.31306
8.46495
8.66954
8.82263
8.94036
9.08087
9.27035
9.53902
9.96317
10.602
11.5764
1.05252
1.04335
1.01973
0.992489
0.973627
0.957357
0.944585
0.933982
0.925042
0.917288
0.910777
0.904769
0.899954
0.895042
0.892911
0.893438
0.895541
0.905697
0.924177
0.996717
1.13629
1.58508
2.76279
6.03539
8.43157
8.46097
8.37351
8.24568
8.25877
8.32111
8.47209
8.67313
8.8219
8.93852
9.07911
9.26659
9.53571
9.95706
10.5872
11.5622
1.05251
1.04335
1.01973
0.992491
0.973625
0.957359
0.944583
0.933985
0.92504
0.91729
0.910774
0.904774
0.899942
0.89506
0.89283
0.893325
0.896499
0.903398
0.930434
0.983641
1.15552
1.54745
2.76521
5.96981
8.43949
8.47332
8.3857
8.2565
8.26859
8.33009
8.47998
8.67712
8.82108
8.93586
9.07639
9.26148
9.53136
9.94941
10.5696
11.5446
1.05251
1.04335
1.01973
0.992492
0.973624
0.957359
0.944582
0.933986
0.925039
0.917292
0.910771
0.904779
0.899935
0.895065
0.892829
0.893342
0.896395
0.903603
0.929796
0.983417
1.15183
1.54018
2.74246
5.90222
8.44719
8.48605
8.39897
8.26829
8.2793
8.33994
8.48881
8.68199
8.82064
8.93322
9.07343
9.25572
9.52631
9.94023
10.5499
11.5264
1.05251
1.04335
1.01973
0.992492
0.973624
0.95736
0.944581
0.933987
0.925038
0.917295
0.910768
0.904783
0.899928
0.895073
0.892792
0.893292
0.896412
0.903162
0.929828
0.981137
1.15047
1.52744
2.71652
5.82116
8.45683
8.50143
8.41466
8.28178
8.29122
8.35062
8.49832
8.68761
8.8206
8.93053
9.06985
9.25004
9.51927
9.92954
10.5281
11.5075
1.05251
1.04335
1.01973
0.992492
0.973623
0.957361
0.94458
0.933988
0.925037
0.917297
0.910766
0.904788
0.89992
0.89508
0.892753
0.893242
0.896317
0.902976
0.929273
0.979856
1.14661
1.51713
2.6839
5.7274
8.46846
8.5189
8.43207
8.29627
8.30362
8.36162
8.50809
8.69362
8.82076
8.92774
9.06564
9.24352
9.51098
9.91742
10.5043
11.487
1.05251
1.04335
1.01973
0.992492
0.973623
0.957361
0.94458
0.933989
0.925035
0.917299
0.910763
0.904792
0.899913
0.895086
0.892713
0.893197
0.89611
0.903056
0.928111
0.979755
1.13997
1.50986
2.64476
5.62176
8.48237
8.53791
8.45093
8.31134
8.31622
8.37266
8.51774
8.69974
8.82104
8.92489
9.0607
9.23622
9.50145
9.90354
10.4785
11.4661
1.05251
1.04335
1.01973
0.992492
0.973623
0.957362
0.944579
0.933991
0.925033
0.917302
0.910759
0.904797
0.899903
0.895096
0.892646
0.893109
0.896079
0.902513
0.927949
0.976879
1.13766
1.49327
2.60671
5.49945
8.49999
8.55951
8.47133
8.32679
8.32869
8.3839
8.52739
8.70592
8.82149
8.92202
9.05514
9.22822
9.49061
9.8881
10.451
11.4456
1.05251
1.04335
1.01973
0.992492
0.973622
0.957363
0.944578
0.933993
0.925031
0.917305
0.910755
0.904802
0.899893
0.895105
0.892581
0.893033
0.895927
0.902231
0.927213
0.975058
1.133
1.47892
2.56368
5.36462
8.51977
8.58177
8.49251
8.34206
8.3407
8.3949
8.53662
8.71188
8.82203
8.91898
9.04873
9.21935
9.47845
9.87149
10.422
11.4243
1.05251
1.04335
1.01973
0.992493
0.973622
0.957364
0.944577
0.933996
0.925028
0.917309
0.910749
0.904809
0.899881
0.895119
0.892503
0.892935
0.895769
0.901897
0.926385
0.973221
1.1278
1.46474
2.51848
5.2205
8.53884
8.60346
8.5132
8.35717
8.35185
8.40533
8.54518
8.71732
8.82246
8.91575
9.04146
9.20956
9.46502
9.8539
10.3914
11.4015
1.05251
1.04335
1.01973
0.992493
0.973622
0.957365
0.944576
0.933998
0.925025
0.917313
0.910743
0.904817
0.899868
0.895133
0.892417
0.892823
0.895524
0.901588
0.925242
0.971731
1.12139
1.45319
2.47233
5.07216
8.55397
8.62359
8.53301
8.37197
8.36196
8.4147
8.55266
8.7217
8.82238
8.91212
9.03324
9.19879
9.45026
9.83525
10.3595
11.3771
1.05251
1.04335
1.01972
0.992493
0.973623
0.957364
0.944576
0.933999
0.925023
0.917318
0.910737
0.904826
0.899855
0.895142
0.892369
0.892776
0.894552
0.90313
0.918961
0.980291
1.09747
1.46623
2.40917
4.93482
8.55949
8.64042
8.55104
8.38607
8.37129
8.42311
8.55913
8.72507
8.82187
8.90805
9.0241
9.18709
9.43409
9.81535
10.3263
11.3517
1.05251
1.04335
1.01972
0.992493
0.973623
0.957366
0.944575
0.934002
0.925019
0.917324
0.910728
0.904838
0.899836
0.895162
0.892297
0.892687
0.89442
0.902824
0.918147
0.978411
1.09173
1.45312
2.36523
4.80452
8.55028
8.65328
8.5662
8.39835
8.37908
8.42998
8.56421
8.72722
8.82074
8.9033
9.01382
9.17429
9.41631
9.79382
10.2921
11.3257
1.05251
1.04335
1.01972
0.992494
0.973622
0.957368
0.944573
0.934006
0.925014
0.917331
0.910717
0.904853
0.89981
0.895193
0.892194
0.892559
0.894235
0.902346
0.917369
0.975809
1.08674
1.43675
2.3228
4.67116
8.53415
8.66392
8.57909
8.40865
8.38542
8.43537
8.56786
8.72806
8.81872
8.89778
9.00237
9.16025
9.39677
9.77035
10.2565
11.3001
1.05251
1.04335
1.01972
0.992496
0.97362
0.957371
0.94457
0.934011
0.925008
0.917339
0.910705
0.90487
0.899782
0.895229
0.892076
0.892406
0.894759
0.900188
0.921639
0.963616
1.09867
1.39454
2.29734
4.52067
8.51807
8.67473
8.58926
8.41564
8.38986
8.43897
8.56984
8.72742
8.81545
8.89105
8.98965
9.14464
9.37517
9.74467
10.2191
11.2741
1.05251
1.04335
1.01972
0.992497
0.973619
0.957373
0.944568
0.934014
0.925004
0.917346
0.910694
0.904883
0.899759
0.895253
0.891998
0.892312
0.894552
0.899854
0.920671
0.961215
1.0931
1.37771
2.25237
4.38026
8.49059
8.68276
8.59677
8.42011
8.39264
8.44096
8.57019
8.72515
8.81065
8.88296
8.97554
9.12725
9.35154
9.71686
10.1798
11.2469
1.05251
1.04335
1.01972
0.992497
0.97362
0.957373
0.944568
0.934016
0.925001
0.917351
0.910686
0.904895
0.89974
0.895274
0.891929
0.892224
0.89372
0.901074
0.914916
0.968292
1.07052
1.38772
2.19017
4.26616
8.44079
8.68608
8.60101
8.42309
8.39377
8.44133
8.5693
8.72122
8.80434
8.87348
8.96013
9.10816
9.32591
9.68716
10.1384
11.2175
1.05251
1.04335
1.01972
0.992498
0.973619
0.957374
0.944566
0.934018
0.924996
0.917357
0.910677
0.904909
0.899717
0.8953
0.891839
0.892118
0.893591
0.90066
0.914209
0.965862
1.06483
1.37367
2.1474
4.17005
8.36318
8.68443
8.60126
8.42334
8.39292
8.43996
8.56689
8.71563
8.79621
8.86241
8.94335
9.08715
9.29833
9.65591
10.0948
11.1856
1.05251
1.04335
1.01972
0.992499
0.973618
0.957376
0.944565
0.934021
0.924992
0.917363
0.910667
0.904922
0.899693
0.895329
0.891732
0.891981
0.89333
0.900321
0.91298
0.963884
1.05836
1.35947
2.10331
4.07387
8.28302
8.6785
8.59797
8.42081
8.38997
8.43643
8.56248
8.70811
8.7861
8.84937
8.92481
9.06394
9.26834
9.62263
10.0487
11.1505
1.05251
1.04335
1.01972
0.992499
0.973618
0.957377
0.944563
0.934023
0.924988
0.917368
0.910659
0.904935
0.899672
0.895355
0.891634
0.891857
0.893125
0.899911
0.911956
0.96155
1.05126
1.34582
2.05463
3.98145
8.19829
8.66802
8.59037
8.41482
8.38496
8.43111
8.55633
8.69854
8.77379
8.83406
8.90455
9.03805
9.23566
9.5864
9.99968
11.1123
1.05251
1.04335
1.01972
0.992498
0.973617
0.957378
0.944562
0.934026
0.924984
0.917374
0.910651
0.904945
0.899656
0.895372
0.891558
0.891756
0.893021
0.899359
0.911422
0.958312
1.04586
1.32902
2.00351
3.88971
8.10639
8.65406
8.57909
8.40623
8.3782
8.42421
8.54841
8.68687
8.75926
8.8163
8.88199
9.0095
9.19992
9.54642
9.94701
11.0706
1.05251
1.04335
1.01972
0.992498
0.973617
0.957378
0.944561
0.934028
0.924981
0.917379
0.910643
0.904956
0.899637
0.895391
0.891466
0.891629
0.892832
0.898903
0.910565
0.955746
1.0397
1.31427
1.95408
3.79143
8.00344
8.63649
8.56468
8.39563
8.36985
8.41574
8.53849
8.67292
8.74236
8.796
8.85699
8.9781
9.16092
9.50206
9.89008
11.025
1.05252
1.04335
1.01972
0.992497
0.973617
0.957378
0.944561
0.934029
0.924978
0.917383
0.910634
0.904968
0.899616
0.895413
0.891362
0.891481
0.89254
0.898567
0.909258
0.954021
1.03239
1.30254
1.90784
3.69534
7.8809
8.61618
8.54773
8.38379
8.36037
8.40579
8.52647
8.65642
8.72278
8.77288
8.82928
8.94341
9.11825
9.45259
9.8281
10.9744
1.05252
1.04335
1.01972
0.992496
0.973618
0.957378
0.94456
0.934031
0.924975
0.917389
0.910626
0.90498
0.899594
0.895436
0.891267
0.891363
0.892416
0.898023
0.908728
0.951034
1.02771
1.2874
1.86934
3.60468
7.73958
8.59225
8.52809
8.3708
8.3498
8.39446
8.51243
8.63742
8.70058
8.74691
8.79869
8.90502
9.07153
9.39748
9.76022
10.9176
1.05252
1.04335
1.01972
0.992496
0.973618
0.957378
0.944559
0.934032
0.924972
0.917394
0.910618
0.904993
0.899571
0.895462
0.891153
0.891213
0.892142
0.89766
0.907569
0.949142
1.02102
1.27588
1.82897
3.5158
7.58674
8.56523
8.50631
8.35689
8.33817
8.38168
8.49608
8.61574
8.67551
8.7178
8.76493
8.86262
9.02033
9.33579
9.68518
10.8529
1.05252
1.04335
1.01972
0.992496
0.973618
0.957378
0.944558
0.934034
0.924969
0.917398
0.91061
0.905004
0.899549
0.895488
0.891044
0.891091
0.891977
0.89714
0.906817
0.946361
1.01708
1.25829
1.799
3.41588
7.42362
8.53547
8.4825
8.3421
8.32547
8.36747
8.47746
8.59136
8.64744
8.68537
8.72768
8.81593
8.9644
9.26646
9.60194
10.7782
1.05252
1.04335
1.01972
0.992496
0.973617
0.957379
0.944557
0.934036
0.924967
0.917401
0.910604
0.905011
0.899534
0.895502
0.890993
0.891024
0.892146
0.895662
0.909674
0.936711
1.02849
1.21306
1.80808
3.27855
7.25561
8.50176
8.45563
8.32671
8.3114
8.35166
8.45657
8.56428
8.61624
8.64941
8.68657
8.76455
8.90251
9.18867
9.50874
10.6911
1.05252
1.04335
1.01972
0.992496
0.973618
0.957378
0.944557
0.934036
0.924966
0.917403
0.910601
0.905015
0.899524
0.89551
0.890922
0.890919
0.891941
0.895359
0.90874
0.934917
1.02284
1.19904
1.77429
3.17986
7.06288
8.46649
8.42875
8.31157
8.2961
8.33395
8.43298
8.53422
8.58173
8.6099
8.64138
8.70831
8.83409
9.10132
9.40385
10.588
1.05252
1.04336
1.01972
0.992495
0.973619
0.957377
0.944558
0.934036
0.924966
0.917403
0.910601
0.905015
0.899522
0.895503
0.890882
0.890699
0.891647
0.894825
0.907657
0.932376
1.0173
1.18544
1.73701
3.088
6.84849
8.43076
8.40323
8.29793
8.27959
8.31434
8.40652
8.50094
8.54349
8.5664
8.59171
8.64701
8.75793
9.00242
9.28463
10.4646
1.05252
1.04335
1.01972
0.992494
0.97362
0.957375
0.944559
0.934034
0.924967
0.917402
0.910602
0.905013
0.899523
0.895488
0.890859
0.890368
0.891081
0.89523
0.903261
0.936657
0.996064
1.20138
1.65284
3.03412
6.59964
8.3973
8.37992
8.28598
8.26182
8.2927
8.37694
8.46423
8.50128
8.51883
8.53719
8.58059
8.67321
8.89068
9.14826
10.3143
1.05253
1.04336
1.01972
0.992492
0.973621
0.957373
0.94456
0.934032
0.924968
0.9174
0.910602
0.905012
0.899522
0.89548
0.890824
0.890163
0.890823
0.894731
0.902313
0.934309
0.990119
1.18911
1.61132
2.9342
6.33182
8.36561
8.35861
8.27509
8.24241
8.26872
8.34377
8.42344
8.4546
8.46614
8.47738
8.50769
8.57867
8.76494
8.99108
10.1296
1.05253
1.04336
1.01972
0.99249
0.973621
0.957373
0.944561
0.934031
0.924968
0.917399
0.910603
0.905012
0.899519
0.895478
0.890787
0.89007
0.890808
0.893481
0.904484
0.92585
0.999664
1.14655
1.61888
2.78377
6.05546
8.33301
8.33867
8.26354
8.22008
8.24207
8.307
8.37783
8.40279
8.40884
8.41148
8.42677
8.47241
8.62363
8.8078
9.89782
1.05253
1.04336
1.01972
0.992488
0.973623
0.957371
0.944563
0.934028
0.924971
0.917394
0.910607
0.905006
0.899525
0.895462
0.890772
0.889869
0.89054
0.893038
0.903425
0.923528
0.993675
1.13196
1.57949
2.67264
5.75073
8.30427
8.32218
8.24939
8.19428
8.212
8.26596
8.32675
8.34539
8.34551
8.33858
8.33737
8.35319
8.46365
8.59268
9.60491
1.05254
1.04336
1.01972
0.992482
0.973629
0.957363
0.944569
0.93402
0.924978
0.917385
0.910618
0.904991
0.899545
0.89542
0.890807
0.889548
0.890094
0.893289
0.900173
0.926387
0.975693
1.14162
1.49438
2.60384
5.39788
8.28192
8.3073
8.23402
8.1644
8.17706
8.21872
8.26876
8.28104
8.27651
8.25888
8.23581
8.21825
8.28403
8.3356
9.22413
1.05253
1.04336
1.01972
0.992482
0.973631
0.95736
0.944572
0.934014
0.924984
0.917376
0.910629
0.904974
0.899569
0.895372
0.890851
0.889281
0.889789
0.892796
0.899164
0.923991
0.970394
1.12531
1.45151
2.48235
5.03389
8.25285
8.28983
8.21659
8.12918
8.13521
8.16329
8.20239
8.20914
8.19987
8.17121
8.12474
8.06502
8.0787
8.0259
8.7176
1.05254
1.04336
1.01972
0.992483
0.973632
0.95736
0.944573
0.93401
0.924988
0.917368
0.910641
0.904956
0.899594
0.895323
0.890896
0.889009
0.889459
0.892201
0.89815
0.921221
0.964591
1.10846
1.41006
2.35669
4.67572
8.19106
8.27311
8.19923
8.09099
8.08262
8.09846
8.1272
8.12898
8.11516
8.07489
8.00497
7.89949
7.84504
7.64565
8.00252
1.06612
1.10996
1.11433
1.11125
1.10352
1.0929
1.08434
1.07617
1.06887
1.06236
1.05671
1.05132
1.04694
1.04244
1.04171
1.04267
1.04572
1.06097
1.08535
1.18741
1.37188
1.99692
3.60245
8.20604
10.2477
10.1817
9.959
9.83075
9.87714
10.0124
10.2719
10.5259
10.7051
10.836
10.9947
11.209
11.4893
11.9033
12.4558
13.1084
1.06612
1.10996
1.11433
1.11125
1.10352
1.0929
1.08434
1.07617
1.06887
1.06236
1.05671
1.05132
1.04693
1.04245
1.04168
1.04262
1.04678
1.05778
1.09378
1.16952
1.39996
1.95759
3.6291
8.18952
10.2472
10.1822
9.9601
9.83296
9.87943
10.0149
10.2737
10.5264
10.7048
10.8358
10.9946
11.2083
11.4885
11.902
12.4514
13.1038
1.06612
1.10996
1.11433
1.11125
1.10352
1.0929
1.08434
1.07617
1.06887
1.06236
1.05671
1.05132
1.04693
1.04245
1.04167
1.04261
1.04676
1.05774
1.09364
1.16923
1.39908
1.95533
3.62291
8.17336
10.246
10.181
9.95984
9.83635
9.88324
10.0191
10.2769
10.5272
10.7037
10.8349
10.9937
11.2058
11.4862
11.8979
12.4414
13.0959
1.06612
1.10996
1.11433
1.11125
1.10352
1.0929
1.08434
1.07617
1.06887
1.06236
1.05672
1.05132
1.04694
1.04244
1.04169
1.04265
1.0457
1.06075
1.08511
1.18616
1.3699
1.98956
3.58473
8.15686
10.2443
10.1785
9.95889
9.8409
9.88847
10.0249
10.2816
10.5287
10.7022
10.8335
10.992
11.2019
11.4822
11.8906
12.4259
13.0851
1.06612
1.10996
1.11433
1.11125
1.10352
1.0929
1.08434
1.07617
1.06887
1.06236
1.05672
1.05132
1.04694
1.04243
1.04168
1.04266
1.04605
1.06005
1.08754
1.18063
1.37642
1.97611
3.57481
8.12136
10.2421
10.1772
9.95999
9.84707
9.89523
10.0322
10.2873
10.5305
10.7002
10.8314
10.9894
11.1965
11.4761
11.8803
12.4052
13.0711
1.06612
1.10996
1.11433
1.11125
1.10352
1.0929
1.08434
1.07617
1.06887
1.06236
1.05671
1.05132
1.04693
1.04243
1.04163
1.04256
1.04561
1.06038
1.08472
1.18432
1.36685
1.97757
3.55552
8.07358
10.2404
10.1774
9.96315
9.85408
9.90282
10.0404
10.2942
10.5329
10.6982
10.8287
10.9858
11.1898
11.4682
11.8675
12.381
13.0531
1.06611
1.10996
1.11432
1.11125
1.10352
1.0929
1.08434
1.07618
1.06887
1.06237
1.05671
1.05133
1.04692
1.04245
1.04151
1.04231
1.04708
1.0558
1.09518
1.16225
1.39969
1.92253
3.56813
8.00157
10.2394
10.1803
9.96957
9.86249
9.91148
10.0495
10.3015
10.5355
10.6963
10.8249
10.981
11.1814
11.4581
11.8524
12.3535
13.0318
1.06611
1.10996
1.11433
1.11125
1.10352
1.0929
1.08434
1.07618
1.06886
1.06237
1.05671
1.05133
1.04691
1.04245
1.04153
1.04239
1.0468
1.05742
1.09121
1.17024
1.38031
1.93293
3.53123
7.92922
10.2383
10.183
9.97641
9.87109
9.9204
10.0589
10.3091
10.5384
10.6942
10.8204