/*--------------------------------*- C++ -*----------------------------------*\
  =========                 |
  \\      /  F ield         | OpenFOAM: The Open Source CFD Toolbox
   \\    /   O peration     | Website:  https://openfoam.org
    \\  /    A nd           | Version:  6.0
     \\/     M anipulation  |
\*---------------------------------------------------------------------------*/
FoamFile
{
    version     2.0;
    format      ascii;
    class       volScalarField;
    location    "2";
    object      p;
}
// * * * * * * * * * * * * * * * * * * * * * * * * * * * * * * * * * * * * * //

dimensions      [1 -1 -2 0 0 0 0];

internalField   nonuniform List<scalar> 
4800
(
1
1
1
1
1
1
1
1
1
1
1.00001
1.00001
1.00002
1.00005
1.0001
1.0002
1.00042
1.00086
1.00177
1.00364
1.00748
1.01538
1.03169
1.06548
1.13618
1.28691
1.6216
2.43912
4.94972
15.4961
15.1861
14.9735
13.7137
14.1646
14.2565
16.5999
33.0647
35.4225
36.282
30.571
1
1
1
1
1
1
1
1
1
1
1.00001
1.00001
1.00002
1.00005
1.0001
1.0002
1.00042
1.00086
1.00177
1.00364
1.00747
1.01538
1.03168
1.06548
1.13617
1.28692
1.6217
2.43961
4.95254
15.5228
15.2144
14.86
14.3784
13.6615
14.4971
16.7467
30.5973
41.5961
36.8792
28.7163
1
1
1
1
1
1
1
1
1
1
1.00001
1.00001
1.00002
1.00005
1.0001
1.0002
1.00042
1.00086
1.00177
1.00364
1.00747
1.01537
1.03167
1.06546
1.13614
1.28687
1.62171
2.44012
4.95679
15.5673
15.2415
14.6117
14.2131
13.6638
14.1044
16.4703
23.8889
44.4828
35.3461
27.848
1
1
1
1
1
1
1
1
1
1
1.00001
1.00001
1.00002
1.00005
1.0001
1.0002
1.00042
1.00086
1.00177
1.00364
1.00747
1.01537
1.03167
1.06546
1.13614
1.28684
1.62162
2.44003
4.95751
15.5685
15.2502
14.5596
13.9464
13.647
14.0017
14.8671
41.3192
41.9688
31.33
26.6749
1
1
1
1
1
1
1
1
1
1
1.00001
1.00001
1.00002
1.00005
1.0001
1.0002
1.00042
1.00086
1.00177
1.00364
1.00747
1.01537
1.03167
1.06546
1.13614
1.28687
1.62171
2.44022
4.95691
15.5184
15.2377
14.5904
13.9449
13.5976
14.1783
11.2853
36.2052
34.9504
27.3529
24.653
1
1
1
1
1
1
1
1
1
1
1.00001
1.00001
1.00002
1.00005
1.0001
1.00021
1.00042
1.00086
1.00177
1.00364
1.00748
1.01537
1.03167
1.06544
1.1361
1.28678
1.62156
2.44004
4.95563
15.4527
15.1691
14.5756
13.9891
13.5973
14.2497
9.98576
35.0376
29.7299
25.077
23.2138
1
1
1
1
1
1
1
1
1
1
1.00001
1.00001
1.00002
1.00005
1.0001
1.00021
1.00042
1.00087
1.00178
1.00365
1.00749
1.01539
1.03169
1.06546
1.1361
1.28672
1.62134
2.43936
4.95148
15.3579
15.0716
14.4613
14.0567
13.6564
14.0195
7.20851
31.4561
27.0825
24.8612
23.8528
1
1
1
1
1
1
1
1
1
1
1.00001
1.00001
1.00002
1.00005
1.0001
1.00021
1.00042
1.00087
1.00178
1.00366
1.00751
1.01543
1.03175
1.06556
1.13624
1.28688
1.62144
2.43908
4.94691
15.2387
14.9611
14.3672
14.0538
13.6178
13.8241
6.96239
32.0288
25.1847
22.698
22.4986
1
1
1
1
1
1
1
1
1
1
1.00001
1.00001
1.00002
1.00005
1.0001
1.00021
1.00043
1.00087
1.00179
1.00367
1.00753
1.01547
1.03184
1.06572
1.13652
1.28735
1.62213
2.43992
4.94423
15.103
14.8482
14.2981
14.0427
13.5371
13.4183
9.24914
33.4736
24.8835
22.5559
23.2637
1
1
1
1
1
1
1
1
1
1
1.00001
1.00001
1.00002
1.00005
1.0001
1.00021
1.00043
1.00087
1.00179
1.00368
1.00755
1.01552
1.03193
1.06589
1.13685
1.28797
1.62326
2.44183
4.94438
14.9636
14.7207
14.2576
13.8304
13.3518
12.569
10.1568
33.2594
24.3293
23.0383
22.6992
1
1
1
1
1
1
1
1
1
1
1.00001
1.00001
1.00002
1.00005
1.0001
1.00021
1.00043
1.00088
1.0018
1.00369
1.00757
1.01555
1.03199
1.06602
1.13711
1.28853
1.62447
2.4444
4.94783
14.8513
14.5855
14.0636
13.6634
13.279
13.0304
10.7082
32.4336
24.0252
22.971
22.6185
1
1
1
1
1
1
1
1
1
1
1.00001
1.00001
1.00002
1.00005
1.0001
1.00021
1.00043
1.00087
1.00179
1.00369
1.00757
1.01556
1.03202
1.06608
1.13724
1.28875
1.62489
2.4453
4.94799
14.7475
14.4579
13.8113
13.7365
13.2886
13.1018
11.5103
30.1122
23.9507
22.4809
23.7601
1
1
1
1
1
1
1
1
1
1
1.00001
1.00001
1.00002
1.00005
1.0001
1.00021
1.00042
1.00087
1.00179
1.00367
1.00755
1.01552
1.03197
1.06603
1.13721
1.28877
1.62495
2.44496
4.9419
14.6127
14.3167
13.6175
13.4607
13.4329
13.1284
12.6832
28.0498
23.827
22.3617
24.0178
1
1
1
1
1
1
1
1
1
1
1.00001
1.00001
1.00002
1.00005
1.0001
1.00021
1.00042
1.00087
1.00178
1.00366
1.00752
1.01546
1.03184
1.06577
1.13671
1.28789
1.62352
2.4427
4.93531
14.5234
14.2162
13.4832
12.9797
13.3269
13.3502
13.8682
25.0168
23.3995
23.1428
24.5769
1
1
1
1
1
1
1
1
1
1
1.00001
1.00001
1.00002
1.00005
1.0001
1.00021
1.00042
1.00087
1.00178
1.00365
1.00749
1.01541
1.03172
1.0655
1.13611
1.28651
1.62022
2.43416
4.90554
14.3391
14.1073
13.4473
12.8119
12.8241
13.3212
14.0003
19.6791
22.2066
21.1511
21.6819
1
1
1
1
1
1
1
1
1
1
1.00001
1.00001
1.00002
1.00005
1.0001
1.00021
1.00042
1.00086
1.00177
1.00364
1.00748
1.01536
1.03162
1.06529
1.13562
1.28538
1.61744
2.42612
4.8695
14.0168
13.7985
13.3486
12.7414
12.5121
12.7106
13.8036
16.5455
17.6908
19.1399
17.0112
1
1
1
1
1
1
1
1
1
1
1.00001
1.00001
1.00002
1.00005
1.0001
1.00021
1.00042
1.00087
1.00177
1.00364
1.00746
1.01533
1.03154
1.0651
1.13518
1.28436
1.61496
2.4192
4.84036
13.7776
13.5247
12.9056
12.792
12.201
12.2929
13.1223
14.8308
15.4866
15.3436
15.908
1
1
1
1
1
1
1
1
1
1
1.00001
1.00001
1.00002
1.00005
1.0001
1.00021
1.00042
1.00087
1.00177
1.00364
1.00746
1.0153
1.03146
1.0649
1.13471
1.28324
1.61224
2.41175
4.81056
13.5538
13.3038
12.6571
12.4918
11.9829
12.1332
12.4923
13.8876
14.0879
13.9717
15.6323
1
1
1
1
1
1
1
1
1
1
1.00001
1.00001
1.00002
1.00005
1.0001
1.00021
1.00042
1.00087
1.00177
1.00363
1.00745
1.01528
1.03138
1.06467
1.13414
1.28186
1.60883
2.40242
4.77492
13.3213
13.0829
12.4679
11.9982
12.0938
12.2038
12.3058
13.0714
13.0859
13.5716
15.6026
1
1
1
1
1
1
1
1
1
1
1.00001
1.00001
1.00002
1.00005
1.0001
1.0002
1.00042
1.00086
1.00176
1.00362
1.00742
1.01522
1.03126
1.06439
1.13344
1.28011
1.60439
2.39004
4.7287
13.0616
12.8539
12.291
11.7288
12.1321
12.4005
12.5753
12.4267
12.6245
13.601
15.6048
1
1
1
1
1
1
1
1
1
1
1.00001
1.00001
1.00002
1.00005
1.0001
1.0002
1.00041
1.00085
1.00174
1.00357
1.00733
1.01506
1.03097
1.06385
1.13232
1.27758
1.59817
2.37281
4.66679
12.7759
12.6065
12.1601
11.6682
11.5647
11.6428
12.2067
12.1322
12.4803
13.7433
15.8248
1
1
1
1
1
1
1
1
1
1
1.00001
1.00001
1.00002
1.00005
1.0001
1.0002
1.0004
1.00083
1.00171
1.0035
1.00718
1.01475
1.03033
1.06259
1.12989
1.27283
1.58808
2.34739
4.58167
12.4685
12.3569
12.1169
11.5989
11.387
11.4532
11.6851
11.9501
12.2505
13.3449
16.7798
1
1
1
1
1
1
1
1
1
1
1.00001
1.00001
1.00002
1.00005
1.00009
1.00019
1.00039
1.00081
1.00165
1.00339
1.00696
1.01429
1.02937
1.06055
1.12558
1.26373
1.56866
2.30224
4.44761
12.0999
12.2093
12.0869
11.9286
11.4426
11.4139
11.5809
11.8086
12.2241
13.4496
17.6678
1
1
1
1
1
1
1
1
1
1
1.00001
1.00001
1.00002
1.00004
1.00009
1.00018
1.00038
1.00077
1.00158
1.00324
1.00665
1.01366
1.02806
1.05782
1.1198
1.25113
1.53996
2.23084
4.23331
11.5041
12.1867
12.0751
11.9922
11.8257
11.5667
11.5956
11.9122
12.8349
13.2644
12.6918
1
1
1
1
1
1
1
1
1
1
1
1.00001
1.00002
1.00004
1.00008
1.00017
1.00035
1.00073
1.00149
1.00305
1.00625
1.01283
1.02636
1.05427
1.11234
1.23506
1.50364
2.13899
3.93944
10.3426
12.2341
12.0995
11.7861
11.5258
11.586
11.7057
12.0881
12.1494
11.7411
11.3604
1
1
1
1
1
1
1
1
1
1
1
1.00001
1.00002
1.00004
1.00008
1.00016
1.00033
1.00067
1.00137
1.00281
1.00576
1.01181
1.02423
1.04985
1.10301
1.215
1.45853
2.02685
3.59628
8.95946
12.4197
12.2166
11.7868
11.14
11.0217
11.1336
11.3208
11.5232
11.4167
11.1502
1
1
1
1
1
1
1
1
1
1
1
1.00001
1.00002
1.00004
1.00007
1.00015
1.0003
1.00061
1.00125
1.00255
1.00521
1.01066
1.02183
1.04479
1.09229
1.19191
1.40697
1.90075
3.22492
7.37979
12.8455
12.5209
11.8789
11.0962
10.8911
10.9174
11.0983
11.4171
11.2775
11.0517
1
1
1
1
1
1
1
1
1
1
1
1.00001
1.00002
1.00003
1.00007
1.00013
1.00027
1.00055
1.00113
1.0023
1.00469
1.00956
1.01949
1.03989
1.08212
1.17058
1.36044
1.78886
2.91126
6.1457
12.9681
12.6561
11.889
11.0308
10.8388
10.8494
10.9946
11.3611
11.1748
11.0087
1
1
1
1
1
1
1
1
1
1
1
1.00001
1.00001
1.00003
1.00006
1.00012
1.00025
1.00052
1.00106
1.00216
1.00441
1.00899
1.01836
1.03756
1.07715
1.15976
1.33609
1.7305
2.75627
5.78293
12.9624
12.639
11.8712
10.9579
10.7971
10.8108
10.907
11.2697
11.1179
10.9616
1
1
1
1
1
1
1
1
1
1
1
1.00001
1.00001
1.00003
1.00006
1.00012
1.00024
1.00049
1.001
1.00205
1.0042
1.00861
1.01765
1.03624
1.07463
1.15473
1.32549
1.70575
2.68604
5.60948
12.9459
12.6141
11.8355
10.9273
10.7576
10.7832
10.9005
11.1762
11.1881
11.0279
1
1
1
1
1
1
1
1
1
1
1
1.00001
1.00001
1.00003
1.00005
1.00011
1.00023
1.00046
1.00095
1.00195
1.004
1.00822
1.01689
1.03478
1.07179
1.14919
1.31438
1.68207
2.61729
5.41736
12.8869
12.5503
11.7414
10.9733
10.7876
10.8972
10.9242
11.2623
11.1799
11.0736
1
1
1
1
1
1
1
1
1
1
1
1.00001
1.00001
1.00003
1.00005
1.00011
1.00022
1.00045
1.00092
1.00188
1.00385
1.00791
1.01626
1.03349
1.06919
1.14388
1.30333
1.65828
2.5471
5.215
12.7496
12.4019
11.5852
10.6176
10.704
10.867
10.8109
11.4298
10.7238
10.705
1
1
1
1
1
1
1
1
1
1
1
1.00001
1.00001
1.00002
1.00005
1.0001
1.00021
1.00043
1.00089
1.00183
1.00374
1.00767
1.01575
1.03241
1.06693
1.13914
1.29322
1.63614
2.48108
4.99542
12.5317
12.2153
11.4619
10.3534
10.3436
10.4561
10.6471
10.8055
10.5892
10.5627
1
1
1
1
1
1
1
1
1
1
1
1.00001
1.00001
1.00002
1.00005
1.0001
1.0002
1.00042
1.00086
1.00177
1.00363
1.00744
1.01526
1.03134
1.0646
1.13405
1.28194
1.61005
2.41065
4.7672
12.0331
11.8938
11.339
10.2086
10.1962
10.3093
10.6359
10.5336
10.5258
10.5358
1
1
1
1
1
1
1
1
1
1
1
1.00001
1.00001
1.00002
1.00005
1.0001
1.0002
1.00041
1.00083
1.00171
1.00351
1.00721
1.01479
1.03038
1.06254
1.12954
1.27176
1.58602
2.34648
4.55973
11.4248
11.2453
10.839
10.2089
10.158
10.3012
10.7348
10.4529
10.5736
10.5877
1
1
1
1
1
1
1
1
1
1
1
1.00001
1.00001
1.00002
1.00004
1.00009
1.00019
1.00039
1.0008
1.00164
1.00337
1.00692
1.01424
1.02931
1.06041
1.1251
1.26199
1.56297
2.28487
4.36293
10.8776
10.8158
10.6029
10.2873
10.4291
10.5626
10.8368
10.3094
10.6802
10.2077
1
1
1
1
1
1
1
1
1
1
1
1
1.00001
1.00002
1.00004
1.00009
1.00018
1.00037
1.00076
1.00155
1.00319
1.00655
1.01349
1.02782
1.05752
1.11948
1.25073
1.53856
2.22339
4.1743
10.3645
10.4165
10.4041
10.4326
10.461
10.5522
10.3724
9.99778
10.5942
9.46536
1
1
1
1
1
1
1
1
1
1
1
1
1.00001
1.00002
1.00004
1.00008
1.00017
1.00035
1.00071
1.00146
1.003
1.00615
1.01264
1.02604
1.0538
1.11179
1.23496
1.50559
2.14759
3.96289
9.90015
10.1935
10.1665
10.1132
9.96522
10.0011
9.959
9.87937
9.98535
9.08285
1
1
1
1
1
1
1
1
1
1
1
1
1.00001
1.00002
1.00004
1.00008
1.00015
1.00032
1.00066
1.00135
1.00277
1.0057
1.01173
1.02414
1.04981
1.1033
1.2165
1.46412
2.04711
3.68016
9.11775
10.1342
10.1347
9.94361
9.96879
9.86365
9.68013
9.954
9.09347
8.87963
1
1
1
1
1
1
1
1
1
1
1
1
1.00001
1.00002
1.00003
1.00007
1.00014
1.00029
1.00059
1.00122
1.00251
1.00516
1.01061
1.02183
1.04501
1.09317
1.19457
1.41406
1.91785
3.27978
8.46699
10.1131
10.1196
9.9858
9.89358
9.61939
9.32411
9.4101
8.3559
8.73882
1
1
1
1
1
1
1
1
1
1
1
1
1.00001
1.00001
1.00002
1.00005
1.0001
1.00022
1.00044
1.00091
1.00187
1.00385
1.00791
1.01628
1.03351
1.06913
1.14344
1.30149
1.65153
2.52272
4.88819
9.99224
10.0208
9.98377
9.83493
9.47664
9.05601
8.61229
7.29911
7.01649
1
1
1
1
1
1
1
1
1
1
1
1
1
1.00001
1.00002
1.00004
1.00008
1.00016
1.00034
1.00069
1.00142
1.00292
1.00599
1.01232
1.02537
1.05237
1.10859
1.22751
1.48717
2.10125
3.75801
9.37607
9.91452
9.8401
9.60316
9.09329
8.82347
8.25049
7.35502
5.6115
1
1
1
1
1
1
1
1
1
1
1
1
1
1.00001
1.00002
1.00003
1.00007
1.00014
1.00029
1.00059
1.00121
1.00249
1.00511
1.01052
1.0217
1.04491
1.09339
1.19589
1.41824
1.92994
3.30147
7.90823
9.83132
9.73874
9.49238
9.01047
8.44105
7.53399
6.70393
5.6247
1
1
1
1
1
1
1
1
1
1
1
1
1
1.00001
1.00001
1.00002
1.00005
1.0001
1.00021
1.00043
1.00087
1.00177
1.0036
1.00735
1.01503
1.03082
1.06351
1.13202
1.27872
1.60535
2.42216
4.62928
9.6138
9.52942
9.28937
8.8203
8.2333
7.35405
6.59779
5.64668
1
1
1
1
1
1
1
1
1
1
1
1
1
1
1.00001
1.00002
1.00004
1.00008
1.00017
1.00035
1.00072
1.00147
1.00298
1.00602
1.01211
1.02428
1.04874
1.09849
1.20184
1.42412
1.94279
3.34722
9.15714
9.11636
8.91716
8.58826
8.14202
7.21677
6.46756
5.87651
1
1
1
1
1
1
1
1
1
1
1
1
1
1
1.00001
1.00001
1.00002
1.00005
1.0001
1.00021
1.00043
1.0009
1.00189
1.00396
1.00831
1.01736
1.03594
1.07383
1.15137
1.31267
1.67119
2.52166
4.36802
8.55636
8.50617
8.27993
8.00129
7.07866
6.32017
5.95585
1
1
1
1
1
1
1
1
1
1
1
1
1
1
1
1.00001
1.00001
1.00003
1.00006
1.00012
1.00024
1.0005
1.00103
1.00213
1.00439
1.00903
1.01861
1.03845
1.07981
1.16699
1.35627
1.78
2.89147
8.5774
8.41462
8.16655
7.66317
6.95021
6.39317
5.93303
1
1
1
1
1
1
1
1
1
1
1
1
1
1
1
1
1.00001
1.00002
1.00004
1.00008
1.00017
1.00035
1.00073
1.00151
1.00313
1.00647
1.01335
1.02754
1.05683
1.11785
1.24724
1.53163
2.22516
3.8377
8.05392
7.92366
7.45742
6.97278
6.63686
5.57995
1
1
1
1
1
1
1
1
1
1
1
1
1
1
1
1
1
1.00001
1.00002
1.00003
1.00007
1.00014
1.00028
1.00059
1.00121
1.00252
1.00524
1.01091
1.02273
1.04734
1.0986
1.20622
1.43699
1.95507
3.29514
6.9718
6.92288
6.81161
6.52209
5.46846
1
1
1
1
1
1
1
1
1
1
1
1
1
1
1
1
1
1
1.00001
1.00002
1.00003
1.00006
1.00013
1.00026
1.00052
1.00105
1.00212
1.00431
1.0088
1.01809
1.03741
1.0778
1.16302
1.34612
1.75903
2.79755
5.49449
5.82551
5.7064
5.45291
1
1
1
1
1
1
1
1
1
1
1
1
1
1
1
1
1
1
1.00001
1.00001
1.00002
1.00005
1.0001
1.0002
1.0004
1.0008
1.00159
1.00317
1.00632
1.01255
1.02488
1.04898
1.09595
1.19254
1.39968
1.88226
2.99986
5.46028
5.4258
5.32449
1
1
1
1
1
1
1
1
1
1
1
1
1
1
1
1
1
1
1
1.00001
1.00002
1.00004
1.00008
1.00017
1.00033
1.00067
1.00135
1.0027
1.00539
1.01078
1.02149
1.04269
1.08414
1.16781
1.34615
1.77863
2.85348
4.92594
4.88359
4.82888
1
1
1
1
1
1
1
1
1
1
1
1
1
1
1
1
1
1
1
1.00001
1.00001
1.00002
1.00005
1.0001
1.00021
1.00042
1.00086
1.00176
1.00358
1.00729
1.01485
1.03025
1.06176
1.12676
1.26523
1.58232
2.36628
4.46922
4.77965
4.62565
1
1
1
1
1
1
1
1
1
1
1
1
1
1
1
1
1
1
1
1
1
1.00001
1.00002
1.00004
1.00009
1.00018
1.00038
1.00076
1.00154
1.00311
1.0063
1.01279
1.02602
1.05316
1.10935
1.22733
1.48149
2.06654
3.4783
3.44907
1
1
1
1
1
1
1
1
1
1
1
1
1
1
1
1
1
1
1
1
1
1
1.00001
1.00001
1.00003
1.00006
1.00012
1.00025
1.00052
1.00107
1.00218
1.00445
1.00903
1.01826
1.0369
1.07479
1.15281
1.31753
1.68439
2.52386
1
1
1
1
1
1
1
1
1
1
1
1
1
1
1
1
1
1
1
1
1
1
1
1
1.00001
1.00002
1.00003
1.00006
1.00013
1.00026
1.00053
1.00109
1.00219
1.00441
1.0088
1.01728
1.03223
1.06086
1.12245
1.26045
1
1
1
1
1
1
1
1
1
1
1
1
1
1
1
1
1
1
1
1
1
1
1
1
1.00001
1.00001
1.00002
1.00004
1.00008
1.00015
1.0003
1.00059
1.00119
1.00246
1.00506
1.01032
1.02084
1.04193
1.0814
1.15923
1
1
1
1
1
1
1
1
1
1
1
1
1
1
1
1
1
1
1
1
1
1
1
1
1
1.00001
1.00002
1.00003
1.00007
1.00013
1.00025
1.00048
1.00092
1.00179
1.00347
1.0068
1.0135
1.02695
1.05353
1.10739
1
1
1
1
1
1
1
1
1
1
1
1
1
1
1
1
1
1
1
1
1
1
1
1
1
1.00001
1.00002
1.00003
1.00006
1.00012
1.00023
1.00045
1.00086
1.00169
1.00322
1.00638
1.01285
1.02595
1.05253
1.10409
1
1
1
1
1
1
1
1
1
1
1
1
1
1
1
1
1
1
1
1
1
1
1
1
1
1.00001
1.00001
1.00003
1.00006
1.00011
1.00021
1.00041
1.00077
1.00151
1.00288
1.00558
1.01071
1.0215
1.04488
1.09395
1
1
1
1
1
1
1
1
1
1
1
1
1
1
1
1
1
1
1
1
1
1
1
1
1
1.00001
1.00001
1.00003
1.00005
1.00009
1.00018
1.00036
1.00068
1.00134
1.00258
1.00506
1.00915
1.01673
1.03022
1.06007
1
1
1
1
1
1
1
1
1
1
1
1
1
1
1
1
1
1
1
1
1
1
1
1
1
1.00001
1.00001
1.00002
1.00004
1.00008
1.00015
1.0003
1.00058
1.00114
1.00222
1.00438
1.00809
1.01505
1.0269
1.05057
1
1
1
1
1
1
1
1
1
1
1
1
1
1
1
1
1
1
1
1
1
1
1
1
1
1
1.00001
1.00002
1.00003
1.00006
1.00013
1.00025
1.00049
1.00095
1.00187
1.0037
1.00705
1.01376
1.02549
1.0481
1
1
1
1
1
1
1
1
1
1
1
1
1
1
1
1
1
1
1
1
1
1
1
1
1
1
1.00001
1.00001
1.00003
1.00006
1.00012
1.00023
1.00046
1.00091
1.00178
1.00354
1.00681
1.01329
1.02534
1.04927
1
1
1
1
1
1
1
1
1
1
1
1
1
1
1
1
1
1
1
1
1
1
1
1
1
1
1
1.00001
1.00002
1.00005
1.0001
1.00021
1.00043
1.00089
1.00182
1.00377
1.00772
1.01569
1.03165
1.05953
1
1
1
1
1
1
1
1
1
1
1
1
1
1
1
1
1
1
1
1
1
1
1
1
1
1
1
1.00001
1.00002
1.00004
1.00007
1.00016
1.00034
1.00074
1.00161
1.00343
1.00719
1.01484
1.03021
1.06004
1
1
1
1
1
1
1
1
1
1
1
1
1
1
1
1
1
1
1
1
1
1
1
1
1
1
1.00001
1.00001
1.00002
1.00005
1.00009
1.00017
1.00033
1.00064
1.00123
1.0024
1.00448
1.00897
1.01858
1.03972
1
1
1
1
1
1
1
1
1
1
1
1
1
1
1
1
1
1
1
1
1
1
1
1
1
1
1.00001
1.00001
1.00003
1.00005
1.0001
1.00019
1.00037
1.00071
1.00135
1.00264
1.00502
1.00934
1.01783
1.03073
1
1
1
1
1
1
1
1
1
1
1
1
1
1
1
1
1
1
1
1
1
1
1
1
1
1
1.00001
1.00001
1.00002
1.00004
1.00008
1.00016
1.00032
1.00062
1.0012
1.00237
1.00468
1.00927
1.01824
1.03666
1
1
1
1
1
1
1
1
1
1
1
1
1
1
1
1
1
1
1
1
1
1
1
1
1
1
1
1.00001
1.00002
1.00004
1.0001
1.00022
1.00049
1.00103
1.00211
1.00427
1.00854
1.01691
1.03367
1.05909
1
1
1
1
1
1
1
1
1
1
1
1
1
1
1
1
1
1
1
1
1
1
1
1
1
1
1
1
1
1.00001
1.00002
1.00004
1.0001
1.00025
1.00065
1.00166
1.00413
1.01001
1.02367
1.0549
1
1
1
1
1
1
1
1
1
1
1
1
1
1
1
1
1
1
1
1
1
1
1
1
1
1
1
1
1
1
1.00001
1.00002
1.00004
1.00009
1.00019
1.00043
1.00098
1.0022
1.00497
1.01144
1
1
1
1
1
1
1
1
1
1
1
1
1
1
1
1
1
1
1
1
1
1
1
1
1
1
1
1
1
1
1.00001
1.00002
1.00004
1.00008
1.00016
1.00033
1.00069
1.0015
1.00332
1.00735
1
1
1
1
1
1
1
1
1
1
1
1
1
1
1
1
1
1
1
1
1
1
1
1
1
1
1
1
1
1
1.00001
1.00002
1.00004
1.00008
1.00017
1.00035
1.00069
1.00139
1.0028
1.00572
1
1
1
1
1
1
1
1
1
1
1
1
1
1
1
1
1
1
1
1
1
1
1
1
1
1
1
1
1
1
1.00001
1.00002
1.00005
1.0001
1.00022
1.00045
1.00091
1.00186
1.00376
1.0076
1
1
1
1
1
1
1
1
1
1
1
1
1
1
1
1
1
1
1
1
1
1
1
1
1
1
1
1
1
1
1.00001
1.00002
1.00004
1.00009
1.0002
1.00041
1.00086
1.00177
1.00362
1.0074
1
1
1
1
1
1
1
1
1
1
1
1
1
1
1
1
1
1
1
1
1
1
1
1
1
1
1
1
1
1
1
1.00001
1.00002
1.00005
1.00011
1.00025
1.00055
1.00122
1.00266
1.00572
1
1
1
1
1
1
1
1
1
1
1
1
1
1
1
1
1
1
1
1
1
1
1
1
1
1
1
1
1
1
1
1.00001
1.00001
1.00003
1.00005
1.00011
1.00023
1.00046
1.00099
1.00222
1
1
1
1
1
1
1
1
1
1
1
1
1
1
1
1
1
1
1
1
1
1
1
1
1
1
1
1
1
1
1
1.00001
1.00002
1.00003
1.00006
1.00013
1.00026
1.00052
1.00105
1.00213
1
1
1
1
1
1
1
1
1
1
1
1
1
1
1
1
1
1
1
1
1
1
1
1
1
1
1
1
1
1
1
1.00001
1.00001
1.00003
1.00006
1.00012
1.00025
1.00054
1.00113
1.00237
3.84303
2.64969
2.065
1.36273
1.3735
1.40074
1.43158
1.47418
1.49793
1.48664
1.51245
1.61198
1.53854
1.5622
1.65344
1.71113
1.67957
1.61546
1.80259
1.6113
1.7415
1.60957
1.62718
1.79836
2.19262
1.89569
1.83062
2.11613
2.07541
2.05701
2.28332
2.54077
3.03584
3.08225
2.5387
3.4917
3.69153
3.89312
4.2617
5.06948
3.83866
2.75806
2.11914
1.39068
1.38747
1.39996
1.43454
1.5098
1.52367
1.48746
1.57279
1.60471
1.57333
1.56574
1.59481
1.62635
1.68814
1.78616
1.66128
1.71152
1.87509
1.82315
1.77936
1.77135
1.90093
1.88109
1.86206
2.1125
2.39983
2.43996
2.24316
1.84416
2.08866
2.57688
2.71846
3.58237
3.8753
3.99484
3.85437
3.76138
4.27696
3.02312
2.25006
1.54532
1.4343
1.4436
1.46404
1.50942
1.50266
1.54364
1.58794
1.583
1.56614
1.53806
1.65163
1.68399
1.70392
1.71938
1.80465
1.81805
1.88
1.83084
1.85315
2.05714
2.02598
1.91022
1.84247
1.96169
2.01795
1.88315
1.86939
1.93859
2.21755
2.51946
2.47152
2.24508
1.37202
1.10244
1.09985
0.741483
4.38856
3.35235
2.51195
1.88437
1.56925
1.53337
1.53792
1.53869
1.53318
1.57105
1.57245
1.56044
1.57308
1.57621
1.66834
1.71522
1.61668
1.60168
1.81026
1.7458
1.73473
1.68417
1.62846
1.8557
1.87107
1.75466
1.77864
1.79537
1.75152
1.99775
2.14797
1.93706
2.11047
2.24884
2.67586
3.19675
2.65375
2.93572
2.91804
3.11085
4.43755
3.3981
2.54206
1.917
1.6887
1.6718
1.63472
1.60987
1.60656
1.60231
1.57887
1.58775
1.55451
1.5883
1.6083
1.63004
1.62511
1.63565
1.69388
1.84962
1.87245
1.93934
1.93292
1.80879
1.94557
1.87959
1.97302
2.0674
1.88396
1.86749
1.99533
2.28516
2.16364
2.01353
2.14773
2.41408
3.39364
3.60263
2.85873
3.52467
4.59062
3.46852
2.57974
1.97699
1.74385
1.69234
1.69098
1.68161
1.64614
1.69642
1.70797
1.64988
1.61902
1.56107
1.56834
1.65568
1.60924
1.61902
1.76269
1.74237
1.65362
1.66139
1.86978
1.87589
1.77348
1.88126
1.85816
2.01297
1.90484
1.9223
2.06561
2.17766
2.12467
2.15665
2.05888
2.23173
2.5279
3.31539
2.72048
3.91559
4.61551
3.47276
2.66295
2.08504
1.80607
1.70496
1.69669
1.69223
1.67133
1.7557
1.77796
1.54697
1.56158
1.8519
1.765
1.62693
1.63883
1.64416
1.67135
1.68851
1.6185
1.71112
1.72157
1.69847
1.80798
1.88566
1.86162
2.09176
2.08388
2.02832
2.08748
2.08464
1.95632
2.14734
2.42709
2.26182
2.56901
2.76761
3.16539
2.80898
4.6056
3.47048
2.75925
2.19345
1.85647
1.70796
1.69858
1.71425
1.74623
1.72945
1.69948
1.73207
1.66623
1.6353
1.90994
1.73464
1.59419
1.56814
1.64015
1.71218
1.61924
1.7371
1.81184
1.69006
1.92368
1.92517
1.84933
1.80267
1.75944
1.87311
1.96709
1.93051
1.95309
2.07925
2.46282
2.2895
2.72666
2.53032
2.13818
2.46092
4.55079
3.44571
2.83439
2.28401
1.89213
1.77105
1.75147
1.75345
1.74591
1.71712
1.7203
1.78552
1.8466
1.82186
1.69099
1.87276
1.70901
1.58139
1.59722
1.73745
1.74621
1.63299
1.7634
1.79638
1.78022
1.70595
1.87073
1.84824
1.80172
1.87433
2.19473
2.28615
1.99349
1.99481
2.62375
2.55427
2.51576
2.64873
2.13802
2.161
4.53387
3.36489
2.83358
2.37586
1.96082
1.87741
1.81129
1.78664
1.78242
1.80823
1.81525
1.8533
1.8043
1.78968
1.77812
1.70657
1.85516
1.75825
1.69546
1.68762
1.64469
1.69999
1.80321
1.71168
1.66774
1.70866
1.80362
1.84124
1.96773
2.09678
2.13539
2.56279
2.43931
2.17865
2.32823
2.30681
2.27108
2.60965
2.83271
2.79253
4.39549
3.35492
2.80263
2.43649
2.13776
1.97027
1.93373
1.93704
1.93248
1.91177
1.89129
1.87129
1.84817
1.68849
1.62108
1.8269
1.9175
1.87403
1.68878
1.66402
1.72002
1.61717
1.70626
1.87036
1.72539
1.80876
2.1071
1.92561
1.88432
1.87493
1.89684
2.01822
2.39769
2.07612
2.45796
2.45707
2.24757
2.45324
2.40332
2.0343
4.1069
3.31816
2.80408
2.40716
2.21797
2.07194
2.06002
2.0967
2.01476
1.95758
1.92877
1.86737
1.77616
1.72651
1.69112
1.72523
2.01546
1.76777
1.76759
1.89876
1.73888
1.74646
1.70916
1.6397
1.85299
1.9447
1.74354
1.85945
1.80288
1.73699
1.76412
2.06856
2.32489
2.79045
2.5732
2.57434
2.16686
2.07437
2.2729
1.86914
3.65469
3.25492
3.04534
2.53944
2.30356
2.26712
2.23584
2.234
2.13418
1.99994
1.90741
1.81956
1.80226
1.86491
1.80827
1.84126
2.07101
1.73563
1.63047
1.81904
1.86425
1.67301
1.61967
1.61235
2.10753
1.83534
1.75474
1.77587
1.65648
1.66635
1.87894
2.48259
2.53802
2.66416
2.82406
2.34465
2.29757
2.29923
3.0549
3.16776
3.26484
3.02795
2.98221
3.01764
2.66568
2.59218
2.34229
2.12932
2.05369
2.1963
2.0045
1.91757
1.88648
1.83931
1.77338
1.84947
2.15685
1.73083
1.56887
1.7012
1.80891
1.69819
1.80794
2.00509
1.84717
1.73212
1.87432
1.79504
1.61498
1.73505
2.28488
2.26668
2.46619
2.38363
2.26177
2.40838
2.18319
2.37221
2.8452
2.72325
2.87128
2.98926
3.05544
3.04796
2.66067
2.57412
2.33832
2.15669
2.15844
2.1509
2.26938
2.0035
1.84504
1.77487
1.8533
2.03304
2.1565
1.73325
1.66422
1.67381
1.90966
1.87589
1.80856
1.85616
1.6984
1.71005
2.08307
1.94619
1.75068
1.82424
1.96024
2.41478
2.25191
1.97183
1.96505
2.30917
2.6099
2.43254
2.32046
2.99482
2.34169
3.11984
3.09834
2.84953
2.68813
2.58403
2.33562
2.27922
2.20089
2.18803
2.28655
1.99782
1.89122
1.89598
2.09058
2.07208
2.01096
1.9633
1.73712
1.72281
1.95166
1.87797
1.93842
1.86253
1.62863
1.67886
2.10239
2.17194
1.86696
1.84299
2.0013
2.17682
2.07511
1.9766
2.05657
2.5969
2.51204
2.24852
2.24075
2.65666
1.65278
2.94533
2.87829
2.78692
2.72638
2.65734
2.44412
2.32313
2.23941
2.36987
2.2348
2.00461
1.98074
2.19513
2.1995
2.05669
2.08114
1.93673
1.94786
1.94802
2.00208
1.89121
2.08454
1.66721
1.61695
1.93083
2.20842
1.95472
1.84687
1.84882
2.06779
2.01476
2.06498
2.33554
2.25789
2.42717
2.69485
2.20586
2.36444
3.09966
1.44109
2.73061
2.83791
2.83047
2.7961
2.70684
2.45734
2.38415
2.51834
2.42895
2.16339
2.11221
2.24158
2.32223
2.14377
2.13016
2.01282
1.99638
2.03893
1.98296
1.99681
1.99143
1.91853
1.91252
1.89083
2.11192
1.96995
1.95708
1.82291
1.90389
1.98163
1.80251
1.85636
2.41199
2.43815
2.43881
2.47069
2.16785
2.61797
4.35752
1.42426
2.62162
2.88935
2.89067
2.85265
2.66623
2.60367
2.7151
2.58358
2.29358
2.24798
2.45509
2.50669
2.14173
2.20446
2.24236
2.04885
1.9966
1.91899
1.9366
2.22135
1.90347
1.84613
2.09526
2.02409
2.15758
1.9182
1.91114
1.8792
2.057
1.99127
1.7637
1.83572
2.36953
2.57318
3.01933
2.9982
2.08223
2.65461
3.71299
1.38062
2.36175
2.88899
2.86537
2.8543
2.78525
2.73079
2.57861
2.44413
2.39573
2.46281
2.6976
2.30477
2.16612
2.41574
2.24191
2.00296
1.90465
1.89489
2.32601
2.14731
1.86306
1.9243
2.31298
2.01303
2.08951
1.99652
1.9763
1.9542
2.20565
2.74556
2.44283
2.1997
2.0596
2.36029
2.54374
3.20511
2.73208
2.49215
2.75242
1.24841
1.91485
2.91479
2.89553
2.84816
2.7638
2.62051
2.57394
2.66156
2.77956
2.78182
2.37612
2.22824
2.42719
2.49948
2.05489
1.9668
1.95016
2.33308
2.17549
1.89775
1.88958
2.21221
2.74419
2.00933
2.06395
2.15384
1.82714
1.81765
1.85819
2.26951
2.34104
2.13163
2.04704
2.25881
2.55867
2.5067
2.71795
2.87129
2.54318
1.1804
1.62417
2.63622
2.72443
2.72725
2.698
2.67099
2.73192
2.81871
2.88826
2.52676
2.30946
2.45196
2.76806
2.18008
2.04963
1.97448
2.33641
2.24976
1.85913
1.97215
2.2567
2.70051
2.56417
2.13934
1.93235
2.08828
2.17142
1.88672
1.97196
2.06471
2.41262
2.17687
2.32735
2.57751
2.60718
2.27819
2.21168
2.79719
2.71131
1.17181
1.56957
2.43522
2.65498
2.67083
2.70582
2.71971
2.77285
2.84143
2.61038
2.442
2.61019
2.8813
2.25683
2.11175
2.10278
2.53469
2.55606
2.03906
2.07153
2.49323
2.65247
2.52136
2.41507
1.98324
1.88218
2.25189
2.12871
1.93191
1.95966
2.03753
2.85293
2.65118
2.57151
2.77859
2.56977
2.17437
2.24627
2.32602
3.20119
1.17807
1.65605
2.61077
2.66664
2.6412
2.67895
2.73641
2.7091
2.58222
2.51604
2.80815
2.92477
2.31218
2.2937
2.5555
2.6805
2.40892
2.17714
2.19249
2.67842
2.87004
2.52461
2.31462
2.46256
2.04266
2.18047
2.32429
1.96753
1.99518
2.23657
2.35771
3.04333
2.93021
2.35983
2.42257
2.69991
2.2737
2.20666
2.76291
4.9138
1.20521
1.60765
2.56275
2.61443
2.53685
2.58594
2.65556
2.58538
2.59327
2.77992
2.9218
2.46632
2.4166
2.79793
2.6935
2.36549
2.31735
2.57785
2.87676
2.80483
2.64778
2.52889
2.28913
2.46533
2.2898
2.54716
2.25317
2.20632
2.13225
2.2707
2.66019
2.99331
2.96155
2.43137
2.24719
2.25998
2.55943
2.39916
2.86581
4.25892
1.20983
1.39203
1.75843
2.54346
2.49709
2.54661
2.69303
2.71959
2.73412
2.71397
2.55038
2.51591
3.03328
2.93587
2.45744
2.42599
2.83865
3.03168
2.80595
2.68643
2.5647
2.4583
2.41847
2.44202
2.99376
2.35797
2.4582
2.3078
2.31939
2.70908
2.94571
2.94404
2.75636
2.52634
2.73539
2.669
2.8051
2.76369
2.88276
3.34141
1.1634
1.34679
1.60954
2.19072
2.48644
2.602
2.65109
2.71959
2.64235
2.54196
2.67178
3.28176
3.04791
2.56958
2.65259
3.08367
3.04792
2.68726
2.69301
2.53845
2.46644
2.50444
2.88477
3.14683
2.40212
2.35228
2.68765
2.50235
2.40136
2.89072
2.92299
2.92821
2.97916
2.81023
2.82867
2.99284
2.55928
2.86043
2.95971
3.01658
1.09751
1.30185
1.57627
2.21583
2.41645
2.32893
2.52306
2.62879
2.74828
2.99023
3.20148
2.91297
2.73377
2.99142
3.15121
2.80309
2.71992
2.92236
2.75778
2.55031
2.60928
3.11625
3.01065
2.70496
2.83371
2.78493
2.47753
2.3227
2.339
2.78858
3.41766
3.01093
2.87119
2.46119
2.46903
2.91948
2.96208
2.72437
3.08986
2.96306
1.1375
1.29276
1.5142
2.13175
2.1883
2.27647
2.56872
2.89999
2.99455
2.99743
2.8751
2.87149
2.99626
2.95211
2.80362
2.93713
3.13679
2.78486
2.62721
2.89487
3.18607
2.95088
2.67874
2.77052
2.97944
2.34756
2.33355
2.66454
3.28455
3.35091
2.82216
2.6525
2.95512
2.69836
2.39245
2.41968
3.10418
3.12564
2.55986
2.86324
1.19049
1.35542
1.45912
1.96176
1.96946
2.25623
2.93719
2.98837
2.92201
2.91324
3.05363
2.94365
2.87102
2.97818
3.04379
2.98862
2.91804
2.99018
3.03246
2.99849
2.78859
2.77176
2.77968
2.81739
2.80484
2.7864
3.04993
2.99679
2.67388
2.85784
2.72984
2.44263
2.49091
3.21801
3.01883
2.50147
2.61372
3.37602
3.6154
2.7264
1.23524
1.31432
1.46523
1.69971
2.04194
2.27287
2.85117
2.90748
2.95042
3.0661
3.10378
2.81999
2.94339
3.09199
3.03469
3.00462
3.19572
2.93147
2.82128
2.83068
2.95414
3.03558
3.05211
2.98257
3.21185
3.2937
2.75066
2.80313
2.94581
2.85713
3.17586
2.87371
2.49951
2.50335
3.09042
3.10163
2.79308
3.2051
3.42543
3.46116
1.05139
1.22088
1.24293
1.3564
1.77063
2.20995
2.79445
2.99185
3.00505
2.98932
2.85762
2.86154
3.06611
3.1712
3.15719
3.20839
3.10338
2.90388
3.10437
3.20931
3.37048
3.39443
3.15262
3.08027
3.16375
3.02027
2.96532
2.81883
3.06168
3.31651
3.16733
2.98436
3.00315
2.62329
2.57691
3.0075
3.06805
2.69576
2.86612
3.02717
1.02904
1.09628
1.22423
1.46274
1.65964
2.029
2.87218
2.98541
2.95793
2.97307
3.13323
3.03649
2.98991
3.15194
3.19884
3.20582
3.14947
3.19017
3.47856
3.50343
3.29207
3.11905
3.01182
3.05968
2.97965
2.6314
2.62995
3.09644
2.8996
2.52904
2.59254
2.92838
2.79021
2.74294
2.92867
3.06186
2.78912
2.68903
2.68166
2.62253
1.02127
1.07528
1.18634
1.42706
1.67518
1.99552
2.88531
2.99456
2.98433
3.12068
2.98682
2.89516
3.18929
3.27674
3.3275
3.39366
3.51015
3.54138
3.46898
3.27505
3.15754
3.08655
3.07199
3.29147
3.04791
2.73369
2.71589
3.33792
2.89114
2.57113
2.51286
2.79559
3.42714
3.07122
2.93389
2.95249
3.02412
3.00476
2.32493
2.64698
1.02707
1.09079
1.17318
1.34006
1.62231
2.21974
2.68495
3.09447
3.11774
2.90246
2.97116
3.4069
3.47236
3.52739
3.5396
3.49772
3.4751
3.37321
3.23399
3.23102
3.22283
3.13749
3.25491
3.34614
3.05601
3.13273
3.19636
2.93376
3.07805
3.19645
3.16886
3.16059
3.18681
2.93099
2.98984
3.12439
3.43403
2.96776
2.66567
3.20254
1.02668
1.08886
1.19312
1.37178
1.66452
2.49049
2.45969
2.92153
2.81162
2.65991
3.02699
3.36252
3.39227
3.42616
3.41045
3.42886
3.27974
3.25208
3.26965
3.3767
3.45932
3.31623
3.11864
3.04523
3.25412
3.2287
2.94894
3.08048
3.24106
3.12463
3.18438
3.13198
2.77618
2.61329
2.56155
2.74384
3.54725
3.44657
2.77143
2.54397
1.02163
1.07269
1.17511
1.38657
1.67182
2.04655
2.36408
2.67584
2.73718
2.82841
3.32217
3.38766
3.40239
3.40429
3.39996
3.28638
3.16386
3.12467
3.17172
3.33621
3.36807
3.44482
3.38554
3.08489
2.99767
3.18929
3.22649
3.14604
3.2032
2.78243
2.86405
3.00157
3.0136
3.22106
3.29318
3.09626
3.19561
2.91232
3.093
2.80023
1.00956
1.03667
1.10113
1.24621
1.55471
1.86815
2.69332
2.91689
2.87964
3.30345
3.39234
3.41232
3.35965
3.3476
3.43034
3.29923
3.32543
3.21646
3.2439
3.17492
3.12449
3.15274
3.00348
3.09373
3.17822
3.16456
3.14086
3.22973
3.0726
2.98059
3.1463
3.22278
3.14525
3.15242
3.09749
3.10819
3.13057
2.92306
3.26079