/*--------------------------------*- C++ -*----------------------------------*\
  =========                 |
  \\      /  F ield         | OpenFOAM: The Open Source CFD Toolbox
   \\    /   O peration     | Website:  https://openfoam.org
    \\  /    A nd           | Version:  6.0
     \\/     M anipulation  |
\*---------------------------------------------------------------------------*/
FoamFile
{
    version     2.0;
    format      ascii;
    class       surfaceScalarField;
    location    "2";
    object      phi;
}
// * * * * * * * * * * * * * * * * * * * * * * * * * * * * * * * * * * * * * //

dimensions      [1 0 -1 0 0 0 0];

internalField   nonuniform List<scalar> 
9440
(
0.00209995
-3.30115e-16
0.00209995
-1.66868e-15
0.00209995
-4.51098e-15
0.00209995
-1.13827e-14
0.00209995
-2.89306e-14
0.00209995
-7.25374e-14
0.00209995
-1.76285e-13
0.00209995
-4.13378e-13
0.00209995
-9.36168e-13
0.00209995
-2.05184e-12
0.00209995
-4.36153e-12
0.00209995
-9.01172e-12
0.00209995
-1.8144e-11
0.00209995
-3.56978e-11
0.00209996
-6.88419e-11
0.00209996
-1.30514e-10
0.00209996
-2.43875e-10
0.00209995
-4.49994e-10
0.00209994
-8.2092e-10
0.00209991
-1.4821e-09
0.00209984
-2.65333e-09
0.00209965
-4.73578e-09
0.00209921
-8.53715e-09
0.00209824
-1.59526e-08
0.00209618
-3.22178e-08
0.00209201
-7.38806e-08
0.00208441
-1.99114e-07
0.00206946
-6.5634e-07
0.0020607
-2.60173e-06
0.00186329
6.58432e-05
0.00149206
0.000180224
-0.000473074
0.00184499
0.00021214
-0.000390487
0.000945085
-7.06111e-05
0.00132964
0.00059341
0.00353659
0.00090211
-0.0178376
0.0253511
0.00399344
-0.0217587
0.0185843
-0.0022635
0.0187827
0.00209995
-5.85833e-16
0.00209995
-2.81133e-15
0.00209995
-7.06905e-15
0.00209995
-1.71339e-14
0.00209995
-4.35633e-14
0.00209995
-1.11866e-13
0.00209995
-2.81366e-13
0.00209995
-6.85934e-13
0.00209995
-1.61715e-12
0.00209995
-3.68627e-12
0.00209995
-8.12662e-12
0.00209995
-1.73393e-11
0.00209995
-3.58578e-11
0.00209995
-7.20591e-11
0.00209996
-1.41286e-10
0.00209996
-2.71806e-10
0.00209996
-5.16654e-10
0.00209995
-9.7745e-10
0.00209994
-1.8515e-09
0.00209992
-3.52131e-09
0.00209984
-6.71765e-09
0.00209965
-1.28133e-08
0.00209921
-2.43932e-08
0.00209822
-4.66027e-08
0.00209608
-9.11982e-08
0.00209171
-1.90908e-07
0.00208367
-4.55597e-07
0.00206798
-1.34105e-06
0.00205714
-4.57686e-06
0.00178798
0.000189866
0.00129953
0.000471075
0.00160864
0.0014027
-0.000343024
0.00144549
0.000319254
-0.000689457
0.0018389
-0.000381452
0.00225158
0.00276637
0.0115656
0.0173497
0.0258083
-0.0316113
-0.00223275
0.0414201
0.0196764
0.00209995
-6.67292e-16
0.00209995
-2.9064e-15
0.00209995
-6.37543e-15
0.00209995
-1.48999e-14
0.00209995
-3.99991e-14
0.00209995
-1.10434e-13
0.00209995
-2.95918e-13
0.00209995
-7.61233e-13
0.00209995
-1.88353e-12
0.00209995
-4.49604e-12
0.00209995
-1.03751e-11
0.00209995
-2.31786e-11
0.00209995
-5.01944e-11
0.00209995
-1.05511e-10
0.00209996
-2.15678e-10
0.00209996
-4.29854e-10
0.00209996
-8.38553e-10
0.00209996
-1.61004e-09
0.00209995
-3.06481e-09
0.00209992
-5.83306e-09
0.00209985
-1.11896e-08
0.00209968
-2.17598e-08
0.00209926
-4.30072e-08
0.00209829
-8.65098e-08
0.00209614
-1.78034e-07
0.00209156
-3.80884e-07
0.00208274
-8.756e-07
0.00206532
-2.28363e-06
0.00204977
-5.93254e-06
0.00171561
0.000337691
0.00131228
0.000700016
0.00144341
0.00125566
0.00156502
0.0012697
-9.66257e-05
0.000874341
0.000379958
-0.000950795
-0.00426781
0.00972927
0.0138467
0.000591664
-0.0198714
0.0159475
-0.00272906
0.0320751
0.0225327
0.00209995
-5.41313e-16
0.00209995
-1.70358e-15
0.00209995
-1.4987e-15
0.00209995
-2.05856e-15
0.00209995
-1.14121e-14
0.00209995
-5.15038e-14
0.00209995
-1.80991e-13
0.00209995
-5.52264e-13
0.00209995
-1.54546e-12
0.00209995
-4.0686e-12
0.00209995
-1.02011e-11
0.00209995
-2.45188e-11
0.00209995
-5.67237e-11
0.00209996
-1.2669e-10
0.00209996
-2.73879e-10
0.00209996
-5.74509e-10
0.00209996
-1.17245e-09
0.00209996
-2.33472e-09
0.00209995
-4.55291e-09
0.00209993
-8.73574e-09
0.00209986
-1.65965e-08
0.00209969
-3.14844e-08
0.00209928
-6.02844e-08
0.00209835
-1.18029e-07
0.0020963
-2.39956e-07
0.00209188
-5.16193e-07
0.00208309
-1.2038e-06
0.00206471
-3.12809e-06
0.00204488
-7.54949e-06
0.00167306
0.000445172
0.00131123
0.000900293
0.00134237
0.00135456
0.00133865
0.00143776
0.000844862
0.00113048
0.000611622
-0.000715474
0.00252133
0.00732472
0.00585929
-0.0194548
-0.0107224
0.0465624
-0.00403927
0.0340891
0.0270776
0.00209995
2.93068e-16
0.00209995
2.96548e-15
0.00209995
1.16272e-14
0.00209995
2.60188e-14
0.00209995
4.23656e-14
0.00209995
4.84894e-14
0.00209995
8.52594e-15
0.00209995
-1.78166e-13
0.00209995
-7.83305e-13
0.00209995
-2.51482e-12
0.00209995
-7.15027e-12
0.00209995
-1.89824e-11
0.00209995
-4.79691e-11
0.00209996
-1.16303e-10
0.00209996
-2.71563e-10
0.00209996
-6.12132e-10
0.00209996
-1.3349e-09
0.00209997
-2.82303e-09
0.00209997
-5.80567e-09
0.00209995
-1.16489e-08
0.0020999
-2.28944e-08
0.00209974
-4.42932e-08
0.00209934
-8.49301e-08
0.00209841
-1.6304e-07
0.00209632
-3.18342e-07
0.00209189
-6.476e-07
0.00208324
-1.41887e-06
0.00206517
-3.44567e-06
0.002045
-7.02856e-06
0.00166471
0.000542651
0.00130623
0.00105846
0.0012369
0.00156886
0.00123539
0.00171062
0.000707181
0.00143621
-0.000513965
0.000156213
0.00276489
0.00658734
-0.022922
-0.00964583
-0.0150458
0.0401631
-0.00639496
0.0356241
0.0298395
0.00209995
2.81662e-15
0.00209995
1.58416e-14
0.00209995
4.47033e-14
0.00209995
9.47398e-14
0.00209995
1.7143e-13
0.00209995
2.76431e-13
0.00209995
3.96583e-13
0.00209995
4.7704e-13
0.00209995
3.55277e-13
0.00209995
-4.05082e-13
0.00209995
-2.93794e-12
0.00209995
-1.0143e-11
0.00209995
-2.92978e-11
0.00209996
-7.81811e-11
0.00209996
-1.98773e-10
0.00209996
-4.86524e-10
0.00209996
-1.15019e-09
0.00209997
-2.62949e-09
0.00209998
-5.81923e-09
0.00209999
-1.24875e-08
0.00209997
-2.60509e-08
0.00209987
-5.3034e-08
0.00209956
-1.0593e-07
0.00209875
-2.09265e-07
0.00209681
-4.13987e-07
0.0020925
-8.36003e-07
0.00208385
-1.77286e-06
0.00206573
-4.04394e-06
0.00204662
-7.14748e-06
0.00167735
0.000638389
0.00128742
0.00118892
0.00113535
0.0016977
0.00108056
0.0020286
0.000470754
0.00194981
-0.000948696
0.00143374
0.00258715
0.00431395
-0.0289187
0.0115291
-0.0239602
0.0355953
-0.00946703
0.03519
0.0323052
0.00209995
5.08166e-15
0.00209995
2.73268e-14
0.00209995
7.51542e-14
0.00209995
1.6563e-13
0.00209995
3.27702e-13
0.00209995
6.05295e-13
0.00209995
1.05713e-12
0.00209995
1.74558e-12
0.00209995
2.69851e-12
0.00209995
3.80957e-12
0.00209995
4.59356e-12
0.00209995
3.58317e-12
0.00209995
-3.19086e-12
0.00209995
-2.60488e-11
0.00209996
-9.12373e-11
0.00209996
-2.63914e-10
0.00209996
-7.00941e-10
0.00209997
-1.76668e-09
0.00209999
-4.27613e-09
0.00210001
-9.98618e-09
0.00210003
-2.25585e-08
0.00210001
-4.9417e-08
0.00209985
-1.05361e-07
0.00209931
-2.19926e-07
0.0020978
-4.53838e-07
0.00209411
-9.4051e-07
0.00208618
-2.00607e-06
0.00206852
-4.49157e-06
0.00205017
-7.43932e-06
0.00167866
0.000730146
0.00128981
0.00133277
0.0010641
0.00187821
0.00092901
0.00241484
0.000434129
0.00271102
-0.00111181
0.00303188
0.00159607
0.00248892
-0.0159494
0.0226892
-0.0173926
0.0324436
-0.0144983
0.0342392
0.0235686
0.00209995
4.42851e-15
0.00209995
2.38537e-14
0.00209995
6.73395e-14
0.00209995
1.59588e-13
0.00209995
3.50588e-13
0.00209995
7.35604e-13
0.00209995
1.48753e-12
0.00209995
2.90265e-12
0.00209995
5.45492e-12
0.00209995
9.83711e-12
0.00209995
1.69324e-11
0.00209995
2.75903e-11
0.00209995
4.19247e-11
0.00209995
5.74659e-11
0.00209996
6.44476e-11
0.00209996
3.37639e-11
0.00209996
-1.13617e-10
0.00209997
-5.82197e-10
0.00209999
-1.88065e-09
0.00210001
-5.22458e-09
0.00210005
-1.34043e-08
0.00210009
-3.25898e-08
0.00210008
-7.60201e-08
0.00209985
-1.71613e-07
0.00209896
-3.7845e-07
0.00209631
-8.25779e-07
0.00208985
-1.81906e-06
0.00207351
-4.08729e-06
0.0020559
-5.74094e-06
0.00168123
0.000828306
0.001295
0.00148395
0.0010502
0.00210902
0.000888288
0.0028563
0.000526893
0.0035232
-0.00127426
0.00466858
0.00115093
0.000275138
-0.0104842
0.0346781
-0.0108245
0.0324644
-0.00489295
0.0240865
0.0103179
0.00209995
1.06776e-15
0.00209995
6.52765e-15
0.00209995
2.28139e-14
0.00209995
7.0043e-14
0.00209995
1.94911e-13
0.00209995
5.0104e-13
0.00209995
1.20838e-12
0.00209995
2.76433e-12
0.00209995
6.04283e-12
0.00209995
1.26801e-11
0.00209995
2.55945e-11
0.00209995
4.97007e-11
0.00209995
9.27133e-11
0.00209995
1.65707e-10
0.00209996
2.82677e-10
0.00209996
4.57542e-10
0.00209996
6.94912e-10
0.00209997
9.64702e-10
0.00209998
1.13275e-09
0.0021
7.7409e-10
0.00210004
-1.30603e-09
0.00210009
-8.22223e-09
0.00210015
-2.75899e-08
0.00210012
-7.70271e-08
0.00209973
-1.95674e-07
0.00209816
-4.6882e-07
0.00209364
-1.08651e-06
0.00207976
-2.39355e-06
0.00206372
-2.32823e-07
0.00170093
0.000937742
0.00131783
0.00164945
0.00108502
0.00238195
0.000911141
0.00323653
0.000838218
0.00409404
-0.00123911
0.00694992
0.00180047
-0.00277892
-0.00722145
0.0373
-0.00645506
0.0297898
0.00104872
0.0125159
0.0103971
0.00209995
-2.58045e-15
0.00209995
-1.20183e-14
0.00209995
-2.5211e-14
0.00209995
-3.40445e-14
0.00209995
-1.40495e-14
0.00209995
1.01478e-13
0.00209995
4.76672e-13
0.00209995
1.49078e-12
0.00209995
3.98454e-12
0.00209995
9.7616e-12
0.00209995
2.25751e-11
0.00209995
4.99879e-11
0.00209995
1.06693e-10
0.00209995
2.20044e-10
0.00209995
4.3849e-10
0.00209996
8.43156e-10
0.00209996
1.56202e-09
0.00209996
2.78603e-09
0.00209997
4.7887e-09
0.00209999
7.95633e-09
0.00210002
1.28356e-08
0.00210005
2.01736e-08
0.00210009
3.08155e-08
0.00210009
4.51786e-08
0.00209991
6.23381e-08
0.00209903
8.22837e-08
0.0020961
1.31053e-07
0.00208505
5.56466e-07
0.00207169
9.52459e-06
0.00176103
0.00105711
0.00137744
0.0018144
0.00113916
0.00258649
0.000979596
0.00338307
0.00143034
0.0040104
0.00552651
0.00336503
0.0020534
0.00121259
-0.00330566
0.0345881
-0.00129291
0.0216958
-0.00493768
0.0146464
0.00607801
0.00209995
-3.61441e-15
0.00209995
-1.70831e-14
0.00209995
-3.88723e-14
0.00209995
-7.12762e-14
0.00209995
-1.13533e-13
0.00209995
-1.49213e-13
0.00209995
-1.15381e-13
0.00209995
1.74035e-13
0.00209995
1.20986e-12
0.00209995
4.20111e-12
0.00209995
1.19898e-11
0.00209995
3.10277e-11
0.00209995
7.55499e-11
0.00209995
1.76148e-10
0.00209995
3.9678e-10
0.00209995
8.6707e-10
0.00209995
1.8403e-09
0.00209995
3.79113e-09
0.00209995
7.5706e-09
0.00209996
1.46465e-08
0.00209998
2.75039e-08
0.0021
5.04492e-08
0.00210001
9.15525e-08
0.00209994
1.67867e-07
0.00209962
3.20429e-07
0.00209863
6.61806e-07
0.00209604
1.54546e-06
0.00208678
4.4615e-06
0.00207505
2.47073e-05
0.00183524
0.00120298
0.00149324
0.00200781
0.00117044
0.00261221
0.0011106
0.00379659
0.00135712
0.00419866
0.00042425
0.00450093
0.00125211
0.00232439
-0.000990145
0.0290456
-0.00128719
0.0185453
-0.00241503
0.0151708
0.00580786
0.00209995
-8.02996e-16
0.00209995
-2.47437e-15
0.00209995
-1.59915e-15
0.00209995
-7.02167e-16
0.00209995
-6.93409e-15
0.00209995
-3.40466e-14
0.00209995
-1.00223e-13
0.00209995
-2.05815e-13
0.00209995
-2.53445e-13
0.00209995
1.78359e-13
0.00209995
2.41225e-12
0.00209995
1.00598e-11
0.00209995
3.22395e-11
0.00209995
9.08564e-11
0.00209995
2.36755e-10
0.00209995
5.84938e-10
0.00209995
1.38995e-09
0.00209994
3.20353e-09
0.00209993
7.19484e-09
0.00209991
1.57769e-08
0.00209988
3.37857e-08
0.00209984
7.06448e-08
0.00209978
1.44465e-07
0.00209969
2.90859e-07
0.00209941
5.86261e-07
0.00209849
1.22321e-06
0.00209583
2.78991e-06
0.00208662
7.69304e-06
0.0020757
3.70195e-05
0.00187584
0.00132529
0.00158364
0.00218426
0.00124846
0.00274835
0.00119142
0.00428049
0.0012537
0.00468315
0.000783949
0.00483565
0.000733332
0.00355785
0.00136356
0.0254075
-0.000447886
0.0198308
0.000488535
0.0144767
0.0100493
0.00209995
3.97386e-15
0.00209995
2.23534e-14
0.00209995
6.41586e-14
0.00209995
1.40762e-13
0.00209995
2.65301e-13
0.00209995
4.45597e-13
0.00209995
6.71825e-13
0.00209995
9.02701e-13
0.00209995
1.06604e-12
0.00209995
1.12296e-12
0.00209995
1.32535e-12
0.00209995
2.9806e-12
0.00209995
1.04578e-11
0.00209995
3.61168e-11
0.00209995
1.11971e-10
0.00209995
3.16627e-10
0.00209995
8.36509e-10
0.00209994
2.10339e-09
0.00209993
5.10086e-09
0.0020999
1.20441e-08
0.00209984
2.78854e-08
0.0020997
6.3651e-08
0.00209943
1.43911e-07
0.00209894
3.2405e-07
0.00209808
7.33408e-07
0.00209666
1.69919e-06
0.00209413
4.16839e-06
0.00208613
1.16918e-05
0.00207556
5.14932e-05
0.0018899
0.00146949
0.00163431
0.00238077
0.00136244
0.00293849
0.001039
0.00366524
0.00111942
0.00522059
0.000850353
0.00562319
0.000290976
0.00601236
0.00173225
0.02205
0.00180175
0.0210646
0.00159132
0.0169119
0.0135327
0.00209995
7.11017e-15
0.00209995
3.95161e-14
0.00209995
1.14413e-13
0.00209995
2.66918e-13
0.00209995
5.56561e-13
0.00209995
1.07388e-12
0.00209995
1.94481e-12
0.00209995
3.32863e-12
0.00209995
5.40915e-12
0.00209995
8.39947e-12
0.00209995
1.26401e-11
0.00209995
1.90196e-11
0.00209995
3.02915e-11
0.00209995
5.46337e-11
0.00209996
1.14526e-10
0.00209996
2.67897e-10
0.00209996
6.57218e-10
0.00209995
1.62181e-09
0.00209995
3.95255e-09
0.00209993
9.4677e-09
0.00209989
2.23181e-08
0.00209978
5.19875e-08
0.00209954
1.20409e-07
0.00209899
2.79867e-07
0.00209773
6.62367e-07
0.00209496
1.63426e-06
0.00208953
4.35595e-06
0.00207856
1.34799e-05
0.00206807
6.44532e-05
0.0018812
0.00166533
0.00165012
0.00260326
0.00142103
0.00323381
0.00119184
0.00381726
0.000950697
0.00466956
0.00090409
0.00618244
1.7244e-05
0.00741029
0.00144958
0.0171204
0.00436725
0.0210628
0.00238142
0.0184287
0.0173148
0.00209995
6.61174e-15
0.00209995
3.84925e-14
0.00209995
1.19321e-13
0.00209995
3.02077e-13
0.00209995
6.90251e-13
0.00209995
1.47527e-12
0.00209995
2.99755e-12
0.00209995
5.83821e-12
0.00209995
1.09494e-11
0.00209995
1.98393e-11
0.00209995
3.48723e-11
0.00209995
5.98815e-11
0.00209995
1.01664e-10
0.00209996
1.73798e-10
0.00209996
3.06121e-10
0.00209996
5.67324e-10
0.00209996
1.11695e-09
0.00209997
2.3224e-09
0.00209997
5.0195e-09
0.00209997
1.10918e-08
0.00209996
2.47679e-08
0.00209992
5.55788e-08
0.0020998
1.25348e-07
0.0020995
2.85797e-07
0.00209876
6.67569e-07
0.00209697
1.63635e-06
0.00209278
4.36647e-06
0.00208116
1.35499e-05
0.00206613
6.40031e-05
0.00184704
0.00163455
0.00165803
0.00268094
0.00145008
0.00363836
0.00139564
0.00408575
0.000964841
0.00458962
0.000843759
0.00563931
0.000247087
0.00790864
0.00212934
0.0111387
0.00312478
0.0129927
0.00315394
0.0124625
0.0068185
0.00209995
6.39115e-15
0.00209995
3.85985e-14
0.00209995
1.25152e-13
0.00209995
3.29593e-13
0.00209995
7.82143e-13
0.00209995
1.74301e-12
0.00209995
3.72346e-12
0.00209995
7.70867e-12
0.00209995
1.55531e-11
0.00209995
3.0657e-11
0.00209995
5.90938e-11
0.00209995
1.11505e-10
0.00209995
2.06462e-10
0.00209996
3.77029e-10
0.00209996
6.84764e-10
0.00209996
1.25099e-09
0.00209997
2.32704e-09
0.00209998
4.45018e-09
0.00209999
8.7848e-09
0.00210001
1.78648e-08
0.00210004
3.72189e-08
0.00210006
7.9004e-08
0.00210007
1.70479e-07
0.0021
3.75196e-07
0.0020997
8.51844e-07
0.00209877
2.0407e-06
0.00209624
5.33793e-06
0.0020875
1.61253e-05
0.00208002
7.15481e-05
0.00192047
0.00169609
0.00163323
0.00269823
0.00144507
0.00335753
0.00148756
0.00445548
0.00111923
0.004625
0.000764766
0.00509811
0.00137559
0.00687224
0.002106
0.00815081
0.00210873
0.00838639
0.00179192
0.00796791
0.00594343
0.00209995
7.51745e-15
0.00209995
4.58979e-14
0.00209995
1.50497e-13
0.00209995
3.99152e-13
0.00209995
9.52735e-13
0.00209995
2.1393e-12
0.00209995
4.62325e-12
0.00209995
9.74129e-12
0.00209995
2.01616e-11
0.00209995
4.11567e-11
0.00209995
8.30059e-11
0.00209995
1.65411e-10
0.00209995
3.25431e-10
0.00209995
6.31649e-10
0.00209996
1.21013e-09
0.00209996
2.2947e-09
0.00209997
4.3306e-09
0.00209999
8.1973e-09
0.00210001
1.56939e-08
0.00210006
3.05964e-08
0.00210012
6.09608e-08
0.00210023
1.24225e-07
0.00210036
2.58955e-07
0.00210053
5.5388e-07
0.00210065
1.22754e-06
0.00210042
2.87705e-06
0.00209893
7.35968e-06
0.00209112
2.15735e-05
0.00208219
8.95645e-05
0.00194057
0.00182243
0.00173113
0.00284266
0.0014663
0.00333324
0.00152004
0.00475045
0.00117543
0.00461873
0.0011448
0.00502106
0.00120099
0.00574645
0.00178899
0.00658828
0.00149344
0.00657561
0.000639373
0.00631106
0.00642557
0.00209995
8.73519e-15
0.00209995
5.41491e-14
0.00209995
1.80211e-13
0.00209995
4.82725e-13
0.00209995
1.16158e-12
0.00209995
2.63059e-12
0.00209995
5.74141e-12
0.00209995
1.22352e-11
0.00209995
2.56497e-11
0.00209995
5.31378e-11
0.00209995
1.09105e-10
0.00209995
2.2245e-10
0.00209995
4.5081e-10
0.00209995
9.08026e-10
0.00209995
1.81592e-09
0.00209996
3.6004e-09
0.00209997
7.0708e-09
0.00209998
1.37669e-08
0.00210002
2.66672e-08
0.00210008
5.17026e-08
0.0021002
1.01074e-07
0.00210039
2.00648e-07
0.0021007
4.06951e-07
0.00210116
8.48822e-07
0.00210175
1.84028e-06
0.00210223
4.22749e-06
0.00210153
1.05958e-05
0.00209377
3.02413e-05
0.00208
0.000117994
0.00192826
0.00199169
0.00172084
0.00304062
0.00151714
0.00349144
0.00115443
0.00406637
0.00123649
0.00472142
0.00135409
0.00506794
0.00129751
0.00557022
0.00152973
0.00573968
0.000958093
0.00560355
0.000559629
0.00595018
0.00746254
0.00209995
1.02251e-14
0.00209995
6.43812e-14
0.00209995
2.16813e-13
0.00209995
5.82794e-13
0.00209995
1.4038e-12
0.00209995
3.18605e-12
0.00209995
6.98804e-12
0.00209995
1.50111e-11
0.00209995
3.18028e-11
0.00209995
6.66934e-11
0.00209995
1.38721e-10
0.00209995
2.86593e-10
0.00209995
5.88917e-10
0.00209995
1.20539e-09
0.00209995
2.46048e-09
0.00209995
5.01154e-09
0.00209996
1.01802e-08
0.00209997
2.05915e-08
0.00209999
4.13974e-08
0.00210006
8.26607e-08
0.0021002
1.64236e-07
0.00210047
3.26402e-07
0.00210097
6.54439e-07
0.00210178
1.33913e-06
0.00210297
2.83949e-06
0.00210429
6.37508e-06
0.00210435
1.56055e-05
0.00209587
4.32763e-05
0.00207314
0.000159689
0.00189304
0.00220187
0.0016782
0.00328066
0.00150614
0.00369306
0.00109583
0.00407645
0.00130119
0.00541365
0.00129465
0.00609669
0.00163729
0.00585672
0.00137706
0.00510397
0.000643988
0.00514205
0.000806827
0.00589163
0.00877477
0.00209995
1.32696e-14
0.00209995
8.36102e-14
0.00209995
2.80062e-13
0.00209995
7.43886e-13
0.00209995
1.76953e-12
0.00209995
3.97555e-12
0.00209995
8.66417e-12
0.00209995
1.85736e-11
0.00209995
3.94422e-11
0.00209995
8.32378e-11
0.00209995
1.74787e-10
0.00209995
3.65317e-10
0.00209995
7.60079e-10
0.00209995
1.57471e-09
0.00209995
3.25076e-09
0.00209995
6.69367e-09
0.00209995
1.3765e-08
0.00209995
2.82985e-08
0.00209995
5.81776e-08
0.00209997
1.19515e-07
0.00210005
2.44989e-07
0.00210026
5.00757e-07
0.00210078
1.02298e-06
0.00210181
2.10501e-06
0.00210357
4.43227e-06
0.00210585
9.7897e-06
0.00210679
2.34345e-05
0.00209695
6.31921e-05
0.00206056
0.000221812
0.00183979
0.00246601
0.00160639
0.0035616
0.00146086
0.00390984
0.00128649
0.00414571
0.0013168
0.00457636
0.00123261
0.00537646
0.00163584
0.00634431
0.00104593
0.00486702
0.000757869
0.00500661
0.000656999
0.00672607
0.0104374
0.00209995
1.96318e-14
0.00209995
1.21427e-13
0.00209995
3.97391e-13
0.00209995
1.03204e-12
0.00209995
2.40716e-12
0.00209995
5.3197e-12
0.00209995
1.14409e-11
0.00209995
2.42837e-11
0.00209995
5.12364e-11
0.00209995
1.0782e-10
0.00209995
2.26554e-10
0.00209995
4.75345e-10
0.00209995
9.95419e-10
0.00209995
2.07932e-09
0.00209995
4.33102e-09
0.00209995
8.99454e-09
0.00209995
1.86309e-08
0.00209995
3.85201e-08
0.00209994
7.95893e-08
0.00209993
1.64577e-07
0.00209991
3.41096e-07
0.00209988
7.09493e-07
0.00209996
1.48342e-06
0.00210044
3.12893e-06
0.00210183
6.71668e-06
0.00210432
1.49381e-05
0.00210568
3.54939e-05
0.00209317
9.37975e-05
0.00203556
0.000315736
0.00175371
0.00282289
0.00148889
0.00389567
0.00139276
0.00413779
0.0014715
0.00409227
0.00129378
0.00405583
0.00120501
0.00438537
0.00127863
0.00477691
0.00109484
0.00481598
0.000794065
0.00496942
0.00048309
0.00683466
0.013244
0.00209995
3.06125e-14
0.00209995
1.85009e-13
0.00209995
5.90152e-13
0.00209995
1.5021e-12
0.00209995
3.44937e-12
0.00209995
7.52808e-12
0.00209995
1.60198e-11
0.00209995
3.36887e-11
0.00209995
7.05048e-11
0.00209995
1.47354e-10
0.00209995
3.07985e-10
0.00209995
6.43945e-10
0.00209995
1.34647e-09
0.00209995
2.81421e-09
0.00209995
5.87636e-09
0.00209995
1.22543e-08
0.00209995
2.55165e-08
0.00209994
5.30561e-08
0.00209994
1.102e-07
0.00209993
2.28806e-07
0.00209991
4.75465e-07
0.00209985
9.90898e-07
0.00209964
2.0783e-06
0.00209912
4.41301e-06
0.00209811
9.58318e-06
0.00209663
2.16428e-05
0.00209343
5.21259e-05
0.00207492
0.0001384
0.00198974
0.000457539
0.00158283
0.00340792
0.00134134
0.00425612
0.00132247
0.00430221
0.00157513
0.00419674
0.00135723
0.0040278
0.0013102
0.00446265
0.00117803
0.0047606
0.00105643
0.00481139
0.00085615
0.00490677
0.000419672
0.00681495
0.0199833
0.00209995
4.62218e-14
0.00209995
2.74992e-13
0.00209995
8.62738e-13
0.00209995
2.17187e-12
0.00209995
4.95255e-12
0.00209995
1.07564e-11
0.00209995
2.2796e-11
0.00209995
4.77347e-11
0.00209995
9.94228e-11
0.00209995
2.06703e-10
0.00209995
4.29735e-10
0.00209995
8.94143e-10
0.00209995
1.8624e-09
0.00209995
3.88287e-09
0.00209995
8.10057e-09
0.00209995
1.69038e-08
0.00209995
3.52681e-08
0.00209994
7.35461e-08
0.00209993
1.53265e-07
0.00209992
3.19221e-07
0.0020999
6.6493e-07
0.00209987
1.38726e-06
0.00209978
2.908e-06
0.00209938
6.16173e-06
0.00209789
1.33444e-05
0.00209302
3.00991e-05
0.00207902
7.26933e-05
0.00203916
0.000194518
0.00191897
0.000642362
0.0011654
0.00443924
0.00139587
0.00417725
0.00129104
0.0042546
0.00171901
0.0046049
0.00144368
0.00501492
0.00127083
0.00473572
0.0011157
0.00493703
0.000960238
0.00494293
0.000926836
0.00615101
0.000613665
0.00862164
0.0136815
0.00209995
6.55278e-14
0.00209995
3.86586e-13
0.00209995
1.20266e-12
0.00209995
3.01385e-12
0.00209995
6.85953e-12
0.00209995
1.4892e-11
0.00209995
3.15644e-11
0.00209995
6.60969e-11
0.00209995
1.37602e-10
0.00209995
2.85757e-10
0.00209995
5.93047e-10
0.00209995
1.23116e-09
0.00209995
2.55771e-09
0.00209995
5.31789e-09
0.00209995
1.10642e-08
0.00209995
2.30296e-08
0.00209995
4.7943e-08
0.00209995
9.98019e-08
0.00209994
2.07728e-07
0.00209992
4.32378e-07
0.00209989
9.00541e-07
0.00209982
1.87934e-06
0.00209969
3.94093e-06
0.00209933
8.35048e-06
0.0020982
1.80685e-05
0.00209411
4.06618e-05
0.00207898
9.7835e-05
0.00202288
0.000260594
0.00186294
0.000836707
0.000953164
0.00539203
0.00131895
0.00372549
0.00153183
0.00386375
0.00150173
0.00408166
0.00145188
0.00535161
0.00131574
0.00555287
0.00107826
0.00566813
0.000978611
0.00615413
0.000817894
0.00673802
0.000487199
0.00570995
0.0061904
0.00209995
8.6091e-14
0.00209995
5.06689e-13
0.00209995
1.57349e-12
0.00209995
3.94348e-12
0.00209995
8.98686e-12
0.00209995
1.95479e-11
0.00209995
4.15187e-11
0.00209995
8.70938e-11
0.00209995
1.81507e-10
0.00209995
3.76984e-10
0.00209995
7.81688e-10
0.00209995
1.61982e-09
0.00209995
3.35652e-09
0.00209995
6.95781e-09
0.00209996
1.44314e-08
0.00209996
2.99524e-08
0.00209996
6.22061e-08
0.00209996
1.29264e-07
0.00209995
2.68743e-07
0.00209994
5.59061e-07
0.00209991
1.16424e-06
0.00209985
2.43006e-06
0.0020997
5.09715e-06
0.00209932
1.08018e-05
0.00209822
2.33643e-05
0.00209458
5.25131e-05
0.0020814
0.000126035
0.00202846
0.000334841
0.00190506
0.0010194
0.0010871
0.00637798
0.00135936
0.00334843
0.00159616
0.0034723
0.00158657
0.00376095
0.00143785
0.00418659
0.00129565
0.00477631
0.00118018
0.00525307
0.00093008
0.00538404
0.000614124
0.00464329
0.000279325
0.00502181
0.00610818
0.00209995
1.04519e-13
0.00209995
6.15729e-13
0.00209995
1.91539e-12
0.00209995
4.80929e-12
0.00209995
1.09769e-11
0.00209995
2.39058e-11
0.00209995
5.08212e-11
0.00209995
1.06672e-10
0.00209995
2.22367e-10
0.00209995
4.61804e-10
0.00209995
9.57095e-10
0.00209995
1.98149e-09
0.00209995
4.1004e-09
0.00209996
8.48443e-09
0.00209996
1.75584e-08
0.00209996
3.6348e-08
0.00209997
7.52784e-08
0.00209997
1.55997e-07
0.00209999
3.23531e-07
0.0021
6.71775e-07
0.00210003
1.39742e-06
0.00210006
2.91588e-06
0.0021001
6.118e-06
0.00210015
1.29699e-05
0.00210003
2.80395e-05
0.00209879
6.28635e-05
0.00209175
0.000150114
0.00205349
0.000397739
0.00200456
0.00113614
0.00190049
0.00680726
0.00156865
0.00353051
0.00163311
0.00330747
0.00162306
0.0035936
0.00145414
0.00420053
0.00126023
0.00439998
0.00106225
0.0045161
0.000837511
0.00454434
0.00050373
0.00475147
0.000166375
0.0053103
0.00634592
0.00209995
1.12877e-13
0.00209995
6.68497e-13
0.00209995
2.09223e-12
0.00209995
5.27292e-12
0.00209995
1.20538e-11
0.00209995
2.62544e-11
0.00209995
5.57815e-11
0.00209995
1.16989e-10
0.00209995
2.43685e-10
0.00209995
5.05739e-10
0.00209995
1.04746e-09
0.00209995
2.16673e-09
0.00209995
4.47791e-09
0.00209996
9.24754e-09
0.00209996
1.90868e-08
0.00209996
3.93841e-08
0.00209998
8.12783e-08
0.0021
1.67859e-07
0.00210004
3.4715e-07
0.00210013
7.19475e-07
0.00210032
1.49553e-06
0.0021007
3.12101e-06
0.00210148
6.54958e-06
0.00210303
1.38653e-05
0.00210592
2.98161e-05
0.00211099
6.608e-05
0.00211941
0.000154953
0.00212659
0.000405997
0.00224144
0.00106065
0.00388175
0.00550906
0.00229159
0.00492528
0.00175915
0.00375986
0.00165112
0.00383576
0.00145279
0.00433316
0.00125417
0.00456265
0.00101991
0.00466174
0.0007848
0.00470034
0.000469397
0.00510209
0.000106441
0.00572763
0.00663121
0.00209995
1.02728e-13
0.00209995
6.16757e-13
0.00209995
1.95825e-12
0.00209995
4.97598e-12
0.00209995
1.14126e-11
0.00209995
2.48625e-11
0.00209995
5.27479e-11
0.00209995
1.10396e-10
0.00209995
2.2943e-10
0.00209995
4.74989e-10
0.00209995
9.80903e-10
0.00209995
2.02142e-09
0.00209996
4.15734e-09
0.00209996
8.53404e-09
0.00209996
1.74901e-08
0.00209997
3.58006e-08
0.00209999
7.32177e-08
0.00210003
1.49655e-07
0.00210014
3.05767e-07
0.00210038
6.24572e-07
0.00210092
1.2759e-06
0.00210204
2.60908e-06
0.0021042
5.35216e-06
0.00210807
1.10635e-05
0.00211509
2.32425e-05
0.00212963
5.04093e-05
0.00216512
0.000115966
0.00225616
0.000302314
0.00255108
0.000754795
0.00479981
0.00338221
0.00298248
0.00658546
0.00196601
0.00459726
0.00169063
0.0041128
0.00145954
0.00450814
0.00123079
0.00479231
0.00102029
0.00488643
0.000747121
0.00491835
0.000449139
0.00541704
8.92154e-05
0.00620375
0.00691514
0.00209995
7.77591e-14
0.00209995
4.78858e-13
0.00209995
1.55915e-12
0.00209995
4.02069e-12
0.00209995
9.28482e-12
0.00209995
2.0253e-11
0.00209995
4.28674e-11
0.00209995
8.93188e-11
0.00209995
1.84645e-10
0.00209995
3.80319e-10
0.00209995
7.82233e-10
0.00209995
1.60824e-09
0.00209995
3.30619e-09
0.00209996
6.79484e-09
0.00209996
1.39535e-08
0.00209997
2.86128e-08
0.00209998
5.8551e-08
0.00210002
1.19505e-07
0.00210012
2.43215e-07
0.00210032
4.93556e-07
0.00210079
9.99074e-07
0.00210177
2.01956e-06
0.00210381
4.0863e-06
0.00210791
8.31422e-06
0.00211609
1.71627e-05
0.00213282
3.65711e-05
0.00216858
8.30789e-05
0.00225052
0.000217728
0.00240801
0.00058018
0.00334755
0.00256982
0.00294668
0.00686546
0.00213145
0.00527692
0.00174107
0.00452269
0.00147264
0.00479497
0.00121696
0.00506133
0.00100628
0.00515457
0.000755011
0.00525239
0.000435075
0.00579052
9.02666e-05
0.00674894
0.00738905
0.00209995
6.38419e-14
0.00209995
3.93109e-13
0.00209995
1.28416e-12
0.00209995
3.33244e-12
0.00209995
7.72845e-12
0.00209995
1.68531e-11
0.00209995
3.5461e-11
0.00209995
7.30359e-11
0.00209995
1.48503e-10
0.00209995
2.99726e-10
0.00209995
6.02788e-10
0.00209995
1.21137e-09
0.00209996
2.43751e-09
0.00209996
4.91719e-09
0.00209996
9.94973e-09
0.00209996
2.01911e-08
0.00209997
4.10652e-08
0.0021
8.3627e-08
0.00210004
1.70349e-07
0.00210014
3.46793e-07
0.00210036
7.05195e-07
0.00210085
1.43263e-06
0.00210195
2.9121e-06
0.00210435
5.94618e-06
0.00210952
1.22991e-05
0.00212087
2.62059e-05
0.0021468
5.94236e-05
0.00221445
0.000154262
0.0022904
0.000470754
0.00310833
0.00188626
0.00289714
0.00702939
0.00222806
0.00583845
0.00178471
0.00493974
0.00147966
0.00531438
0.00120533
0.0054285
0.00100904
0.00561409
0.000748558
0.00571411
0.000439931
0.00633908
0.000110821
0.00771599
0.00826886
0.00209995
4.45769e-14
0.00209995
2.81589e-13
0.00209995
9.44521e-13
0.00209995
2.50312e-12
0.00209995
5.91666e-12
0.00209995
1.3139e-11
0.00209995
2.81353e-11
0.00209995
5.89129e-11
0.00209995
1.21547e-10
0.00209995
2.48138e-10
0.00209995
5.0255e-10
0.00209995
1.01159e-09
0.00209996
2.0271e-09
0.00209996
4.05017e-09
0.00209996
8.08076e-09
0.00209997
1.61221e-08
0.00209998
3.22036e-08
0.0021
6.44648e-08
0.00210003
1.2941e-07
0.00210008
2.60617e-07
0.00210018
5.26602e-07
0.00210036
1.06774e-06
0.00210075
2.17408e-06
0.00210164
4.45707e-06
0.00210367
9.26227e-06
0.0021084
1.97982e-05
0.0021204
4.48158e-05
0.00216262
0.000113007
0.00219054
0.000388175
0.00278393
0.00143155
0.00287862
0.00698898
0.00231408
0.00633442
0.00182717
0.00539914
0.0014752
0.00550517
0.00123188
0.00595462
0.00101808
0.00636944
0.000750474
0.00618502
0.000477489
0.00774859
0.0001387
0.00718542
0.00831072
0.00209995
4.24036e-14
0.00209995
2.58418e-13
0.00209995
8.35982e-13
0.00209995
2.15415e-12
0.00209995
4.97565e-12
0.00209995
1.08383e-11
0.00209995
2.28613e-11
0.00209995
4.73976e-11
0.00209995
9.74013e-11
0.00209995
1.9924e-10
0.00209995
4.06383e-10
0.00209995
8.26748e-10
0.00209995
1.67714e-09
0.00209995
3.39136e-09
0.00209996
6.83464e-09
0.00209996
1.37294e-08
0.00209997
2.75031e-08
0.00209999
5.49881e-08
0.00210002
1.09856e-07
0.00210008
2.19618e-07
0.00210018
4.40021e-07
0.00210031
8.85034e-07
0.00210051
1.7907e-06
0.00210081
3.65683e-06
0.00210142
7.58517e-06
0.00210298
1.61826e-05
0.00210693
3.64105e-05
0.0021271
8.8753e-05
0.00211255
0.000330363
0.00249777
0.00115054
0.00281354
0.00671406
0.00232371
0.00680234
0.0018265
0.00595592
0.00145338
0.00508337
0.00126566
0.00533425
0.00100468
0.00581106
0.000885937
0.00602017
0.000470809
0.00784823
0.00017873
0.00702106
0.00809831
0.00209995
4.18398e-14
0.00209995
2.51195e-13
0.00209995
8.01186e-13
0.00209995
2.05182e-12
0.00209995
4.72386e-12
0.00209995
1.0254e-11
0.00209995
2.15126e-11
0.00209995
4.42563e-11
0.00209995
9.00825e-11
0.00209995
1.82439e-10
0.00209995
3.68833e-10
0.00209995
7.45542e-10
0.00209995
1.50748e-09
0.00209995
3.04861e-09
0.00209995
6.16376e-09
0.00209996
1.24535e-08
0.00209996
2.5134e-08
0.00209997
5.06565e-08
0.00209999
1.01952e-07
0.00210003
2.05e-07
0.0021001
4.12322e-07
0.00210022
8.31284e-07
0.00210038