/*--------------------------------*- C++ -*----------------------------------*\
  =========                 |
  \\      /  F ield         | OpenFOAM: The Open Source CFD Toolbox
   \\    /   O peration     | Website:  https://openfoam.org
    \\  /    A nd           | Version:  6.0
     \\/     M anipulation  |
\*---------------------------------------------------------------------------*/
FoamFile
{
    version     2.0;
    format      ascii;
    class       volScalarField;
    location    "2";
    object      T;
}
// * * * * * * * * * * * * * * * * * * * * * * * * * * * * * * * * * * * * * //

dimensions      [0 0 0 1 0 0 0];

internalField   nonuniform List<scalar> 
192000
(
0.89619
0.861412
0.844677
0.833159
0.825488
0.819464
0.814956
0.811126
0.808107
0.805399
0.803198
0.801161
0.799516
0.797982
0.797295
0.797324
0.798555
0.800702
0.812377
0.835009
0.909431
1.06547
1.52108
2.10891
2.25579
2.25136
2.23927
2.21289
2.21542
2.23036
2.25274
2.2922
2.31964
2.33448
2.3491
2.35718
2.37165
2.3674
2.42749
2.24898
0.896207
0.861388
0.844702
0.833131
0.825515
0.819436
0.814982
0.811102
0.808127
0.805382
0.80321
0.80115
0.799526
0.797967
0.797307
0.7973
0.798636
0.800692
0.812918
0.834422
0.912913
1.068
1.52367
2.09764
2.25198
2.25005
2.24176
2.21808
2.22025
2.23463
2.25708
2.29749
2.32569
2.3407
2.35371
2.36069
2.37385
2.36977
2.43719
2.26664
0.896208
0.861388
0.844702
0.83313
0.825515
0.819435
0.814983
0.8111
0.808129
0.805381
0.80321
0.80115
0.799525
0.797967
0.797305
0.797297
0.798628
0.800689
0.812862
0.83427
0.912651
1.06603
1.52347
2.09708
2.25204
2.25011
2.24198
2.21911
2.22162
2.23655
2.25926
2.29983
2.32783
2.34257
2.35522
2.36195
2.37491
2.37082
2.44063
2.27419
0.896192
0.861411
0.844679
0.833157
0.825489
0.819462
0.814959
0.811124
0.808109
0.805398
0.803198
0.801162
0.799515
0.797983
0.797288
0.797318
0.79855
0.80055
0.812259
0.834681
0.909025
1.06261
1.51794
2.10851
2.25592
2.2512
2.23937
2.21507
2.21843
2.23465
2.25764
2.2974
2.32451
2.33866
2.35245
2.35989
2.37427
2.37035
2.4376
2.27308
0.896197
0.861404
0.844685
0.833149
0.825497
0.819453
0.814966
0.811115
0.808116
0.805393
0.8032
0.801163
0.799508
0.797995
0.79728
0.797326
0.798521
0.800776
0.811707
0.83503
0.9059
1.0633
1.51358
2.10832
2.25799
2.25324
2.2414
2.21744
2.22105
2.23754
2.26033
2.29945
2.32588
2.33958
2.35297
2.36019
2.3746
2.37098
2.43766
2.27349
0.896191
0.861411
0.844679
0.833156
0.82549
0.81946
0.81496
0.811122
0.808111
0.805398
0.803197
0.801164
0.799511
0.797985
0.797275
0.797303
0.79852
0.80048
0.812002
0.834304
0.907116
1.05904
1.5077
2.10913
2.25693
2.25131
2.23889
2.21685
2.22109
2.23841
2.26143
2.30031
2.32628
2.33974
2.35354
2.36093
2.37579
2.37267
2.44083
2.28061
0.896212
0.861383
0.844707
0.833124
0.825521
0.819427
0.814991
0.811092
0.808135
0.805377
0.80321
0.801152
0.799522
0.797964
0.797283
0.797263
0.798529
0.800804
0.81247
0.833676
0.909405
1.05627
1.50609
2.0963
2.25261
2.24966
2.24149
2.22312
2.22781
2.24541
2.26839
2.30782
2.33362
2.34703
2.35934
2.36578
2.37904
2.37627
2.44999
2.29369
0.896207
0.861388
0.844702
0.83313
0.825516
0.819432
0.814986
0.811096
0.808133
0.80538
0.803209
0.801155
0.799521
0.797966
0.797275
0.797265
0.798536
0.800549
0.812142
0.832656
0.907535
1.05081
1.503
2.09336
2.2516
2.24907
2.24163
2.22556
2.23112
2.25018
2.27351
2.31275
2.33714
2.34907
2.36076
2.36708
2.38068
2.37844
2.45338
2.29849
0.896209
0.861385
0.844705
0.833126
0.82552
0.819428
0.814991
0.811092
0.808137
0.805377
0.803211
0.801154
0.799521
0.797963
0.797269
0.797249
0.798482
0.800789
0.812008
0.832782
0.906216
1.04633
1.49301
2.0855
2.24825
2.24648
2.24028
2.22603
2.23172
2.25044
2.27365
2.31185
2.33527
2.34673
2.35876
2.36536
2.37955
2.37792
2.45471
2.30289
0.89621
0.861384
0.844706
0.833126
0.825521
0.819427
0.814992
0.81109
0.808139
0.805375
0.803211
0.801155
0.799518
0.797963
0.797257
0.797236
0.79844
0.800773
0.811694
0.832403
0.904204
1.04134
1.48289
2.07851
2.24618
2.24522
2.24024
2.22796
2.23396
2.25278
2.27625
2.31353
2.33598
2.34661
2.35833
2.3649
2.37899
2.37825
2.46061
2.31251
0.896208
0.861388
0.844702
0.833129
0.825518
0.81943
0.81499
0.811091
0.808139
0.805374
0.803212
0.801157
0.799513
0.797967
0.79724
0.797225
0.798419
0.800374
0.811374
0.831337
0.901763
1.03713
1.47056
2.07282
2.24597
2.24627
2.2424
2.23245
2.23931
2.25936
2.28347
2.31931
2.34081
2.35
2.36114
2.36772
2.38208
2.38226
2.4667
2.31747
0.896213
0.861381
0.844708
0.833122
0.825524
0.819422
0.814998
0.811083
0.808146
0.805367
0.803215
0.801154
0.799511
0.797964
0.797226
0.797206
0.798325
0.800692
0.810925
0.831543
0.899418
1.03186
1.45621
2.05961
2.24269
2.24629
2.24327
2.23442
2.2413
2.26088
2.28577
2.31999
2.34079
2.34912
2.36063
2.36767
2.38306
2.38391
2.46846
2.31817
0.896218
0.861377
0.844712
0.833118
0.825528
0.819417
0.815003
0.811076
0.808151
0.805361
0.80322
0.801151
0.799509
0.797964
0.797205
0.797183
0.798283
0.800592
0.810501
0.831265
0.896489
1.02746
1.43996
2.04635
2.24053
2.24707
2.24479
2.23696
2.24398
2.263
2.28916
2.32188
2.34121
2.34817
2.35965
2.36699
2.38282
2.38462
2.4716
2.32113
0.896224
0.861371
0.844716
0.833113
0.825531
0.819412
0.815008
0.811069
0.808159
0.805351
0.803227
0.801145
0.799508
0.797965
0.797181
0.797154
0.798235
0.800438
0.810117
0.830789
0.893661
1.02313
1.42217
2.03268
2.24046
2.24904
2.24721
2.23986
2.24688
2.26516
2.29236
2.3237
2.34152
2.34742
2.3588
2.3665
2.38256
2.38522
2.47592
2.32664
0.896231
0.861364
0.844721
0.833108
0.825534
0.819408
0.815011
0.811062
0.808166
0.80534
0.803238
0.801134
0.799512
0.797965
0.797152
0.797122
0.798172
0.800277
0.809703
0.830165
0.890995
1.01851
1.40663
2.01805
2.24261
2.2533
2.25191
2.24528
2.25231
2.26958
2.29803
2.32788
2.34381
2.349
2.35967
2.36764
2.38377
2.38772
2.48318
2.33304
0.896226
0.861372
0.844711
0.83312
0.82552
0.819425
0.814992
0.811083
0.808146
0.805358
0.803222
0.801146
0.799502
0.797974
0.797122
0.797117
0.798114
0.799869
0.808758
0.82956
0.886157
1.0137
1.39063
2.00237
2.24158
2.25373
2.25256
2.2476
2.25516
2.27254
2.30217
2.33116
2.3453
2.35004
2.36022
2.36861
2.38494
2.39047
2.49123
2.33964
0.896235
0.86136
0.84472
0.833109
0.825529
0.819416
0.814999
0.811074
0.808153
0.805348
0.803232
0.801135
0.799512
0.797963
0.797101
0.797096
0.798046
0.799969
0.807977
0.829369
0.882985
1.00813
1.37644
1.99067
2.24323
2.25614
2.25491
2.25037
2.25785
2.2744
2.30434
2.33237
2.34531
2.34975
2.35957
2.36811
2.3849
2.39187
2.4961
2.34272
0.896243
0.861351
0.844729
0.833099
0.825537
0.819406
0.815007
0.811066
0.80816
0.805341
0.803238
0.801126
0.799519
0.797951
0.797078
0.797071
0.797999
0.799615
0.807894
0.828401
0.880794
1.00468
1.36264
1.9785
2.24328
2.25855
2.25723
2.25306
2.2604
2.27645
2.30602
2.33274
2.34407
2.34795
2.35723
2.36622
2.3838
2.39183
2.49795
2.34232
0.896266
0.861323
0.844755
0.83307
0.825564
0.819375
0.815036
0.811032
0.808192
0.805303
0.803276
0.801084
0.799557
0.797905
0.79709
0.797032
0.797916
0.799572
0.80811
0.827917
0.879676
1.00249
1.35015
1.96819
2.24803
2.26409
2.26239
2.25799
2.26497
2.28045
2.30952
2.33449
2.34455
2.34799
2.3565
2.36568
2.38365
2.39238
2.49905
2.34133
0.896272
0.861316
0.844762
0.833062
0.825571
0.819367
0.815041
0.811027
0.808195
0.8053
0.803279
0.801076
0.799565
0.797885
0.797084
0.796977
0.797876
0.799136
0.807972
0.825643
0.878469
0.995909
1.3377
1.95603
2.2498
2.26791
2.26676
2.26353
2.27031
2.28575
2.31498
2.33901
2.34779
2.3507
2.35834
2.36769
2.38569
2.3948
2.50081
2.34117
0.89627
0.861319
0.844757
0.833066
0.825565
0.819373
0.815034
0.811036
0.808183
0.805314
0.803259
0.801096
0.799541
0.797898
0.797045
0.796949
0.797812
0.798857
0.807291
0.824371
0.875513
0.987596
1.3232
1.9418
2.24371
2.26568
2.26753
2.26638
2.27356
2.28973
2.31867
2.34128
2.34958
2.35256
2.36034
2.37001
2.38894
2.39881
2.50384
2.34199
0.896283
0.861303
0.844771
0.833049
0.825581
0.819355
0.81505
0.811016
0.808198
0.805296
0.803272
0.801079
0.799554
0.797875
0.797041
0.796902
0.797751
0.798765
0.806796
0.824308
0.872674
0.984028
1.31126
1.93433
2.23881
2.26466
2.26837
2.2679
2.27481
2.29065
2.31911
2.34055
2.34852
2.35162
2.3597
2.36944
2.38864
2.40026
2.50799
2.34362
0.896292
0.861291
0.844781
0.833036
0.825591
0.819342
0.815061
0.811004
0.808211
0.805283
0.803285
0.801068
0.799564
0.797863
0.797027
0.796862
0.797684
0.798576
0.806574
0.822568
0.87156
0.976833
1.30226
1.92683
2.2354
2.26566
2.27106
2.27106
2.27762
2.29283
2.32058
2.33993
2.34649
2.34944
2.35754
2.36713
2.3864
2.39993
2.51264
2.34651
0.896288
0.861293
0.844782
0.833031
0.8256
0.819331
0.815075
0.81099
0.808225
0.805269
0.803299
0.801054
0.799577
0.797848
0.797012
0.79682
0.797599
0.79849
0.806188
0.820845
0.869934
0.967459
1.29117
1.9176
2.22985
2.2651
2.27278
2.27363
2.28055
2.2954
2.32218
2.33981
2.34538
2.34825
2.35628
2.36568
2.38456
2.39964
2.51622
2.34928
0.896285
0.861296
0.844781
0.833032
0.825603
0.819326
0.815086
0.810974
0.808247
0.805245
0.803326
0.801027
0.799603
0.797818
0.797022
0.796756
0.797531
0.798342
0.805833
0.82027
0.867834
0.962162
1.28027
1.90942
2.22485
2.26423
2.27305
2.27429
2.2811
2.29549
2.32192
2.33891
2.34418
2.34723
2.35556
2.36493
2.38368
2.39996
2.51913
2.35115
0.89628
0.861304
0.844773
0.833041
0.825594
0.819334
0.815081
0.810976
0.808251
0.805234
0.803344
0.801004
0.799628
0.79779
0.797027
0.796693
0.797453
0.798231
0.805476
0.819434
0.865613
0.956503
1.26705
1.89891
2.22074
2.26521
2.2746
2.2758
2.28225
2.29574
2.3209
2.33637
2.34122
2.34476
2.35396
2.36347
2.38255
2.40009
2.52128
2.35253
0.896275
0.861311
0.844766
0.83305
0.825585
0.819345
0.815069
0.810988
0.808241
0.805241
0.803344
0.800997
0.799642
0.797768
0.797024
0.796637
0.797356
0.798192
0.805114
0.817854
0.863608
0.946418
1.25433
1.88672
2.21194
2.26468
2.27623
2.27733
2.28359
2.29602
2.32043
2.33496
2.33926
2.34292
2.35247
2.36206
2.38139
2.40001
2.52292
2.35369
0.896271
0.861315
0.844761
0.833055
0.825579
0.819351
0.815063
0.810995
0.808234
0.805249
0.803337
0.801001
0.799642
0.797755
0.797026
0.796568
0.797291
0.798049
0.804792
0.817572
0.861394
0.944585
1.2392
1.87455
2.20394
2.2632
2.27612
2.27734
2.28351
2.2953
2.31874
2.33219
2.3363
2.3404
2.35063
2.36034
2.38
2.39965
2.52377
2.3539
0.896266
0.861322
0.844755
0.833062
0.825573
0.819358
0.815056
0.811003
0.808225
0.80526
0.803324
0.801015
0.799628
0.797763
0.796994
0.796526
0.797207
0.797986
0.804458
0.816172
0.859524
0.935124
1.22704
1.85658
2.19617
2.26342
2.27735
2.2784
2.28409
2.29502
2.31727
2.32934
2.33321
2.3376
2.34825
2.35805
2.37801
2.39888
2.52419
2.35306
0.896262
0.861327
0.844751
0.833067
0.825568
0.819363
0.815051
0.811009
0.808219
0.805267
0.803318
0.801022
0.79962
0.797769
0.796967
0.796486
0.79714
0.797881
0.804138
0.815389
0.857424
0.930474
1.21466
1.83689
2.18145
2.25797
2.27513
2.27748
2.28375
2.2942
2.31577
2.32745
2.33107
2.33544
2.34583
2.35538
2.37514
2.39724
2.5242
2.35289
0.896262
0.861326
0.844753
0.833065
0.82557
0.819362
0.815053
0.811008
0.808221
0.805265
0.80332
0.801019
0.799625
0.797761
0.796964
0.796439
0.797113
0.797735
0.804071
0.814326
0.856478
0.930133
1.2123
1.82374
2.17377
2.25557
2.27221
2.27501
2.28101
2.29106
2.3118
2.32364
2.32846
2.33348
2.34428
2.35369
2.37329
2.39573
2.52282
2.35134
0.896253
0.861336
0.844743
0.833076
0.825561
0.819372
0.815044
0.811018
0.808212
0.805275
0.803311
0.801029
0.799613
0.797774
0.796934
0.796406
0.79704
0.797662
0.803751
0.813195
0.854253
0.921828
1.19891
1.80462
2.1643
2.25642
2.27297
2.27535
2.28065
2.28974
2.30822
2.31883
2.32381
2.32949
2.34099
2.35041
2.37009
2.3932
2.52128
2.35061
0.896249
0.861342
0.844738
0.833082
0.825556
0.819378
0.815039
0.811023
0.808207
0.80528
0.803306
0.801035
0.799606
0.797779
0.796908
0.796344
0.796956
0.79752
0.80338
0.812659
0.852187
0.919192
1.18323
1.77721
2.14991
2.2557
2.27359
2.27576
2.28048
2.28877
2.30567
2.31467
2.32009
2.32557
2.33732
2.34693
2.36703
2.39068
2.51792
2.34755
0.896236
0.861358
0.844721
0.833099
0.825539
0.819396
0.815021
0.811041
0.80819
0.805298
0.803289
0.801052
0.799588
0.797796
0.796865
0.796283
0.79682
0.797428
0.802762
0.812077
0.848568
0.91103
1.15579
1.73594
2.13077
2.25309
2.27284
2.27555
2.27972
2.28726
2.30218
2.31042
2.31599
2.321
2.33209
2.3414
2.36184
2.3859
2.51539
2.34604
0.89623
0.861366
0.844713
0.833107
0.82553
0.819405
0.815012
0.811051
0.808181
0.805307
0.80328
0.801061
0.799579
0.797803
0.796838
0.796221
0.79673
0.797284
0.802364
0.811496
0.845964
0.90732
1.1348
1.70153
2.1063
2.24577
2.26911
2.2742
2.27808
2.28598
2.29947
2.30697
2.31269
2.31769
2.32803
2.33632
2.35539
2.37738
2.50717
2.3404
0.896228
0.861367
0.844712
0.833108
0.825529
0.819407
0.815011
0.811053
0.808179
0.80531
0.80328
0.801064
0.799578
0.797803
0.796823
0.796161
0.796684
0.797106
0.802159
0.810822
0.844573
0.905952
1.12592
1.6702
2.08803
2.23468
2.25784
2.26659
2.2718
2.28249
2.29609
2.30414
2.30996
2.31534
2.32586
2.3337
2.35196
2.37184
2.5011
2.336
0.896215
0.861383
0.844698
0.833125
0.825515
0.819424
0.814996
0.811071
0.808163
0.805329
0.803262
0.801085
0.799558
0.797822
0.796789
0.796114
0.796578
0.797021
0.801893
0.808468
0.84227
0.898214
1.1066
1.62268
2.07185
2.23262
2.25236
2.25801
2.26238
2.27295
2.28706
2.29685
2.3035
2.30942
2.32036
2.32759
2.34482
2.3608
2.48707
2.32662
0.896124
0.861493
0.844599
0.833238
0.825414
0.81954
0.814894
0.811191
0.808062
0.805452
0.80316
0.801208
0.799452
0.797942
0.79666
0.796144
0.796212
0.797652
0.79937
0.812061
0.82941
0.909895
1.0489
1.5448
2.02949
2.22163
2.24325
2.24993
2.25519
2.2661
2.27907
2.29109
2.2999
2.30695
2.31858
2.32535
2.3414
2.35242
2.47566
2.31274
0.896105
0.861515
0.844581
0.833261
0.825397
0.819565
0.814876
0.811215
0.808041
0.805472
0.80314
0.801219
0.79944
0.797944
0.796634
0.796073
0.796113
0.797385
0.799624
0.810597
0.830305
0.90089
1.03206
1.49018
1.99289
2.20917
2.23536
2.24451
2.25116
2.26142
2.27337
2.28219
2.29186
2.29984
2.31394
2.32014
2.33604
2.34088
2.45141
2.29282
0.896116
0.861502
0.844593
0.83325
0.825408
0.819552
0.814884
0.811201
0.808045
0.805462
0.803137
0.801222
0.799426
0.797958
0.796602
0.796007
0.796003
0.797188
0.79925
0.809395
0.828126
0.8928
1.01249
1.44776
1.93928
2.17773
2.20964
2.22997
2.24056
2.25477
2.27102
2.2811
2.29204
2.30048
2.31745
2.32394
2.33875
2.3364
2.42489
2.23292
1.00318
0.996866
0.990583
0.983373
0.977983
0.973294
0.969719
0.966475
0.963917
0.961506
0.95958
0.957725
0.956221
0.954967
0.954712
0.955271
0.956305
0.962658
0.972344
1.01282
1.08644
1.34601
1.94143
2.54303
2.65099
2.63985
2.61053
2.58148
2.58292
2.60406
2.64085
2.66865
2.67733
2.67569
2.67656
2.70314
2.80315
2.87143
2.9448
2.73823
1.00318
0.996837
0.990614
0.983339
0.97802
0.973255
0.969763
0.966427
0.96397
0.961448
0.959644
0.957656
0.956297
0.954887
0.954794
0.955181
0.956518
0.963364
0.97355
1.01133
1.09138
1.33845
1.92353
2.53026
2.64722
2.64009
2.61987
2.58951
2.59147
2.61283
2.64806
2.67281
2.67871
2.6761
2.67769
2.71042
2.81325
2.87348
2.9432
2.74646
1.00318
0.996837
0.990614
0.98334
0.978019
0.973255
0.969763
0.966427
0.96397
0.961449
0.959644
0.957656
0.956297
0.954886
0.954791
0.955178
0.95651
0.963345
0.973496
1.01119
1.09096
1.33753
1.92155
2.52934
2.64738
2.64012
2.61991
2.59038
2.59296
2.61502
2.64959
2.67341
2.67849
2.67575
2.6782
2.71531
2.81899
2.87446
2.94168
2.74905
1.00318
0.996867
0.990582
0.983374
0.977982
0.973295
0.969719
0.966474
0.963918
0.961506
0.959581
0.957725
0.956222
0.954963
0.954707
0.955258
0.956282
0.962593
0.972174
1.01237
1.08535
1.34248
1.93469
2.54028
2.6502
2.6381
2.60824
2.58131
2.58424
2.60652
2.64164
2.66792
2.67531
2.67392
2.67708
2.71426
2.81807
2.87383
2.94092
2.74684
1.00318
0.996868
0.99058
0.983373
0.977983
0.973292
0.969722
0.96647
0.963922
0.961501
0.959586
0.95772
0.956226
0.954959
0.954709
0.955258
0.956279
0.962568
0.972115
1.01245
1.08536
1.33997
1.9311
2.53914
2.65211
2.641
2.61327
2.58644
2.58964
2.61224
2.64648
2.67119
2.67733
2.67575
2.67904
2.7162
2.81843
2.87246
2.93844
2.7497
1.00318
0.996868
0.99058
0.983375
0.977981
0.973295
0.96972
0.966473
0.96392
0.961504
0.959581
0.957726
0.956221
0.954957
0.95469
0.955234
0.956242
0.962484
0.971935
1.01162
1.08352
1.33714
1.92259
2.5383
2.64962
2.6362
2.60566
2.58088
2.58509
2.60817
2.64245
2.66764
2.67443
2.67354
2.67789
2.71777
2.82015
2.87197
2.9374
2.75169
1.00318
0.996838
0.990613
0.98334
0.97802
0.973252
0.969768
0.966421
0.963979
0.96144
0.95965
0.957651
0.956302
0.954865
0.95476
0.955125
0.956341
0.963441
0.972875
1.01
1.0859
1.32787
1.89487
2.52213
2.64368
2.63495
2.61315
2.58842
2.59389
2.61788
2.65
2.67146
2.67601
2.67444
2.67951
2.72329
2.82414
2.87131
2.93552
2.75781
1.00318
0.996839
0.990612
0.983342
0.978017
0.973255
0.969764
0.966424
0.963974
0.961446
0.959643
0.957659
0.956292
0.954874
0.954752
0.955142
0.95644
0.962805
0.973094
1.00878
1.08554
1.32289
1.8902
2.51979
2.6403
2.63108
2.60835
2.58529
2.59178
2.61677
2.64793
2.66892
2.67362
2.67263
2.6796
2.72904
2.82786
2.87109
2.93368
2.75946
1.00318
0.996838
0.990612
0.98334
0.978018
0.973253
0.969767
0.966419
0.96398
0.961439
0.959651
0.957652
0.956295
0.954872
0.954729
0.9552
0.956191
0.963763
0.972363
1.00949
1.08229
1.31808
1.87233
2.50978
2.63592
2.62737
2.6061
2.58439
2.59192
2.61767
2.64752
2.6677
2.67218
2.67158
2.67973
2.73213
2.82884
2.86992
2.93228
2.76126
1.00318
0.996839
0.99061
0.983342
0.978017
0.973254
0.969765
0.966421
0.963979
0.96144
0.95965
0.957652
0.956294
0.954867
0.954716
0.955173
0.956153
0.963632
0.972134
1.00873
1.08046
1.31244
1.85716
2.50132
2.63331
2.62511
2.60447
2.58444
2.59313
2.62006
2.64881
2.66775
2.67145
2.671
2.6806
2.73708
2.82984
2.86725
2.92929
2.76453
1.00318
0.996843
0.990607
0.983347
0.978012
0.97326
0.969759
0.966428
0.963971
0.961448
0.959642
0.957661
0.956289
0.954864
0.95471
0.955079
0.956312
0.962508
0.972316
1.00671
1.07945
1.3068
1.84567
2.4952
2.63142
2.62292
2.60113
2.58291
2.59254
2.62043
2.64862
2.66689
2.6701
2.67046
2.6826
2.74363
2.83147
2.86545
2.92618
2.76606
1.00318
0.996843
0.990606
0.983347
0.978012
0.973259
0.969762
0.966425
0.963976
0.961442
0.959649
0.957652
0.956295
0.954854
0.954683
0.955102
0.956055
0.963336
0.971565
1.00718
1.07618
1.29939
1.82322
2.48113
2.62589
2.6182
2.59873
2.58262
2.5933
2.62183
2.6492
2.66672
2.66947
2.6705
2.68439
2.74759
2.83226
2.86444
2.92415
2.76762
1.00318
0.996846
0.990604
0.983349
0.97801
0.973262
0.96976
0.966427
0.963975
0.961443
0.959649
0.957653
0.956292
0.954851
0.954656
0.955087
0.955975
0.963243
0.971225
1.00639
1.07386
1.29134
1.80334
2.46596
2.62066
2.61381
2.59622
2.58263
2.59433
2.62371
2.65028
2.66683
2.66916
2.67058
2.68553
2.74987
2.83189
2.86209
2.92121
2.76948
1.00318
0.996849
0.990601
0.983353
0.978007
0.973266
0.969757
0.96643
0.963973
0.961445
0.959649
0.957653
0.956295
0.954839
0.954635
0.955025
0.955906
0.963064
0.970857
1.00544
1.07139
1.28387
1.7816
2.45041
2.61525
2.60932
2.59294
2.58233
2.59464
2.62457
2.65042
2.66619
2.66826
2.67026
2.68675
2.75232
2.83089
2.85949
2.91848
2.77158
1.00319
0.996853
0.990597
0.98336
0.978001
0.973273
0.969752
0.966436
0.963969
0.96145
0.959645
0.957657
0.956293
0.954831
0.954613
0.954907
0.955923
0.962406
0.970593
1.00313
1.06914
1.27701
1.76104
2.43168
2.61145
2.60783
2.5939
2.58486
2.59708
2.62704
2.65147
2.66598
2.66781
2.67036
2.68857
2.75538
2.83039
2.85722
2.91609
2.77272
1.00318
0.99688
0.990567
0.983392
0.977966
0.973311
0.969713
0.966478
0.963927
0.961495
0.959598
0.957709
0.956238
0.954887
0.954525
0.954939
0.955799
0.961074
0.969308
1.00284
1.06289
1.27552
1.76558
2.4186
2.60205
2.59893
2.5867
2.5835
2.59657
2.62793
2.6518
2.66543
2.66728
2.67056
2.6912
2.75943
2.8291
2.85358
2.91299
2.77346
1.00318
0.996883
0.990564
0.983396
0.977963
0.973315
0.969709
0.966481
0.963925
0.961496
0.959599
0.957707
0.95624
0.954878
0.954502
0.954896
0.95574
0.960915
0.968902
1.00188
1.06085
1.26611
1.75145
2.40502
2.59766
2.59535
2.58505
2.58413
2.59725
2.62886
2.6521
2.66502
2.66698
2.67083
2.69317
2.76183
2.82727
2.84985
2.9098
2.77375
1.00318
0.996882
0.990566
0.983397
0.977963
0.973319
0.969707
0.966486
0.963922
0.9615
0.959599
0.957708
0.956242
0.954868
0.954472
0.954834
0.955671
0.960654
0.968521
1.00041
1.05735
1.25909
1.72534
2.38076
2.58773
2.58798
2.58057
2.58142
2.59562
2.62917
2.6522
2.66455
2.66673
2.67136
2.69513
2.76341
2.82609
2.84732
2.9071
2.77439
1.00319
0.996863
0.990588
0.983375
0.977988
0.973293
0.969737
0.966456
0.963956
0.961465
0.959639
0.957665
0.956289
0.954807
0.954492
0.954725
0.955612
0.961759
0.968763
1.00026
1.0575
1.24532
1.67499
2.35149
2.58576
2.59065
2.58336
2.58416
2.59773
2.63042
2.65261
2.66422
2.66664
2.67224
2.69752
2.76462
2.82377
2.8436
2.90348
2.77538
1.00319
0.996865
0.990586
0.983379
0.977985
0.973297
0.969732
0.966462
0.963951
0.961471
0.959634
0.957669
0.956285
0.954803
0.954462
0.954682
0.955554
0.961483
0.9683
0.999012
1.05442
1.23712
1.6433
2.33084
2.58647
2.59281
2.58585
2.58728
2.60107
2.63296
2.65293
2.66338
2.66618
2.67274
2.69921
2.76474
2.82138
2.8401
2.89988
2.77613
1.00318
0.996898
0.990554
0.983413
0.977952
0.973332
0.969699
0.966499
0.963915
0.961512
0.959592
0.957713
0.956239
0.954843
0.954384
0.95468
0.955459
0.959998
0.967194
0.996656
1.04836
1.23474
1.64211
2.30695
2.57881
2.58827
2.58393
2.58692
2.60195
2.63447
2.65276
2.66239
2.66535
2.67247
2.69964
2.76357
2.81864
2.83686
2.89663
2.77592
1.00319
0.996899
0.990553
0.983416
0.97795
0.973335
0.969697
0.9665
0.963913
0.961513
0.959591
0.957712
0.95624
0.95483
0.95436
0.954627
0.955404
0.959816
0.966724
0.995454
1.04548
1.22656
1.62065
2.29882
2.57541
2.58755
2.58349
2.58685
2.60224
2.63461
2.65117
2.65928
2.66243
2.67074
2.69939
2.76142
2.8155
2.83369
2.89438
2.77515
1.00319
0.996912
0.990537
0.983432
0.977932
0.973352
0.96968
0.966516
0.963899
0.961523
0.959583
0.957716
0.956236
0.954824
0.95432
0.954564
0.955316
0.959505
0.966424
0.994064
1.04279
1.21938
1.59404
2.2882
2.57144
2.58581
2.583
2.58703
2.6029
2.6347
2.64942
2.65632
2.65942
2.66844
2.69856
2.75797
2.80936
2.82719
2.89052
2.77298
1.00319
0.996916
0.990534
0.983435
0.977927
0.97336
0.969666
0.966532
0.963879
0.961542
0.959566
0.957728
0.956228
0.954818
0.954283
0.954513
0.955235
0.959274
0.965863
0.992728
1.03936
1.21179
1.5668
2.27598
2.56456
2.58299
2.58206
2.58695
2.60397
2.63447
2.64774
2.65376
2.65688
2.66659
2.69773
2.7552
2.80477
2.82205
2.88743
2.77131
1.00319
0.996912
0.990537
0.983431
0.977931
0.973355
0.969673
0.966523
0.963888
0.961531
0.959575
0.95772
0.95623
0.954809
0.954255
0.954481
0.955158
0.959121
0.96536
0.991741
1.03583
1.2042
1.53259
2.26656
2.56177
2.58258
2.58181
2.58684
2.60416
2.63414
2.64682
2.65224
2.65534
2.66552
2.69756
2.75239
2.79988
2.81636
2.88281
2.76893
1.00318
0.996916
0.990532
0.983435
0.977926
0.973359
0.969669
0.966528
0.963882
0.961539
0.959566
0.957728
0.956225
0.954801
0.95422
0.954428
0.955086
0.95889
0.964881
0.990364
1.03255
1.19564
1.50918
2.25246
2.55961
2.58336
2.58239
2.58719
2.60372
2.63255
2.64472
2.65002
2.65343
2.66466
2.69791
2.75012
2.79444
2.80984
2.8781
2.76724
1.00318
0.996927
0.990519
0.983449
0.977911
0.973375
0.969653
0.966542
0.963868
0.961552
0.95955
0.957748
0.956197
0.954818
0.954153
0.954395
0.954969
0.958618
0.964449
0.988928
1.02995
1.18748
1.4921
2.23571
2.55038
2.58197
2.5824
2.58763
2.60419
2.63076
2.64187
2.64687
2.65067
2.66321
2.69795
2.74742
2.78963
2.80361
2.87161
2.76527
1.00318
0.996927
0.990518
0.983448
0.97791
0.973373
0.969652
0.966541
0.963868
0.96155
0.959553
0.957741
0.956203
0.9548
0.954125
0.95434
0.954905
0.958442
0.963991
0.98801
1.02678
1.17929
1.47638
2.22372
2.54276
2.58064
2.58203
2.58782
2.60433
2.62975
2.6403
2.64486
2.64872
2.66187
2.69753
2.74432
2.78466
2.79822
2.86692
2.76341
1.00318
0.996935
0.99051
0.983459
0.9779
0.973386
0.969639
0.966557
0.963852
0.961569
0.959535
0.957755
0.956191
0.954796
0.954068
0.954313
0.954795
0.958186
0.963532
0.986576
1.02407
1.17137
1.46106
2.19973
2.53232
2.5802
2.58247
2.58832
2.60383
2.62709
2.63704
2.64167
2.64582
2.65994
2.69587
2.73978
2.77779
2.79018
2.85955
2.75963
1.00318
0.996936
0.990508
0.983461
0.977897
0.973389
0.969636
0.966561
0.963847
0.961574
0.959529
0.95776
0.956185
0.954791
0.954033
0.954263
0.95471
0.957971
0.963118
0.98541
1.02122
1.16351
1.44345
2.17519
2.5139
2.57592
2.58196
2.58907
2.60473
2.62522
2.63415
2.63862
2.64302
2.65762
2.69347
2.73483
2.7727
2.78471
2.85349
2.75614
1.00318
0.996914
0.990531
0.983434
0.977922
0.97336
0.969664
0.96653
0.963878
0.96154
0.959563
0.95772
0.956226
0.954738
0.954067
0.954137
0.954707
0.958666
0.963134
0.986991
1.02138
1.14827
1.44114
2.18728
2.50776
2.5758
2.58186
2.58896
2.60445
2.6235
2.63172
2.63573
2.64019
2.65544
2.6908
2.72927
2.76448
2.77555
2.84584
2.75103
1.00318
0.996917
0.990528
0.983438
0.977918
0.973365
0.969659
0.966536
0.963871
0.961546
0.959554
0.957729
0.956212
0.954749
0.954021
0.954099
0.954653
0.958336
0.962741
0.985681
1.01891
1.13971
1.42225
2.1699
2.49499
2.57421
2.5816
2.5889
2.60313
2.62092
2.62825
2.63223
2.63682
2.65204
2.68713
2.72272
2.75784
2.76772
2.83667
2.74437
1.00318
0.99693
0.990513
0.983451
0.977905
0.973377
0.969646
0.966547
0.963858
0.961559
0.959541
0.957744
0.956196
0.95476
0.953963
0.954025
0.954521
0.958147
0.962214
0.984518
1.01616
1.13271
1.40313
2.15276
2.4841
2.57396
2.58075
2.58816
2.60024
2.61821
2.62544
2.62881
2.63342
2.6487
2.68221
2.71343
2.7452
2.75519
2.82695
2.73719
1.00317
0.996962
0.990481
0.983486
0.97787
0.973414
0.969609
0.966586
0.96382
0.961599
0.9595
0.957788
0.95615
0.954802
0.953858
0.953996
0.954355
0.957026
0.961331
0.980393
1.01082
1.13097
1.3699
2.09322
2.4721
2.57203
2.57934
2.58578
2.59453
2.61173
2.61987
2.62469
2.62944
2.64419
2.67752
2.70656
2.73729
2.74402
2.81399
2.72576
1.00317
0.996974
0.990468
0.983499
0.977856
0.973427
0.969595
0.966599
0.963808
0.96161
0.959492
0.957796
0.956139
0.954806
0.953808
0.953915
0.954259
0.95678
0.96084
0.979145
1.00794
1.12255
1.349
2.03346
2.44604
2.56934
2.57892
2.58537
2.59208
2.60436
2.61229
2.61852
2.62435
2.64003
2.67159
2.69739
2.72452
2.73165
2.80159
2.71535
1.00317
0.99697
0.990469
0.983494
0.977858
0.973422
0.969599
0.96659
0.963814
0.961598
0.959499
0.957781
0.956148
0.954784
0.9538
0.953823
0.954212
0.957271
0.960769
0.980182
1.00784
1.1088
1.34143
2.03003
2.42236
2.5624
2.57688
2.5845
2.5907
2.59907
2.60396
2.60944
2.61643
2.6348
2.66667
2.68911
2.71468
2.71653
2.78301
2.69508
1.00317
0.996967
0.99047
0.983492
0.977856
0.973426
0.969589
0.966603
0.963796
0.961618
0.959477
0.957802
0.956127
0.954796
0.953751
0.95376
0.954112
0.956946
0.960283
0.978895
1.00506
1.10112
1.31984
2.00353
2.40628
2.55834
2.57076
2.58091
2.58743
2.5962
2.59929
2.60254
2.60894
2.6262
2.65697
2.67639
2.69723
2.70086
2.76563
2.67761
1.00316
0.996972
0.990456
0.983498
0.977839
0.973435
0.969569
0.966616
0.963772
0.961638
0.959447
0.957831
0.956087
0.954828
0.953669
0.953686
0.954093
0.955424
0.962368
0.972133
1.00711
1.08288
1.30218
1.91621
2.38702
2.55811
2.5668
2.57327
2.57915
2.59023
2.59358
2.59726
2.60408
2.62204
2.6519
2.66538
2.68271
2.67538
2.73911
2.64136
1.00316
0.996942
0.990488
0.983466
0.977873
0.973402
0.969604
0.966583
0.963809
0.961604
0.959482
0.957798
0.956114
0.954799
0.953658
0.953559
0.954148
0.955043
0.9626
0.970373
1.00661
1.07244
1.27836
1.84471
2.35383
2.5544
2.56349
2.56804
2.57192
2.58102
2.58496
2.59013
2.59693
2.61338
2.64165
2.65283
2.66296
2.65691
2.70978
2.60453
1.00316
0.996948
0.990484
0.983473
0.97787
0.973407
0.969601
0.966585
0.963804
0.961605
0.959477
0.957798
0.956107
0.954796
0.953619
0.953466
0.953955
0.954818
0.961784
0.96911
1.00296
1.0639
1.25422
1.78727
2.30497
2.5399
2.55498
2.56263
2.56573
2.57385
2.57823
2.58532
2.59369
2.61068
2.63597
2.64188
2.64097
2.61943
2.67346
2.52644
1.02215
1.02695
1.02407
1.0212
1.01835
1.01486
1.01212
1.00938
1.00717
1.00503
1.00327
1.00156
1.00014
0.999102
0.998966
0.99962
1.00099
1.00835
1.02095
1.06807
1.16314
1.46176
2.18245
2.70058
2.77835
2.75902
2.70207
2.66766
2.66265
2.67544
2.69513
2.70126
2.72095
2.78847
2.83811
2.84864
2.85013
2.85939
2.91441
2.73834
1.02216
1.02694
1.02412
1.02114
1.01841
1.0148
1.01219
1.0093
1.00725
1.00495
1.00336
1.00147
1.00023
0.999023
0.999056
0.999376
1.00199
1.00642
1.02575
1.05927
1.17459
1.45003
2.15165
2.69594
2.77541
2.75872
2.70816
2.67328
2.66563
2.67788
2.69559
2.70215
2.72452
2.79385
2.83977
2.84873
2.84865
2.85671
2.91094
2.74458
1.02216
1.02694
1.02412
1.02114
1.01841
1.0148
1.01219
1.0093
1.00725
1.00495
1.00336
1.00147
1.00023
0.999022
0.999054
0.999374
1.00198
1.0064
1.02568
1.05912
1.17416
1.44896
2.14933
2.69606
2.77563
2.75895
2.70895
2.67488
2.66658
2.67887
2.69551
2.70285
2.72934
2.80093
2.8422
2.84867
2.84689
2.85414
2.90799
2.74625
1.02215
1.02695
1.02407
1.0212
1.01835
1.01486
1.01212
1.00937
1.00717
1.00503
1.00327
1.00156
1.00014
0.999097
0.998963
0.999611
1.00098
1.0083
1.0206
1.06772
1.16155
1.45869
2.17423
2.69923
2.77782
2.75839
2.70249
2.66958
2.66338
2.67681
2.69412
2.70234
2.73198
2.80537
2.84404
2.8485
2.8456
2.85253
2.90657
2.74424
1.02215
1.02695
1.02411
1.02116
1.01839
1.01482
1.01217
1.00932
1.00723
1.00497
1.00334
1.00149
1.00021
0.999024
0.999033
0.999318
1.00255
1.00643
1.02722
1.06026
1.17017
1.4537
2.15959
2.69799
2.77771
2.75893
2.70307
2.67127
2.66638
2.67998
2.69676
2.70566
2.73848
2.81085
2.84515
2.84725
2.84251
2.84862
2.90385
2.74779
1.02215
1.02695
1.02407
1.0212
1.01835
1.01487
1.01212
1.00937
1.00717
1.00503
1.00327
1.00156
1.00013
0.999096
0.998935
0.999604
1.00091
1.00821
1.02032
1.06714
1.15955
1.45197
2.16437
2.69766
2.77682
2.7561
2.69892
2.66777
2.66403
2.67906
2.69511
2.70506
2.74134
2.81386
2.84568
2.84609
2.84009
2.84573
2.90218
2.74847
1.02216
1.02694
1.02413
1.02113
1.01842
1.01478
1.01221
1.00928
1.00728
1.00492
1.00338
1.00145
1.00024
0.998981
0.999024
0.999314
1.00167
1.00609
1.02471
1.05823
1.17103
1.43378
2.12091
2.68906
2.77175
2.75334
2.70315
2.67261
2.66807
2.68184
2.69618
2.70653
2.74613
2.81777
2.84667
2.84532
2.8373
2.84168
2.89984
2.75294
1.02216
1.02694
1.02411
1.02115
1.01839
1.01481
1.01218
1.00931
1.00724
1.00496
1.00334
1.00149
1.00021
0.999006
0.998989
0.999559
1.00104
1.00872
1.02073
1.06668
1.15844
1.43902
2.13287
2.69043
2.76775
2.7467
2.69765
2.66769
2.6659
2.68057
2.69454