/*--------------------------------*- C++ -*----------------------------------*\
  =========                 |
  \\      /  F ield         | OpenFOAM: The Open Source CFD Toolbox
   \\    /   O peration     | Website:  https://openfoam.org
    \\  /    A nd           | Version:  6.0
     \\/     M anipulation  |
\*---------------------------------------------------------------------------*/
FoamFile
{
    version     2.0;
    format      ascii;
    class       volScalarField;
    location    "2";
    object      T;
}
// * * * * * * * * * * * * * * * * * * * * * * * * * * * * * * * * * * * * * //

dimensions      [0 0 0 1 0 0 0];

internalField   nonuniform List<scalar> 
4800
(
1
1
1
1
1
1
1
1
1
1
1
1.00001
1.00001
1.00002
1.00004
1.00009
1.00019
1.00038
1.00078
1.00161
1.0033
1.00679
1.01399
1.02896
1.06041
1.12827
1.28247
1.69223
2.96412
2.73698
2.7568
2.80782
2.47946
2.38257
2.1214
2.11204
3.32855
3.25567
2.08988
1.87525
1
1
1
1
1
1
1
1
1
1
1
1.00001
1.00001
1.00002
1.00004
1.00009
1.00019
1.00038
1.00078
1.00161
1.0033
1.00679
1.01399
1.02896
1.06041
1.12828
1.2825
1.69245
2.96411
2.73931
2.75773
2.82331
2.77715
2.5086
2.42502
2.46861
3.55648
2.71996
1.91207
1.8288
1
1
1
1
1
1
1
1
1
1
1
1.00001
1.00001
1.00002
1.00004
1.00009
1.00019
1.00038
1.00078
1.00161
1.0033
1.00679
1.01399
1.02896
1.06041
1.12828
1.28253
1.69274
2.96381
2.74269
2.76044
2.8145
2.81637
2.71688
2.59103
2.83353
4.1645
2.20593
1.77991
1.88606
1
1
1
1
1
1
1
1
1
1
1
1.00001
1.00001
1.00002
1.00004
1.00009
1.00019
1.00038
1.00078
1.00161
1.0033
1.00679
1.014
1.02896
1.06042
1.12829
1.28255
1.69295
2.96197
2.74499
2.76327
2.81445
2.81223
2.76654
2.76117
3.0782
3.88485
1.94457
1.69665
1.84809
1
1
1
1
1
1
1
1
1
1
1
1.00001
1.00001
1.00002
1.00004
1.00009
1.00019
1.00038
1.00078
1.00161
1.0033
1.00679
1.014
1.02896
1.06043
1.12832
1.28262
1.69324
2.95919
2.74608
2.76602
2.81962
2.81395
2.77455
2.7855
3.05026
2.5705
1.76741
1.53673
1.64336
1
1
1
1
1
1
1
1
1
1
1
1.00001
1.00001
1.00002
1.00004
1.00009
1.00019
1.00038
1.00078
1.00161
1.0033
1.00679
1.014
1.02896
1.06042
1.12831
1.28262
1.69338
2.95559
2.74735
2.76685
2.82199
2.81822
2.77479
2.82666
3.13334
2.07406
1.69325
1.48624
1.5477
1
1
1
1
1
1
1
1
1
1
1
1.00001
1.00001
1.00002
1.00004
1.00009
1.00019
1.00038
1.00078
1.00161
1.00331
1.0068
1.01401
1.02897
1.06044
1.12832
1.28262
1.69337
2.95099
2.74787
2.76658
2.81835
2.82544
2.77501
2.76467
2.9042
1.78804
1.63854
1.52972
1.57124
1
1
1
1
1
1
1
1
1
1
1
1.00001
1.00001
1.00002
1.00004
1.00009
1.00019
1.00038
1.00079
1.00161
1.00331
1.00681
1.01403
1.02901
1.06049
1.1284
1.28273
1.69351
2.94618
2.74771
2.76595
2.81626
2.82822
2.77028
2.71836
2.55953
1.83854
1.65025
1.56633
1.97021
1
1
1
1
1
1
1
1
1
1
1
1.00001
1.00001
1.00002
1.00004
1.00009
1.00019
1.00038
1.00079
1.00162
1.00332
1.00682
1.01405
1.02905
1.06057
1.12855
1.283
1.69395
2.94185
2.74721
2.76564
2.81629
2.83028
2.76752
2.69269
2.69908
2.03756
1.7891
2.0171
2.82147
1
1
1
1
1
1
1
1
1
1
1
1.00001
1.00001
1.00002
1.00004
1.00009
1.00019
1.00038
1.00079
1.00162
1.00333
1.00683
1.01407
1.0291
1.06067
1.12873
1.28336
1.69456
2.93831
2.74703
2.7652
2.81874
2.82073
2.76201
2.65304
2.74744
2.43502
2.3872
3.1087
3.23486
1
1
1
1
1
1
1
1
1
1
1
1.00001
1.00001
1.00002
1.00004
1.00009
1.00019
1.00039
1.00079
1.00162
1.00333
1.00684
1.01409
1.02913
1.06073
1.12888
1.28369
1.69509
2.93552
2.7489
2.76499
2.81247
2.81286
2.76225
2.69067
2.65802
3.03048
3.10771
3.40558
3.22028
1
1
1
1
1
1
1
1
1
1
1
1.00001
1.00001
1.00002
1.00004
1.00009
1.00019
1.00038
1.00079
1.00162
1.00333
1.00684
1.01409
1.02914
1.06075
1.1289
1.28373
1.69479
2.93153
2.75223
2.76576
2.80156
2.82013
2.76818
2.70697
2.67138
3.49067
3.50582
3.36766
3.23882
1
1
1
1
1
1
1
1
1
1
1
1.00001
1.00001
1.00002
1.00004
1.00009
1.00019
1.00038
1.00079
1.00162
1.00332
1.00683
1.01408
1.02912
1.06072
1.12884
1.28361
1.69387
2.92606
2.75456
2.7665
2.79289
2.81026
2.7829
2.71953
2.7131
3.65597
3.56074
3.27378
3.21915
1
1
1
1
1
1
1
1
1
1
1
1.00001
1.00001
1.00002
1.00004
1.00009
1.00019
1.00038
1.00078
1.00161
1.00331
1.00681
1.01403
1.02903
1.06054
1.12851
1.28298
1.69193
2.91941
2.76012
2.76995
2.78658
2.78318
2.78457
2.74252
2.77228
3.50386
3.39838
3.25282
3.21385
1
1
1
1
1
1
1
1
1
1
1
1.00001
1.00001
1.00002
1.00004
1.00009
1.00019
1.00038
1.00078
1.00161
1.0033
1.00679
1.01399
1.02893
1.06033
1.12802
1.28182
1.68808
2.90657
2.76198
2.77312
2.78609
2.77683
2.75739
2.74979
2.77229
3.09347
3.20798
3.14528
3.13008
1
1
1
1
1
1
1
1
1
1
1
1.00001
1.00001
1.00002
1.00004
1.00009
1.00019
1.00038
1.00078
1.0016
1.00329
1.00677
1.01395
1.02885
1.06014
1.12759
1.28078
1.68443
2.89268
2.75576
2.76499
2.78418
2.77562
2.74128
2.71917
2.76238
2.89866
2.94898
3.0383
2.89879
1
1
1
1
1
1
1
1
1
1
1
1.00001
1.00001
1.00002
1.00004
1.00009
1.00019
1.00038
1.00078
1.0016
1.00329
1.00676
1.01391
1.02877
1.05996
1.12717
1.27978
1.68098
2.88034
2.75459
2.75672
2.7603
2.78191
2.72486
2.69722
2.73053
2.81243
2.84148
2.84891
2.85315
1
1
1
1
1
1
1
1
1
1
1
1.00001
1.00001
1.00002
1.00004
1.00009
1.00019
1.00038
1.00078
1.0016
1.00328
1.00674
1.01387
1.02867
1.05974
1.12668
1.27864
1.67711
2.86802
2.75489
2.74998
2.7485
2.76857
2.71318
2.69274
2.69557
2.76989
2.77918
2.78055
2.85668
1
1
1
1
1
1
1
1
1
1
1
1.00001
1.00001
1.00002
1.00004
1.00009
1.00019
1.00038
1.00078
1.0016
1.00327
1.00672
1.01382
1.02855
1.05948
1.12605
1.27718
1.67233
2.85477
2.75614
2.74359
2.73972
2.73583
2.72226
2.70063
2.68848
2.73266
2.73674
2.77259
2.87856
1
1
1
1
1
1
1
1
1
1
1
1.00001
1.00001
1.00002
1.00004
1.00009
1.00018
1.00038
1.00077
1.00159
1.00326
1.00669
1.01375
1.0284
1.05913
1.12524
1.27527
1.66617
2.84023
2.75598
2.73664
2.73133
2.71753
2.73104
2.72084
2.71119
2.7025
2.72425
2.79618
2.90503
1
1
1
1
1
1
1
1
1
1
1
1
1.00001
1.00002
1.00004
1.00009
1.00018
1.00037
1.00076
1.00157
1.00322
1.00662
1.01363
1.02815
1.0586
1.12408
1.27256
1.65781
2.82417
2.75403
2.7288
2.72656
2.71314
2.69391
2.67316
2.69777
2.68896
2.73556
2.82849
2.94001
1
1
1
1
1
1
1
1
1
1
1
1
1.00001
1.00002
1.00004
1.00009
1.00018
1.00037
1.00075
1.00154
1.00316
1.0065
1.01338
1.02765
1.05762
1.12209
1.26828
1.64566
2.8053
2.74975
2.72132
2.72628
2.70529
2.68106
2.65925
2.66376
2.68181
2.73832
2.81841
3.01186
1
1
1
1
1
1
1
1
1
1
1
1
1.00001
1.00002
1.00004
1.00008
1.00017
1.00036
1.00073
1.0015
1.00308
1.00632
1.01301
1.02688
1.05598
1.1186
1.26073
1.62557
2.77615
2.74085
2.71881
2.72596
2.72398
2.68212
2.65716
2.66015
2.67668
2.74294
2.82737
3.09452
1
1
1
1
1
1
1
1
1
1
1
1
1.00001
1.00002
1.00004
1.00008
1.00017
1.00034
1.0007
1.00144
1.00296
1.00608
1.01251
1.02583
1.05376
1.11373
1.24967
1.59505
2.72715
2.719
2.72282
2.72491
2.7313
2.70786
2.66631
2.6635
2.68419
2.78522
2.82849
2.79212
1
1
1
1
1
1
1
1
1
1
1
1
1.00001
1.00002
1.00004
1.00008
1.00016
1.00033
1.00067
1.00137
1.0028
1.00576
1.01184
1.02445
1.05083
1.10737
1.23523
1.55448
2.65551
2.65836
2.7255
2.727
2.71589
2.69042
2.67063
2.67652
2.70121
2.73901
2.71856
2.67826
1
1
1
1
1
1
1
1
1
1
1
1
1.00001
1.00002
1.00004
1.00007
1.00015
1.0003
1.00062
1.00127
1.00261
1.00535
1.011
1.02269
1.04711
1.09925
1.21673
1.50309
2.55644
2.58261
2.72512
2.73377
2.71472
2.65973
2.62932
2.64198
2.64697
2.6793
2.68963
2.67086
1
1
1
1
1
1
1
1
1
1
1
1
1.00001
1.00002
1.00003
1.00007
1.00014
1.00028
1.00057
1.00117
1.00239
1.00489
1.01002
1.02061
1.04269
1.08958
1.1946
1.4427
2.41078
2.5072
2.70689
2.75073
2.71966
2.65518
2.61834
2.62834
2.62599
2.66283
2.6752
2.67255
1
1
1
1
1
1
1
1
1
1
1
1
1.00001
1.00001
1.00003
1.00006
1.00012
1.00025
1.00052
1.00106
1.00216
1.00441
1.00901
1.01848
1.03819
1.07984
1.17226
1.38097
2.26817
2.4507
2.63839
2.74189
2.71876
2.65084
2.61447
2.62683
2.61737
2.652
2.66346
2.67732
1
1
1
1
1
1
1
1
1
1
1
1
1.00001
1.00001
1.00003
1.00006
1.00012
1.00024
1.00048
1.00098
1.00201
1.00409
1.00837
1.01716
1.03536
1.07359
1.15773
1.34172
2.15276
2.47901
2.60462
2.72245
2.71323
2.64709
2.61177
2.62633
2.61144
2.63947
2.65589
2.67933
1
1
1
1
1
1
1
1
1
1
1
1
1.00001
1.00001
1.00003
1.00005
1.00011
1.00022
1.00045
1.00092
1.00189
1.00387
1.00793
1.01628
1.03359
1.06986
1.14926
1.32004
2.05723
2.55911
2.58807
2.70513
2.70614
2.64651
2.60955
2.62514
2.61213
2.62716
2.6573
2.68693
1
1
1
1
1
1
1
1
1
1
1
1
1.00001
1.00001
1.00002
1.00005
1.0001
1.00021
1.00043
1.00087
1.00179
1.00367
1.00754
1.01551
1.03205
1.06675
1.1425
1.30586
1.94862
2.64747
2.58923
2.6756
2.69269
2.65171
2.6123
2.63359
2.6166
2.62734
2.65812
2.69417
1
1
1
1
1
1
1
1
1
1
1
1
1.00001
1.00001
1.00002
1.00005
1.0001
1.0002
1.00041
1.00084
1.00172
1.00352
1.00723
1.01489
1.03079
1.06417
1.1368
1.29618
1.8333
2.71353
2.59826
2.64777
2.67201
2.62663
2.61016
2.63627
2.61457
2.64054
2.6222
2.66967
1
1
1
1
1
1
1
1
1
1
1
1
1.00001
1.00001
1.00002
1.00005
1.00009
1.00019
1.0004
1.00081
1.00166
1.0034
1.00699
1.01438
1.02974
1.06201
1.13185
1.28972
1.73008
2.73529
2.61745
2.62671
2.65605
2.60403
2.58385
2.60533
2.61004
2.60187
2.61139
2.65974
1
1
1
1
1
1
1
1
1
1
1
1
1.00001
1.00001
1.00002
1.00004
1.00009
1.00019
1.00038
1.00078
1.00161
1.00329
1.00676
1.01389
1.0287
1.0598
1.12693
1.27957
1.68879
2.71184
2.62066
2.609
2.63856
2.59065
2.57427
2.59195
2.6195
2.58389
2.60766
2.65634
1
1
1
1
1
1
1
1
1
1
1
1
1
1.00001
1.00002
1.00004
1.00009
1.00018
1.00037
1.00075
1.00155
1.00318
1.00653
1.01342
1.02771
1.05766
1.12214
1.26842
1.6525
2.68462
2.61713
2.5736
2.5981
2.5891
2.57178
2.58796
2.63861
2.58615
2.60805
2.66472
1
1
1
1
1
1
1
1
1
1
1
1
1
1.00001
1.00002
1.00004
1.00008
1.00017
1.00035
1.00072
1.00148
1.00305
1.00627
1.01291
1.02668
1.0555
1.11738
1.25743
1.6191
2.6567
2.62189
2.55097
2.57503
2.59065
2.59224
2.60527
2.6558
2.58944
2.60288
2.6124
1
1
1
1
1
1
1
1
1
1
1
1
1
1.00001
1.00002
1.00004
1.00008
1.00016
1.00033
1.00068
1.0014
1.00289
1.00595
1.01226
1.02539
1.05292
1.11202
1.24563
1.58604
2.6285
2.61338
2.54022
2.56164
2.60114
2.60136
2.60731
2.62702
2.5738
2.58044
2.51073
1
1
1
1
1
1
1
1
1
1
1
1
1
1.00001
1.00002
1.00004
1.00007
1.00015
1.00031
1.00064
1.00132
1.00271
1.00557
1.01149
1.02377
1.04957
1.10499
1.23044
1.54591
2.58678
2.60528
2.54533
2.5515
2.5777
2.56483
2.56215
2.58792
2.56353
2.48782
2.36083
1
1
1
1
1
1
1
1
1
1
1
1
1
1.00001
1.00002
1.00003
1.00007
1.00014
1.00029
1.00059
1.00122
1.00251
1.00517
1.01064
1.022
1.04581
1.09682
1.212
1.49833
2.50487
2.59289
2.55997
2.55493
2.56119
2.56582
2.55115
2.56071
2.57358
2.40616
2.29885
1
1
1
1
1
1
1
1
1
1
1
1
1
1.00001
1.00001
1.00003
1.00006
1.00013
1.00026
1.00054
1.0011
1.00227
1.00467
1.00961
1.01983
1.04117
1.08645
1.1874
1.41961
2.3952
2.49765
2.54472
2.55288
2.55744
2.55745
2.53147
2.52773
2.54543
2.31842
2.18616
1
1
1
1
1
1
1
1
1
1
1
1
1
1.00001
1.00001
1.00002
1.00005
1.00009
1.00019
1.0004
1.00082
1.00168
1.00345
1.00709
1.01459
1.03014
1.06272
1.13323
1.28814
1.83127
2.46039
2.54397
2.53469
2.53333
2.53461
2.50353
2.48486
2.48212
2.3255
2.10079
1
1
1
1
1
1
1
1
1
1
1
1
1
1
1.00001
1.00002
1.00004
1.00007
1.00015
1.00031
1.00063
1.00129
1.00264
1.00543
1.01118
1.02308
1.04796
1.10114
1.21784
1.53659
2.36101
2.57634
2.55712
2.51857
2.50435
2.47192
2.46333
2.45899
2.43411
2.24824
1
1
1
1
1
1
1
1
1
1
1
1
1
1
1.00001
1.00001
1.00003
1.00006
1.00013
1.00026
1.00054
1.00111
1.00227
1.00467
1.00963
1.01993
1.04149
1.08739
1.18911
1.431
2.24108
2.55956
2.57761
2.5506
2.51108
2.47134
2.43917
2.38258
2.36883
2.34097
1
1
1
1
1
1
1
1
1
1
1
1
1
1
1.00001
1.00001
1.00002
1.00005
1.00009
1.00019
1.00039
1.0008
1.00163
1.00332
1.0068
1.01396
1.02883
1.0601
1.12852
1.27884
1.84234
2.45715
2.52177
2.51834
2.50246
2.46471
2.42666
2.365
2.3533
2.33191
1
1
1
1
1
1
1
1
1
1
1
1
1
1
1
1.00001
1.00002
1.00004
1.00008
1.00016
1.00032
1.00065
1.00133
1.0027
1.00547
1.01107
1.02245
1.04593
1.0959
1.20425
1.51599
2.38347
2.45967
2.45842
2.45573
2.42788
2.36255
2.2914
2.26652
2.2707
1
1
1
1
1
1
1
1
1
1
1
1
1
1
1
1.00001
1.00001
1.00002
1.00004
1.00009
1.00019
1.00039
1.00082
1.0017
1.00355
1.00738
1.01526
1.03142
1.06548
1.13385
1.38165
1.79082
2.17048
2.3268
2.36427
2.36914
2.33757
2.23164
2.1391
2.11886
1
1
1
1
1
1
1
1
1
1
1
1
1
1
1
1
1.00001
1.00001
1.00003
1.00005
1.00011
1.00022
1.00046
1.00095
1.00195
1.00401
1.00826
1.01705
1.03554
1.07316
1.176
1.34556
2.18634
2.39313
2.39195
2.37704
2.33431
2.23287
2.14504
2.07995
1
1
1
1
1
1
1
1
1
1
1
1
1
1
1
1
1
1.00001
1.00002
1.00004
1.00007
1.00015
1.00031
1.00065
1.00133
1.00275
1.00568
1.01171
1.02422
1.05037
1.10688
1.22921
1.62957
2.00535
2.26101
2.34631
2.33479
2.29846
2.23207
2.06701
1
1
1
1
1
1
1
1
1
1
1
1
1
1
1
1
1
1
1.00001
1.00001
1.00003
1.00006
1.00013
1.00026
1.00053
1.00109
1.00226
1.00468
1.0097
1.02015
1.04204
1.08771
1.18469
1.39883
1.90189
2.22666
2.3106
2.32849
2.30472
2.10249
1
1
1
1
1
1
1
1
1
1
1
1
1
1
1
1
1
1
1
1.00001
1.00002
1.00003
1.00006
1.00013
1.00026
1.00051
1.00104
1.00211
1.00428
1.00876
1.01805
1.03736
1.07842
1.16778
1.40049
1.96573
2.19155
2.23617
2.21061
2.1014
1
1
1
1
1
1
1
1
1
1
1
1
1
1
1
1
1
1
1
1.00001
1.00001
1.00002
1.00005
1.0001
1.0002
1.00039
1.00079
1.00159
1.00319
1.0064
1.01281
1.02561
1.05151
1.10689
1.22719
1.67385
1.83603
1.99561
2.00345
2.0177
1
1
1
1
1
1
1
1
1
1
1
1
1
1
1
1
1
1
1
1
1.00001
1.00002
1.00004
1.00008
1.00016
1.00032
1.00065
1.00132
1.00265
1.00533
1.01071
1.02152
1.04326
1.0891
1.18661
1.56211
1.73181
1.84611
1.83119
1.82656
1
1
1
1
1
1
1
1
1
1
1
1
1
1
1
1
1
1
1
1
1.00001
1.00001
1.00002
1.00005
1.0001
1.00019
1.0004
1.00081
1.00165
1.00337
1.00686
1.01397
1.0287
1.0586
1.13264
1.29087
1.63282
1.85599
1.86967
1.84032
1
1
1
1
1
1
1
1
1
1
1
1
1
1
1
1
1
1
1
1
1
1
1.00001
1.00002
1.00004
1.00008
1.00017
1.00034
1.00068
1.00139
1.00281
1.00572
1.01169
1.02393
1.05
1.10616
1.21258
1.47757
1.61903
1.63571
1
1
1
1
1
1
1
1
1
1
1
1
1
1
1
1
1
1
1
1
1
1
1
1.00001
1.00001
1.00003
1.00006
1.00012
1.00024
1.00049
1.00099
1.00202
1.00409
1.00828
1.0168
1.03387
1.06897
1.14173
1.33052
1.4831
1
1
1
1
1
1
1
1
1
1
1
1
1
1
1
1
1
1
1
1
1
1
1
1
1
1.00001
1.00001
1.00003
1.00006
1.00012
1.00024
1.00049
1.00097
1.00196
1.00386
1.00759
1.01405
1.02804
1.0534
1.13017
1
1
1
1
1
1
1
1
1
1
1
1
1
1
1
1
1
1
1
1
1
1
1
1
1
1.00001
1.00001
1.00002
1.00004
1.00008
1.00015
1.0003
1.00059
1.00121
1.00244
1.00498
1.00981
1.01978
1.03823
1.08095
1
1
1
1
1
1
1
1
1
1
1
1
1
1
1
1
1
1
1
1
1
1
1
1
1
1
1.00001
1.00002
1.00003
1.00006
1.00012
1.00024
1.00048
1.0009
1.00189
1.00347
1.00718
1.01355
1.02918
1.0499
1
1
1
1
1
1
1
1
1
1
1
1
1
1
1
1
1
1
1
1
1
1
1
1
1
1
1.00001
1.00001
1.00003
1.00006
1.00011
1.00022
1.00044
1.00083
1.00173
1.00315
1.00681
1.01282
1.02682
1.04775
1
1
1
1
1
1
1
1
1
1
1
1
1
1
1
1
1
1
1
1
1
1
1
1
1
1
1.00001
1.00001
1.00003
1.00005
1.0001
1.00019
1.00038
1.00073
1.00148
1.00267
1.00585
1.01054
1.02318
1.04137
1
1
1
1
1
1
1
1
1
1
1
1
1
1
1
1
1
1
1
1
1
1
1
1
1
1
1.00001
1.00001
1.00002
1.00004
1.00008
1.00017
1.00033
1.00064
1.0013
1.00236
1.00525
1.0082
1.01732
1.02558
1
1
1
1
1
1
1
1
1
1
1
1
1
1
1
1
1
1
1
1
1
1
1
1
1
1
1
1.00001
1.00002
1.00004
1.00007
1.00014
1.00028
1.00055
1.00112
1.00207
1.00462
1.00733
1.01571
1.02207
1
1
1
1
1
1
1
1
1
1
1
1
1
1
1
1
1
1
1
1
1
1
1
1
1
1
1
1.00001
1.00001
1.00003
1.00006
1.00011
1.00023
1.00045
1.00091
1.00175
1.0038
1.00623
1.0147
1.02066
1
1
1
1
1
1
1
1
1
1
1
1
1
1
1
1
1
1
1
1
1
1
1
1
1
1
1
1.00001
1.00001
1.00003
1.00005
1.00011
1.00021
1.00042
1.00084
1.00165
1.00343
1.00619
1.01313
1.02261
1
1
1
1
1
1
1
1
1
1
1
1
1
1
1
1
1
1
1
1
1
1
1
1
1
1
1
1
1.00001
1.00002
1.00005
1.0001
1.0002
1.0004
1.00082
1.00168
1.0035
1.007
1.0141
1.02605
1
1
1
1
1
1
1
1
1
1
1
1
1
1
1
1
1
1
1
1
1
1
1
1
1
1
1
1
1.00001
1.00002
1.00004
1.00008
1.00016
1.00035
1.00074
1.00153
1.00323
1.00654
1.01292
1.02538
1
1
1
1
1
1
1
1
1
1
1
1
1
1
1
1
1
1
1
1
1
1
1
1
1
1
1
1.00001
1.00001
1.00002
1.00004
1.00008
1.00015
1.0003
1.00061
1.00113
1.00236
1.00445
1.00861
1.01786
1
1
1
1
1
1
1
1
1
1
1
1
1
1
1
1
1
1
1
1
1
1
1
1
1
1
1
1.00001
1.00001
1.00002
1.00004
1.00008
1.00015
1.0003
1.0006
1.00114
1.00235
1.00429
1.00717
1.01529
1
1
1
1
1
1
1
1
1
1
1
1
1
1
1
1
1
1
1
1
1
1
1
1
1
1
1
1
1.00001
1.00002
1.00003
1.00006
1.00012
1.00025
1.00049
1.00097
1.00205
1.00365
1.0077
1.0152
1
1
1
1
1
1
1
1
1
1
1
1
1
1
1
1
1
1
1
1
1
1
1
1
1
1
1
1
1.00001
1.00001
1.00003
1.00007
1.00016
1.00034
1.0007
1.00143
1.00288
1.00575
1.012
1.01917
1
1
1
1
1
1
1
1
1
1
1
1
1
1
1
1
1
1
1
1
1
1
1
1
1
1
1
1
1
1
1.00001
1.00002
1.00004
1.00009
1.00023
1.00058
1.00141
1.00338
1.00793
1.01809
1
1
1
1
1
1
1
1
1
1
1
1
1
1
1
1
1
1
1
1
1
1
1
1
1
1
1
1
1
1
1
1.00001
1.00002
1.00004
1.00008
1.00018
1.0004
1.00088
1.00198
1.00435
1
1
1
1
1
1
1
1
1
1
1
1
1
1
1
1
1
1
1
1
1
1
1
1
1
1
1
1
1
1
1
1.00001
1.00002
1.00003
1.00007
1.00014
1.0003
1.00064
1.00145
1.00295
1
1
1
1
1
1
1
1
1
1
1
1
1
1
1
1
1
1
1
1
1
1
1
1
1
1
1
1
1
1
1
1.00001
1.00002
1.00004
1.00007
1.00014
1.00029
1.00059
1.00127
1.00238
1
1
1
1
1
1
1
1
1
1
1
1
1
1
1
1
1
1
1
1
1
1
1
1
1
1
1
1
1
1
1
1.00001
1.00002
1.00004
1.00008
1.00017
1.00035
1.00071
1.00151
1.00288
1
1
1
1
1
1
1
1
1
1
1
1
1
1
1
1
1
1
1
1
1
1
1
1
1
1
1
1
1
1
1
1.00001
1.00002
1.00003
1.00007
1.00015
1.00032
1.00065
1.00139
1.0027
1
1
1
1
1
1
1
1
1
1
1
1
1
1
1
1
1
1
1
1
1
1
1
1
1
1
1
1
1
1
1
1
1.00001
1.00002
1.00005
1.0001
1.00022
1.00048
1.00107
1.00212
1
1
1
1
1
1
1
1
1
1
1
1
1
1
1
1
1
1
1
1
1
1
1
1
1
1
1
1
1
1
1
1
1.00001
1.00001
1.00003
1.00006
1.00012
1.00023
1.00055
1.00101
1
1
1
1
1
1
1
1
1
1
1
1
1
1
1
1
1
1
1
1
1
1
1
1
1
1
1
1
1
1
1
1
1.00001
1.00002
1.00003
1.00006
1.00013
1.00026
1.00057
1.00101
1
1
1
1
1
1
1
1
1
1
1
1
1
1
1
1
1
1
1
1
1
1
1
1
1
1
1
1
1
1
1
1
1.00001
1.00002
1.00003
1.00007
1.00014
1.00028
1.00063
1.00114
1.92025
2.0534
2.30398
2.29685
2.37251
2.50659
2.5371
2.53601
2.48795
2.46609
2.49598
2.55904
2.4895
2.44958
2.44987
2.45978
2.45106
2.42401
2.51479
2.44194
2.49713
2.43967
2.45024
2.51134
2.64867
2.54317
2.59737
2.81341
2.78077
2.75744
2.80922
2.84028
3.11491
3.04697
2.78167
2.47305
2.37993
2.32164
2.18507
2.18363
2.06442
2.13637
2.30796
2.27614
2.33558
2.45469
2.53654
2.5968
2.5511
2.45243
2.48914
2.50349
2.4735
2.42214
2.3614
2.34624
2.36548
2.41277
2.37823
2.42073
2.42884
2.4336
2.45192
2.4466
2.50118
2.52015
2.60374
2.7219
2.80772
2.82758
2.75351
2.54239
2.66757
3.0203
2.7759
2.38578
2.02761
1.83507
1.38413
1.26915
2.2317
2.25277
2.33304
2.29256
2.30548
2.36948
2.50319
2.52266
2.40523
2.32447
2.32588
2.34371
2.37738
2.37071
2.35879
2.29668
2.28155
2.28195
2.302
2.29273
2.2919
2.31477
2.35613
2.44809
2.47676
2.47956
2.50031
2.58614
2.6409
2.5893
2.5565
2.54681
2.62741
2.76817
2.82414
2.79525
2.63803
2.62181
2.65661
2.548
2.23916
2.25289
2.30571
2.29248
2.2454
2.28583
2.42026
2.46036
2.382
2.29007
2.2251
2.23211
2.28134
2.28108
2.27406
2.23359
2.15392
2.11271
2.15598
2.10831
2.0868
2.09906
2.13487
2.28541
2.33627
2.33474
2.35674
2.41613
2.47552
2.541
2.5665
2.4575
2.54556
2.61982
2.76649
2.9688
2.90918
2.75431
2.64799
2.77789
2.18571
2.22164
2.22756
2.16468
2.16216
2.22983
2.30688
2.36384
2.37136
2.33491
2.21393
2.17701
2.18835
2.23859
2.24454
2.22617
2.17297
2.11189
2.07298
2.08666
2.0767
2.11309
2.15912
2.18797
2.29021
2.32156
2.35409
2.38784
2.36637
2.37718
2.39676
2.47185
2.44516
2.43267
2.50381
2.58256
2.85281
2.88724
2.67185
2.87212
2.08001
2.11933
2.11785
2.06431
2.07605
2.1225
2.20877
2.28819
2.31364
2.31333
2.22171
2.14139
2.13592
2.16057
2.20179
2.24556
2.20848
2.15232
2.13597
2.06804
2.00136
1.98767
2.05301
2.0804
2.1069
2.20687
2.22679
2.30911
2.32289
2.32319
2.35292
2.38486
2.38342
2.4308
2.40657
2.48692
2.53292
2.71672
2.56672
2.81191
2.01952
2.02801
2.0293
2.00197
2.0086
2.02419
2.08754
2.19529
2.2423
2.24841
2.19102
2.06069
2.05662
2.20945
2.22897
2.18685
2.18687
2.16464
2.13868
2.09351
2.01154
2.00787
1.98853
1.97677
2.02672
2.08618
2.11078
2.22126
2.26665
2.28809
2.31587
2.31748
2.28332
2.35245
2.44571
2.38629
2.44838
2.51632
2.61002
2.45032
2.00199
1.98404
1.97961
1.95923
1.95328
1.95265
2.00622
2.11325
2.20659
2.20444
2.14492
2.11051
2.06151
2.04715
2.17555
2.16925
2.14685
2.15733
2.18417
2.18192
2.07571
2.04896
2.04802
1.97173
2.03718
2.03999
2.03284
2.05495
2.08787
2.18503
2.25619
2.24831
2.25619
2.29781
2.40859
2.34956
2.45248
2.40033
2.29197
2.29149
2.00764
1.96439
1.96003
1.94433
1.92208
1.91633
1.95923
2.06362
2.14632
2.13391
2.0956
2.08017
2.07766
2.05982
2.01874
2.11991
2.13559
2.12968
2.16321
2.22626
2.20313
2.09444
2.09166
2.05735
2.02088
1.97995
2.04668
2.08026
2.10402
2.15561
2.27344
2.33242
2.23893
2.22844
2.42154
2.40798
2.36945
2.41316
2.25287
2.19004
2.03394
1.96153
1.94943
1.93394
1.88346
1.88532
1.90164
1.99615
2.09998
2.12185
2.09446
2.05513
2.01344
1.99876
2.00381
2.00283
2.09199
2.11721
2.14274
2.19432
2.17899
2.18819
2.21034
2.1248
2.03789
1.99994
2.0037
2.02669
2.11022
2.20088
2.22409
2.34971
2.32948
2.24842
2.29486
2.28831
2.27905
2.37255
2.39938
2.31535
2.02563
1.97009
1.9228
1.89343
1.86053
1.85591
1.91613
2.03809
2.11431
2.10434
2.04221
1.97965
1.94824
1.89538
1.88308
1.97455
2.04406
2.07398
2.07307
2.1365
2.20596
2.1918
2.2235
2.23694
2.09779
2.03286
2.08265
2.03746
2.05351
2.08844
2.09881
2.15149
2.28537
2.19741
2.31165
2.30843
2.24728
2.29004
2.21993
2.07013
1.92029
1.93394
1.88124
1.83212
1.83508
1.84257
1.91668
2.04455
2.0906
2.0745
2.01968
1.94561
1.88177
1.85357
1.84764
1.86967
1.9924
1.95313
1.99571
2.12241
2.16526
2.22249
2.20389
2.12002
2.11445
2.09212
1.98508
2.00591
1.98015
1.97481
1.99048
2.11495
2.2236
2.39138
2.34289
2.31075
2.18158
2.14236
2.14975
2.00963
1.83366
1.87793
1.8643
1.8113
1.81083
1.85323
1.91415
2.01064
2.05968
2.04415
2.00099
1.93147
1.88502
1.88126
1.86056
1.87124
1.96402
1.89364
1.88785
1.99837
2.10815
2.12619
2.16522
2.16973
2.29376
2.14822
2.0369
1.99787
1.93003
1.91919
1.98751
2.21614
2.27397
2.31562
2.3545
2.19968
2.16632
2.17203
2.3498
2.36083
1.78492
1.82269
1.82363
1.86747
1.85468
1.89925
1.90775
1.9257
1.97315
2.05384
2.01251
1.9688
1.93057
1.88857
1.85123
1.86272
1.95963
1.85124
1.81073
1.87549
1.97741
2.04478
2.16753
2.27605
2.19832
2.10897
2.09338
2.01292
1.91208
1.93693
2.11811
2.16129
2.23045
2.21231
2.15759
2.1825
2.11324
2.1572
2.21913
2.22811
1.73457
1.80845
1.83086
1.86889
1.84216
1.87525
1.8835
1.88943
1.9491
1.99429
2.05717
1.98977
1.92629
1.88421
1.88716
1.92015
1.95548
1.83015
1.80563
1.80793
1.89145
1.94454
2.05581
2.17957
2.14779
2.12281
2.1659
2.05319
1.94102
1.96421
2.0033
2.15077
2.124
2.04606
2.03217
2.11414
2.18892
2.11387
2.04656
2.24348
1.68328
1.82323
1.84155
1.83204
1.85172
1.88741
1.87137
1.89212
1.9054
1.93354
1.9976
1.94519
1.91736
1.91104
1.95477
1.93816
1.90065
1.88081
1.80202
1.78859
1.86952
1.93298
2.0802
2.16697
2.11055
2.09073
2.14881
2.1008
1.97074
1.94401
1.97734
2.03487
2.02161
1.99606
2.00162
2.14108
2.11832
1.99981
1.98371
2.11086
1.55772
1.75838
1.79941
1.82567
1.86481
1.89203
1.86475
1.84321
1.83689
1.89864
1.91551
1.88261
1.89071
1.95431
1.9588
1.90678
1.90259
1.85164
1.84117
1.82865
1.85321
1.88566
2.08241
2.06142
2.07285
2.15539
2.17314
2.02999
1.96262
1.94329
1.99484
1.97965
1.98704
2.05046
2.01566
2.04744
2.09409
1.93923
1.98889
2.17144
1.47521
1.71351
1.77317
1.80948
1.83072
1.82896
1.77669
1.76903
1.82792
1.85972
1.8315
1.84665
1.89716
1.93938
1.90264
1.89884
1.86145
1.84467
1.84591
1.81896
1.82073
1.86401
1.9812
2.10953
2.1458
2.19081
2.08946
2.03435
1.96561
1.97359
1.98571
1.92074
1.91682
2.04551
2.03997
2.01475
1.9945
1.89467
1.99752
2.33256
1.3911
1.63397
1.72595
1.761
1.76125
1.73059
1.72781
1.78066
1.80352
1.77469
1.78961
1.85768
1.89858
1.8321
1.86705
1.89795
1.8522
1.8325
1.80104
1.78853
1.85867
1.80753
1.88328
2.10131
2.164
2.20681
2.09559
2.04969
2.00803
2.03337
2.00877
1.91586
1.91235
2.02225
2.05624
2.13374
2.13942
1.87002
2.01607
2.1669
1.34611
1.58783
1.6644
1.68604
1.69177
1.69219
1.70903
1.72167
1.73376
1.74875
1.77756
1.84684
1.78961
1.77849
1.87155
1.86749
1.81622
1.79103
1.77517
1.86781
1.83054
1.75897
1.83963
2.08789
2.11867
2.15751
2.10539
2.05904
2.02922
2.06936
2.20526
2.11507
2.01449
1.94909
1.99383
2.00995
2.13631
2.0225
1.94496
1.95283
1.292
1.4795
1.58844
1.62924
1.63969
1.65198
1.66203
1.6865
1.73125
1.77073
1.78647
1.71966
1.71002
1.79155
1.86468
1.78617
1.77526
1.76219
1.83833
1.8022
1.71717
1.73736
1.90383
2.20788
2.10606
2.13212
2.15178
2.01107
1.98662
1.98781
2.10224
2.10242
2.00782
1.9469
1.95957
1.98773
1.93742
1.96206
1.97702
1.89036
1.24928
1.33918
1.5184
1.56823
1.59786
1.6224
1.64907
1.68521
1.71691
1.73884
1.68307
1.65468
1.71162
1.83796
1.76136
1.75919
1.75124
1.82689
1.81395
1.69318
1.70791
1.79854
2.00873
2.13002
2.09272
2.05945
2.09583
2.11319
2.01827
2.04518
2.07269
2.138
2.03139
2.02601
2.04616
2.00596
1.86442
1.8152
1.90932
1.90195
1.23464
1.30584
1.41592
1.47372
1.51187
1.57694
1.62629
1.65847
1.67878
1.64433
1.62591
1.68397
1.79799
1.72219
1.72337
1.74139
1.84356
1.85809
1.7225
1.71606
1.81435
1.89476
1.96603
2.04952
2.00447
2.0035
2.12822
2.12294
2.0581
2.06729
2.08745
2.25122
2.17267
2.09928
2.09537
1.9839
1.82463
1.80813
1.79441
1.97154
1.16151
1.30446
1.45343
1.47414
1.51045
1.55632
1.60376
1.61665
1.59841
1.59201
1.66336
1.74305
1.67431
1.70891
1.79286
1.8347
1.78349
1.71619
1.70236
1.79626
1.84889
1.81656
1.84668
1.9908
1.96144
2.04113
2.13383
2.06657
2.09935
2.18731
2.21211
2.33398
2.28208
2.05724
1.98646
1.98161
1.83273
1.77011
1.86127
2.18045
1.12327
1.21175
1.44562
1.48514
1.49566
1.53149
1.5676
1.56218
1.56926
1.61773
1.68278
1.64417
1.66997
1.77357
1.77766
1.70844
1.68999
1.72901
1.77674
1.76216
1.73765
1.75666
1.78075
1.92514
1.97532
2.11188
2.1104
2.1551
2.16039
2.18395
2.25988
2.29133
2.23998
2.03945
1.92437
1.86451
1.87342
1.79137
1.85645
2.03434
1.10014
1.13561
1.33171
1.49795
1.48787
1.51413
1.54443
1.55139
1.56795
1.59493
1.60103
1.62311
1.73542
1.74328
1.64997
1.63738
1.70481
1.7377
1.6961
1.68155
1.69124
1.72975
1.79494
1.86876
2.06822
2.0219
2.13677
2.1543
2.1482
2.21231
2.22857
2.18415
2.10944
2.01648
2.00625
1.92977
1.89689
1.83518
1.81
1.84677
1.07509
1.1111
1.24789
1.40168
1.50538
1.52223
1.51446
1.52624
1.53311
1.54196
1.5861
1.70768
1.69644
1.60984
1.62089
1.69352
1.69397
1.62799
1.63366
1.63152
1.6587
1.71822
1.84879
1.96207
1.85953
1.90047
2.0388
2.04079
2.01182
2.05551
2.0585
2.04927
2.06575
2.00287
1.96049
1.93962
1.79587
1.79912
1.7724
1.77774
1.04352
1.09244
1.19777
1.36038
1.52514
1.4818
1.47941
1.49023
1.52825
1.5944
1.65054
1.62395
1.59669
1.64322
1.67817
1.62862
1.61228
1.65015
1.64191
1.62753
1.67108
1.80241
1.82586
1.78471
1.83342
1.85748
1.82186
1.81374
1.82581
1.92509
2.08646
2.00676
1.96663
1.83853
1.78743
1.8243
1.80189
1.70828
1.76072
1.74782
1.05123
1.09823
1.17631
1.30435
1.50014
1.47154
1.47656
1.5175
1.55408
1.58108
1.57806
1.58933
1.62186
1.62711
1.60873
1.63341
1.67703
1.63673
1.62092
1.69022
1.76598
1.7483
1.70416
1.72683
1.78438
1.68272
1.70448
1.80475
1.95376
2.00507
1.93383
1.87862
1.89099
1.79557
1.67355
1.64624
1.73614
1.74001
1.63183
1.70958
1.0628
1.12616
1.15925
1.30272
1.43368
1.46086
1.52237
1.52614
1.53718
1.55486
1.58776
1.58582
1.58637
1.61472
1.63631
1.63937
1.63932
1.66304
1.68246
1.69447
1.66697
1.66519
1.6687
1.68115
1.68975
1.69781
1.74938
1.76891
1.75173
1.8329
1.83837
1.76622
1.73214
1.81046
1.75759
1.62175
1.61528
1.73809
1.78763
1.66999
1.07422
1.10916
1.15004
1.25846
1.4265
1.44551
1.50619
1.52317
1.5472
1.57538
1.59097
1.55522
1.58214
1.61692
1.62095
1.62792
1.67099
1.64376
1.62937
1.63343
1.6545
1.66543
1.66542
1.6503
1.67973
1.69042
1.60901
1.63374
1.74326
1.79653
1.87745
1.80723
1.67801
1.61475
1.67321
1.65798
1.58367
1.64805
1.69762
1.75215
1.02196
1.08024
1.09571
1.15751
1.33761
1.43322
1.50778
1.54522
1.55411
1.55635
1.54089
1.54631
1.58249
1.60712
1.61704
1.63949
1.63953
1.61501
1.64931
1.66827
1.69194
1.69625
1.66021
1.64739
1.67145
1.67143
1.69045
1.69395
1.77506
1.83945
1.79464
1.7159
1.68387
1.58809
1.54976
1.59095
1.59249
1.53534
1.56014
1.61538
1.015
1.04098
1.08887
1.17901
1.29636
1.37714
1.52609
1.54248
1.53577
1.54089
1.56962
1.56058
1.55431
1.58007
1.5997
1.61428
1.61915
1.62887
1.67158
1.67353
1.64469
1.61762
1.61587
1.65135
1.68169
1.64655
1.66208
1.75703
1.73801
1.64833
1.62765
1.64646
1.58836
1.54794
1.55772
1.56583
1.51872
1.51447
1.51127
1.51873
1.01209
1.03341
1.07547
1.16317
1.29143
1.38242
1.52521
1.52546
1.52611
1.55149
1.54076
1.52457
1.56411
1.57703
1.58829
1.60459
1.62829
1.63367
1.61986
1.58201
1.55412
1.53982
1.54198
1.58656
1.57808
1.55463
1.58052
1.70757
1.6578
1.59006
1.56122
1.57641
1.64931
1.57756
1.53405
1.53589
1.53628
1.53759
1.41558
1.47238
1.01327
1.03666
1.07167
1.13826
1.26997
1.42654
1.49173
1.53104
1.54089
1.52103
1.53048
1.58707
1.59014
1.59233
1.59367
1.58993
1.58556
1.5683
1.53528
1.51808
1.50844
1.494
1.51601
1.55304
1.54092
1.58388
1.62808
1.60346
1.62596
1.63404
1.60705
1.5796
1.56375
1.51032
1.51162
1.52989
1.56786
1.51065
1.45471
1.53808
1.01246
1.03542
1.074
1.14245
1.26645
1.49001
1.46108
1.49682
1.49448
1.48408
1.53808
1.58171
1.5759
1.56579
1.54975
1.53914
1.51136
1.49811
1.49448
1.50727
1.52346
1.52049
1.51117
1.52434
1.5801
1.60387
1.57166
1.59184
1.61021
1.5747
1.55982
1.53601
1.46577
1.42841
1.40921
1.42217
1.53849
1.54603
1.42703
1.41263
1.01088
1.02946
1.06634
1.14511
1.25771
1.39673
1.42316
1.44421
1.48383
1.51159
1.58197
1.58467
1.57159
1.55004
1.52898
1.49828
1.47017
1.45755
1.45998
1.48688
1.50309
1.53257
1.55394
1.54078
1.55081
1.58869
1.59641
1.57052
1.56765
1.48162
1.47457
1.48076
1.46881
1.4853
1.49262
1.45934
1.47454
1.44216
1.4782
1.45838
1.00691
1.01873
1.04406
1.10268
1.21301
1.34971
1.44148
1.48245
1.4971
1.56025
1.57415
1.57269
1.55485
1.54144
1.53941
1.50094
1.48786
1.47204
1.48875
1.51657
1.54071
1.5621
1.54801
1.56586
1.58309
1.58275
1.57541
1.57969
1.5446
1.51126
1.51743
1.51162
1.48386
1.46839
1.4528
1.44955
1.45967
1.44281
1.51621
1.44391
1.00602
1.01408
1.03081
1.06213
1.1355
1.22781
1.33104
1.54226
1.59458
1.58402
1.56163
1.55745
1.53982
1.51107
1.48089
1.45291
1.4354
1.41162
1.44967
1.46664
1.49767
1.55089
1.56207
1.57136
1.582
1.57994
1.57575
1.57017
1.55798
1.56281
1.51893
1.46314
1.46156
1.4281
1.39573
1.42466
1.41787
1.43151
1.4451
1.44744
1.0067
1.01533
1.03304
1.06752
1.13165
1.26685
1.37595
1.56718
1.56503
1.56798
1.54396
1.51281
1.47695
1.45827
1.45482
1.44136
1.44796
1.44307
1.39235
1.42325
1.52792
1.47189
1.44913
1.48661
1.6
1.62573