/*--------------------------------*- C++ -*----------------------------------*\
  =========                 |
  \\      /  F ield         | OpenFOAM: The Open Source CFD Toolbox
   \\    /   O peration     | Website:  https://openfoam.org
    \\  /    A nd           | Version:  6.0
     \\/     M anipulation  |
\*---------------------------------------------------------------------------*/
FoamFile
{
    version     2.0;
    format      ascii;
    class       volVectorField;
    location    "2";
    object      U;
}
// * * * * * * * * * * * * * * * * * * * * * * * * * * * * * * * * * * * * * //

dimensions      [0 1 -1 0 0 0 0];

internalField   nonuniform List<vector> 
4800
(
(3 -7.86172e-14 0)
(3 -4.02204e-13 0)
(3 -1.10263e-12 0)
(3 -2.79897e-12 0)
(3 -7.11516e-12 0)
(3 -1.7813e-11 0)
(3 -4.32286e-11 0)
(3 -1.01261e-10 0)
(3 -2.29141e-10 0)
(3 -5.01866e-10 0)
(3 -1.06603e-09 0)
(3 -2.20072e-09 0)
(2.99999 -4.42623e-09 0)
(2.99998 -8.69748e-09 0)
(2.99996 -1.67483e-08 0)
(2.99992 -3.1701e-08 0)
(2.99984 -5.91316e-08 0)
(2.99968 -1.08888e-07 0)
(2.99935 -1.98119e-07 0)
(2.99866 -3.56247e-07 0)
(2.99724 -6.33493e-07 0)
(2.99433 -1.11781e-06 0)
(2.9883 -1.97715e-06 0)
(2.97575 -3.58523e-06 0)
(2.9492 -6.92209e-06 0)
(2.89103 -1.48622e-05 0)
(2.7529 -3.6374e-05 0)
(2.35381 -0.000106353 0)
(0.804973 -0.00037108 0)
(-0.447379 0.00235101 0)
(-0.355844 0.00717561 0)
(0.100126 0.00931425 0)
(0.983189 -0.599367 0)
(1.397 -0.385159 0)
(1.79674 -0.50677 0)
(1.59688 -0.582932 0)
(-0.777489 -0.201901 0)
(-1.20122 -0.182513 0)
(-1.54728 0.0780714 0)
(-1.65216 0.127403 0)
(3 -2.1807e-13 0)
(3 -1.08508e-12 0)
(3 -2.85951e-12 0)
(3 -7.08659e-12 0)
(3 -1.79702e-11 0)
(3 -4.54947e-11 0)
(3 -1.12442e-10 0)
(3 -2.69272e-10 0)
(3 -6.24117e-10 0)
(3 -1.40063e-09 0)
(3 -3.04544e-09 0)
(3 -6.42191e-09 0)
(2.99999 -1.31532e-08 0)
(2.99998 -2.62298e-08 0)
(2.99996 -5.11051e-08 0)
(2.99992 -9.77307e-08 0)
(2.99984 -1.84442e-07 0)
(2.99968 -3.4544e-07 0)
(2.99934 -6.45005e-07 0)
(2.99866 -1.20363e-06 0)
(2.99724 -2.24445e-06 0)
(2.99432 -4.17552e-06 0)
(2.9883 -7.74765e-06 0)
(2.97575 -1.44208e-05 0)
(2.9492 -2.74154e-05 0)
(2.89102 -5.514e-05 0)
(2.75288 -0.00012304 0)
(2.35371 -0.000329782 0)
(0.804974 -0.00103297 0)
(-0.446526 0.00908039 0)
(-0.340349 0.0240018 0)
(-0.000132146 0.0877273 0)
(0.413353 -0.201757 0)
(1.06467 -0.310464 0)
(1.37166 -0.308349 0)
(1.20896 -0.412901 0)
(-0.416896 0.00824875 0)
(-1.19975 0.0425161 0)
(-1.66482 0.30898 0)
(-1.67567 0.188661 0)
(3 -2.98353e-13 0)
(3 -1.38856e-12 0)
(3 -3.34788e-12 0)
(3 -8.0381e-12 0)
(3 -2.08508e-11 0)
(3 -5.50197e-11 0)
(3 -1.41948e-10 0)
(3 -3.54229e-10 0)
(3 -8.54325e-10 0)
(3 -1.99313e-09 0)
(3 -4.50188e-09 0)
(3 -9.85282e-09 0)
(2.99999 -2.09184e-08 0)
(2.99998 -4.31547e-08 0)
(2.99996 -8.67247e-08 0)
(2.99992 -1.70375e-07 0)
(2.99984 -3.28756e-07 0)
(2.99968 -6.26758e-07 0)
(2.99934 -1.1883e-06 0)
(2.99866 -2.25437e-06 0)
(2.99724 -4.29839e-06 0)
(2.99432 -8.25075e-06 0)
(2.9883 -1.59319e-05 0)
(2.97575 -3.09201e-05 0)
(2.94919 -6.04992e-05 0)
(2.891 -0.000120899 0)
(2.75283 -0.000254394 0)
(2.35354 -0.000607713 0)
(0.805974 -0.00152626 0)
(-0.442973 0.0193063 0)
(-0.325348 0.0451204 0)
(-0.0414975 0.117811 0)
(0.303308 0.021268 0)
(0.669301 -0.187461 0)
(0.984381 -0.251154 0)
(0.842754 -0.10963 0)
(-0.255119 0.0721147 0)
(-1.69811 0.350678 0)
(-1.83704 0.47729 0)
(-1.68651 0.304744 0)
(3 -2.87774e-13 0)
(3 -1.13069e-12 0)
(3 -2.04222e-12 0)
(3 -4.47376e-12 0)
(3 -1.32094e-11 0)
(3 -4.06017e-11 0)
(3 -1.17782e-10 0)
(3 -3.2148e-10 0)
(3 -8.34732e-10 0)
(3 -2.07841e-09 0)
(3 -4.98507e-09 0)
(3 -1.15479e-08 0)
(2.99999 -2.58839e-08 0)
(2.99998 -5.62303e-08 0)
(2.99996 -1.18607e-07 0)
(2.99992 -2.43446e-07 0)
(2.99984 -4.87588e-07 0)
(2.99968 -9.56378e-07 0)
(2.99934 -1.84555e-06 0)
(2.99865 -3.5235e-06 0)
(2.99724 -6.69781e-06 0)
(2.99432 -1.27583e-05 0)
(2.98829 -2.44908e-05 0)
(2.97574 -4.7581e-05 0)
(2.94917 -9.39016e-05 0)
(2.89096 -0.000189356 0)
(2.75274 -0.000396326 0)
(2.35333 -0.000904816 0)
(0.809344 -0.00194792 0)
(-0.435961 0.0296952 0)
(-0.314997 0.064304 0)
(-0.0487161 0.119516 0)
(0.254664 0.125474 0)
(0.538315 0.00623953 0)
(0.696143 -0.187352 0)
(0.399444 0.0788143 0)
(-1.73291 -0.230638 0)
(-2.03942 0.461455 0)
(-1.93585 0.617054 0)
(-1.72646 0.487163 0)
(3 -5.91199e-14 0)
(3 2.91659e-13 0)
(3 2.37937e-12 0)
(3 5.63641e-12 0)
(3 7.1178e-12 0)
(3 -1.5919e-12 0)
(3 -4.35627e-11 0)
(3 -1.80123e-10 0)
(3 -5.68584e-10 0)
(3 -1.59803e-09 0)
(3 -4.19647e-09 0)
(3 -1.04986e-08 0)
(2.99999 -2.52421e-08 0)
(2.99998 -5.858e-08 0)
(2.99996 -1.31556e-07 0)
(2.99992 -2.86455e-07 0)
(2.99984 -6.05898e-07 0)
(2.99968 -1.2476e-06 0)
(2.99934 -2.50729e-06 0)
(2.99865 -4.93374e-06 0)
(2.99724 -9.54358e-06 0)
(2.99432 -1.82357e-05 0)
(2.98829 -3.46227e-05 0)
(2.97573 -6.57748e-05 0)
(2.94914 -0.000126078 0)
(2.89091 -0.000246465 0)
(2.75261 -0.000500187 0)
(2.35305 -0.00109728 0)
(0.814397 -0.0020956 0)
(-0.426059 0.0385437 0)
(-0.304442 0.0801527 0)
(-0.0440978 0.127709 0)
(0.242628 0.156887 0)
(0.476076 0.114168 0)
(0.667863 -0.0646755 0)
(0.123429 0.367296 0)
(-2.05454 0.329905 0)
(-2.11314 0.626798 0)
(-2.03938 0.710798 0)
(-1.83214 0.647168 0)
(3 7.40404e-13 0)
(3 4.55612e-12 0)
(3 1.38278e-11 0)
(3 2.98359e-11 0)
(3 5.30135e-11 0)
(3 8.07944e-11 0)
(3 1.01144e-10 0)
(3 7.59759e-11 0)
(3 -1.00552e-10 0)
(3 -7.05826e-10 0)
(3 -2.44235e-09 0)
(3 -7.04008e-09 0)
(2.99999 -1.86381e-08 0)
(2.99998 -4.68333e-08 0)
(2.99996 -1.13146e-07 0)
(2.99992 -2.6422e-07 0)
(2.99984 -5.9784e-07 0)
(2.99968 -1.31266e-06 0)
(2.99934 -2.80097e-06 0)
(2.99865 -5.8186e-06 0)
(2.99723 -1.17934e-05 0)
(2.99431 -2.33856e-05 0)
(2.98828 -4.55167e-05 0)
(2.97571 -8.73181e-05 0)
(2.94911 -0.000166043 0)
(2.89084 -0.000315836 0)
(2.75248 -0.000612095 0)
(2.35286 -0.0012568 0)
(0.821349 -0.0020454 0)
(-0.41384 0.0464662 0)
(-0.291926 0.0936053 0)
(-0.0353546 0.14247 0)
(0.242968 0.174815 0)
(0.438786 0.168162 0)
(0.56543 0.0671617 0)
(-0.277794 0.601812 0)
(-2.20032 0.609918 0)
(-2.1804 0.769143 0)
(-2.15708 0.799136 0)
(-1.9941 0.758491 0)
(3 1.88063e-12 0)
(3 1.04112e-11 0)
(3 2.92257e-11 0)
(3 6.37995e-11 0)
(3 1.22719e-10 0)
(3 2.17529e-10 0)
(3 3.60097e-10 0)
(3 5.53435e-10 0)
(3 7.66367e-10 0)
(3 8.68831e-10 0)
(3 4.6999e-10 0)
(3 -1.48456e-09 0)
(2.99999 -7.70409e-09 0)
(2.99998 -2.49392e-08 0)
(2.99996 -6.95488e-08 0)
(2.99992 -1.80007e-07 0)
(2.99984 -4.43901e-07 0)
(2.99968 -1.05397e-06 0)
(2.99934 -2.42026e-06 0)
(2.99865 -5.38728e-06 0)
(2.99723 -1.16432e-05 0)
(2.99431 -2.44725e-05 0)
(2.98826 -5.01153e-05 0)
(2.97569 -0.00010019 0)
(2.94907 -0.000196053 0)
(2.89076 -0.000377297 0)
(2.75232 -0.000723895 0)
(2.35266 -0.00143246 0)
(0.829674 -0.00210784 0)
(-0.399873 0.0535669 0)
(-0.27773 0.105818 0)
(-0.0249957 0.158527 0)
(0.245567 0.196374 0)
(0.421147 0.21178 0)
(0.569893 0.184364 0)
(-0.780082 0.577403 0)
(-2.31052 0.79391 0)
(-2.23001 0.857971 0)
(-2.20918 0.857245 0)
(-2.08682 0.786576 0)
(3 2.26433e-12 0)
(3 1.22448e-11 0)
(3 3.42204e-11 0)
(3 7.82164e-11 0)
(3 1.63475e-10 0)
(3 3.24172e-10 0)
(3 6.17627e-10 0)
(3 1.13349e-09 0)
(3 1.99899e-09 0)
(3 3.36662e-09 0)
(3 5.35058e-09 0)
(3 7.8292e-09 0)
(2.99999 9.91128e-09 0)
(2.99998 8.56736e-09 0)
(2.99996 -4.79279e-09 0)
(2.99992 -5.26868e-08 0)
(2.99984 -1.91436e-07 0)
(2.99968 -5.56735e-07 0)
(2.99934 -1.46401e-06 0)
(2.99865 -3.62034e-06 0)
(2.99723 -8.55375e-06 0)
(2.9943 -1.94483e-05 0)
(2.98825 -4.27039e-05 0)
(2.97566 -9.07215e-05 0)
(2.94901 -0.000186657 0)
(2.89065 -0.000372536 0)
(2.7521 -0.000728167 0)
(2.35234 -0.00143222 0)
(0.838512 -0.00190178 0)
(-0.384256 0.0605107 0)
(-0.262031 0.118485 0)
(-0.0127489 0.175634 0)
(0.251033 0.22289 0)
(0.417029 0.257157 0)
(0.53592 0.278543 0)
(-1.08287 0.218167 0)
(-2.27774 0.806397 0)
(-2.225 0.937058 0)
(-2.19277 0.900009 0)
(-1.76008 0.811366 0)
(3 1.30867e-12 0)
(3 7.15419e-12 0)
(3 2.10351e-11 0)
(3 5.35373e-11 0)
(3 1.27714e-10 0)
(3 2.91254e-10 0)
(3 6.38946e-10 0)
(3 1.35139e-09 0)
(3 2.75814e-09 0)
(3 5.43282e-09 0)
(3 1.032e-08 0)
(3 1.88678e-08 0)
(2.99999 3.30764e-08 0)
(2.99998 5.52208e-08 0)
(2.99996 8.66553e-08 0)
(2.99992 1.24251e-07 0)
(2.99984 1.50925e-07 0)
(2.99968 1.11641e-07 0)
(2.99934 -1.45379e-07 0)
(2.99865 -1.00763e-06 0)
(2.99722 -3.41285e-06 0)
(2.99429 -9.5244e-06 0)
(2.98824 -2.40933e-05 0)
(2.97563 -5.6997e-05 0)
(2.94896 -0.000127499 0)
(2.89054 -0.000270575 0)
(2.75185 -0.000548719 0)
(2.35191 -0.00107497 0)
(0.847383 -0.000876321 0)
(-0.366852 0.0680319 0)
(-0.244722 0.132495 0)
(0.0014709 0.195051 0)
(0.259134 0.251044 0)
(0.424048 0.298831 0)
(0.537546 0.364256 0)
(-0.677497 -0.0735706 0)
(-2.14263 0.847695 0)
(-2.13681 1.02189 0)
(-1.99932 0.963824 0)
(-1.01546 0.916489 0)
(3 -3.60179e-13 0)
(3 -1.46691e-12 0)
(3 -1.41128e-12 0)
(3 6.32222e-12 0)
(3 3.822e-11 0)
(3 1.34107e-10 0)
(3 3.84531e-10 0)
(3 9.85652e-10 0)
(3 2.34669e-09 0)
(3 5.29307e-09 0)
(3 1.14346e-08 0)
(3 2.37996e-08 0)
(2.99999 4.78622e-08 0)
(2.99998 9.30789e-08 0)
(2.99996 1.74948e-07 0)
(2.99992 3.17298e-07 0)
(2.99984 5.53818e-07 0)
(2.99968 9.2625e-07 0)
(2.99934 1.47291e-06 0)
(2.99865 2.19167e-06 0)
(2.99722 2.93788e-06 0)
(2.99429 3.16575e-06 0)
(2.98823 1.32574e-06 0)
(2.97562 -6.37741e-06 0)
(2.94892 -2.80533e-05 0)
(2.89046 -7.80833e-05 0)
(2.75165 -0.000176055 0)
(2.35155 -0.000298302 0)
(0.856303 0.00127306 0)
(-0.347406 0.0768651 0)
(-0.225352 0.147567 0)
(0.0175566 0.215724 0)
(0.269664 0.275306 0)
(0.443921 0.326146 0)
(0.556815 0.412558 0)
(-0.136677 0.158012 0)
(-1.8847 0.912065 0)
(-1.78416 1.0813 0)
(-1.09742 0.874809 0)
(-0.187626 0.58579 0)
(3 -1.475e-12 0)
(3 -7.05362e-12 0)
(3 -1.59161e-11 0)
(3 -2.69031e-11 0)
(3 -3.47173e-11 0)
(3 -2.09829e-11 0)
(3 6.57228e-11 0)
(3 3.55297e-10 0)
(3 1.15687e-09 0)
(3 3.17546e-09 0)
(3 7.96472e-09 0)
(3 1.88453e-08 0)
(2.99999 4.27083e-08 0)
(2.99998 9.34302e-08 0)
(2.99996 1.98075e-07 0)
(2.99992 4.07661e-07 0)
(2.99984 8.14999e-07 0)
(2.99968 1.58293e-06 0)
(2.99934 2.9875e-06 0)
(2.99865 5.48357e-06 0)
(2.99723 9.80809e-06 0)
(2.99429 1.71586e-05 0)
(2.98824 2.95424e-05 0)
(2.97562 5.0574e-05 0)
(2.94892 8.76653e-05 0)
(2.89043 0.000159274 0)
(2.75157 0.000320568 0)
(2.35153 0.000832263 0)
(0.866082 0.00471096 0)
(-0.325549 0.0887133 0)
(-0.203968 0.164023 0)
(0.0342584 0.232498 0)
(0.278531 0.296059 0)
(0.450355 0.343413 0)
(0.527044 0.402918 0)
(-0.180451 0.247005 0)
(-1.53104 1.04026 0)
(-1.10665 1.1084 0)
(-0.261477 0.828489 0)
(0.449181 0.258489 0)
(3 -1.05177e-12 0)
(3 -4.66217e-12 0)
(3 -9.68554e-12 0)
(3 -1.74244e-11 0)
(3 -2.99825e-11 0)
(3 -4.80838e-11 0)
(3 -6.41072e-11 0)
(3 -4.02065e-11 0)
(3 1.5097e-10 0)
(3 8.73381e-10 0)
(3 3.07383e-09 0)
(3 9.06824e-09 0)
(2.99999 2.42785e-08 0)
(2.99998 6.09759e-08 0)
(2.99996 1.46149e-07 0)
(2.99992 3.37596e-07 0)
(2.99984 7.55857e-07 0)
(2.99968 1.64558e-06 0)
(2.99934 3.48984e-06 0)
(2.99865 7.21758e-06 0)
(2.99723 1.45741e-05 0)
(2.9943 2.87856e-05 0)
(2.98824 5.57937e-05 0)
(2.97564 0.000106756 0)
(2.94895 0.000203881 0)
(2.89049 0.00039686 0)
(2.7517 0.000817507 0)
(2.35224 0.00199144 0)
(0.879557 0.00842182 0)
(-0.30046 0.10151 0)
(-0.182241 0.180683 0)
(0.0520729 0.24564 0)
(0.28845 0.319225 0)
(0.45437 0.365726 0)
(0.507897 0.41321 0)
(-0.0130543 0.344818 0)
(-1.03535 1.22991 0)
(-0.42371 1.14331 0)
(0.387452 0.834782 0)
(0.594753 0.373101 0)
(3 7.54962e-13 0)
(3 4.84076e-12 0)
(3 1.54175e-11 0)
(3 3.45448e-11 0)
(3 6.35004e-11 0)
(3 1.00266e-10 0)
(3 1.36208e-10 0)
(3 1.56219e-10 0)
(3 1.54071e-10 0)
(3 1.94173e-10 0)
(3 5.96172e-10 0)
(3 2.42119e-09 0)
(2.99999 8.66708e-09 0)
(2.99998 2.70855e-08 0)
(2.99996 7.66394e-08 0)
(2.99992 2.02003e-07 0)
(2.99984 5.05546e-07 0)
(2.99968 1.21667e-06 0)
(2.99934 2.83914e-06 0)
(2.99865 6.45762e-06 0)
(2.99723 1.43608e-05 0)
(2.99431 3.12848e-05 0)
(2.98826 6.68693e-05 0)
(2.97567 0.000140576 0)
(2.94901 0.000292122 0)
(2.89061 0.000607164 0)
(2.75199 0.0012975 0)
(2.35347 0.00314318 0)
(0.895325 0.0120393 0)
(-0.272834 0.113856 0)
(-0.159895 0.197125 0)
(0.071664 0.25975 0)
(0.301147 0.33349 0)
(0.456554 0.389479 0)
(0.494574 0.429398 0)
(0.165311 0.43497 0)
(-0.441093 1.37992 0)
(0.133767 1.17032 0)
(0.672708 0.85419 0)
(0.604404 0.505293 0)
(3 2.63912e-12 0)
(3 1.48085e-11 0)
(3 4.28845e-11 0)
(3 9.79378e-11 0)
(3 1.9749e-10 0)
(3 3.65238e-10 0)
(3 6.288e-10 0)
(3 1.01482e-09 0)
(3 1.54407e-09 0)
(3 2.2409e-09 0)
(3 3.20288e-09 0)
(3 4.85248e-09 0)
(2.99999 8.66816e-09 0)
(2.99998 1.90897e-08 0)
(2.99996 4.8185e-08 0)
(2.99992 1.26664e-07 0)
(2.99984 3.29277e-07 0)
(2.99968 8.32511e-07 0)
(2.99934 2.04433e-06 0)
(2.99865 4.89374e-06 0)
(2.99724 1.14736e-05 0)
(2.99432 2.64602e-05 0)
(2.98828 6.02369e-05 0)
(2.97571 0.000135786 0)
(2.94911 0.000304296 0)
(2.89084 0.000684018 0)
(2.75255 0.00157775 0)
(2.35562 0.00407449 0)
(0.914854 0.0158006 0)
(-0.242323 0.128401 0)
(-0.136708 0.215862 0)
(0.0895748 0.276716 0)
(0.3162 0.339531 0)
(0.461932 0.40326 0)
(0.493923 0.449253 0)
(0.312287 0.514991 0)
(0.0902152 1.35627 0)
(0.503093 1.15456 0)
(0.724809 0.84562 0)
(0.563079 0.546562 0)
(3 3.26718e-12 0)
(3 1.85116e-11 0)
(3 5.53136e-11 0)
(3 1.34585e-10 0)
(3 2.95203e-10 0)
(3 6.04548e-10 0)
(3 1.17428e-09 0)
(3 2.18175e-09 0)
(3 3.89822e-09 0)
(3 6.73083e-09 0)
(3 1.13074e-08 0)
(3 1.8697e-08 0)
(2.99999 3.10219e-08 0)
(2.99998 5.30908e-08 0)
(2.99996 9.65232e-08 0)
(2.99992 1.89677e-07 0)
(2.99984 4.0075e-07 0)
(2.99968 8.90394e-07 0)
(2.99935 2.03006e-06 0)
(2.99866 4.66653e-06 0)
(2.99724 1.07124e-05 0)
(2.99432 2.44691e-05 0)
(2.9883 5.56277e-05 0)
(2.97575 0.000126251 0)
(2.94921 0.00028784 0)
(2.89108 0.000667285 0)
(2.75324 0.00161107 0)
(2.3586 0.00439253 0)
(0.940748 0.017669 0)
(-0.208424 0.139249 0)
(-0.112958 0.233467 0)
(0.106313 0.298038 0)
(0.329847 0.35133 0)
(0.470508 0.406857 0)
(0.501523 0.458241 0)
(0.422427 0.54619 0)
(0.41353 1.11468 0)
(0.647264 1.03876 0)
(0.669204 0.764584 0)
(0.494657 0.487389 0)
(3 3.09597e-12 0)
(3 1.82656e-11 0)
(3 5.7733e-11 0)
(3 1.49116e-10 0)
(3 3.47798e-10 0)
(3 7.60911e-10 0)
(3 1.59078e-09 0)
(3 3.21e-09 0)
(3 6.28692e-09 0)
(3 1.19906e-08 0)
(3 2.23281e-08 0)
(3 4.07289e-08 0)
(2.99999 7.31632e-08 0)
(2.99998 1.30509e-07 0)
(2.99996 2.33901e-07 0)
(2.99992 4.27024e-07 0)
(2.99984 8.04132e-07 0)
(2.99968 1.5728e-06 0)
(2.99935 3.1924e-06 0)
(2.99866 6.67722e-06 0)
(2.99724 1.42598e-05 0)
(2.99433 3.08526e-05 0)
(2.98832 6.73247e-05 0)
(2.97579 0.000148085 0)
(2.9493 0.00032968 0)
(2.8913 0.000751295 0)
(2.75388 0.0017933 0)
(2.36138 0.00483067 0)
(0.965629 0.0187634 0)
(-0.173167 0.145202 0)
(-0.0860893 0.245729 0)
(0.123632 0.316878 0)
(0.341234 0.369278 0)
(0.479018 0.411064 0)
(0.510881 0.451225 0)
(0.483615 0.540627 0)
(0.534216 0.822945 0)
(0.645533 0.82382 0)
(0.556503 0.659734 0)
(0.407575 0.384177 0)
(3 3.31172e-12 0)
(3 2.00878e-11 0)
(3 6.54488e-11 0)
(3 1.72937e-10 0)
(3 4.11603e-10 0)
(3 9.20998e-10 0)
(3 1.98004e-09 0)
(3 4.13966e-09 0)
(3 8.4733e-09 0)
(3 1.70402e-08 0)
(3 3.37247e-08 0)
(3 6.57346e-08 0)
(2.99999 1.26275e-07 0)
(2.99998 2.39428e-07 0)
(2.99996 4.49491e-07 0)
(2.99992 8.3991e-07 0)
(2.99984 1.57348e-06 0)
(2.99968 2.97974e-06 0)
(2.99935 5.74536e-06 0)
(2.99866 1.13269e-05 0)
(2.99725 2.28423e-05 0)
(2.99434 4.70053e-05 0)
(2.98834 9.83945e-05 0)
(2.97584 0.000209201 0)
(2.9494 0.000452852 0)
(2.89156 0.00100724 0)
(2.75459 0.00234874 0)
(2.36424 0.00613071 0)
(0.989176 0.0221755 0)
(-0.137731 0.15448 0)
(-0.057614 0.258618 0)
(0.143923 0.329547 0)
(0.352687 0.390342 0)
(0.484164 0.415684 0)
(0.519214 0.44019 0)
(0.512634 0.508922 0)
(0.548171 0.647153 0)
(0.59126 0.642288 0)
(0.448836 0.550007 0)
(0.332768 0.362431 0)
(3 3.86974e-12 0)
(3 2.37697e-11 0)
(3 7.84309e-11 0)
(3 2.09005e-10 0)
(3 5.0106e-10 0)
(3 1.1306e-09 0)
(3 2.45731e-09 0)
(3 5.2114e-09 0)
(3 1.08652e-08 0)
(3 2.23662e-08 0)
(3 4.55707e-08 0)
(3 9.20098e-08 0)
(2.99999 1.84154e-07 0)
(2.99998 3.65294e-07 0)
(2.99996 7.17954e-07 0)
(2.99992 1.39845e-06 0)
(2.99985 2.70331e-06 0)
(2.99968 5.20212e-06 0)
(2.99935 1.00136e-05 0)
(2.99866 1.93947e-05 0)
(2.99725 3.8011e-05 0)
(2.99436 7.56885e-05 0)
(2.98837 0.000153438 0)
(2.97591 0.000317034 0)
(2.94955 0.000669356 0)
(2.8919 0.00145506 0)
(2.7555 0.00331417 0)
(2.3676 0.00838601 0)
(1.01345 0.0283478 0)
(-0.100811 0.168831 0)
(-0.0289346 0.277367 0)
(0.166077 0.345332 0)
(0.364599 0.40374 0)
(0.485585 0.421757 0)
(0.5215 0.436442 0)
(0.523852 0.472599 0)
(0.535793 0.555875 0)
(0.52927 0.543381 0)
(0.368523 0.475241 0)
(0.277866 0.395189 0)
(3 4.51449e-12 0)
(3 2.80823e-11 0)
(3 9.37383e-11 0)
(3 2.5137e-10 0)
(3 6.05338e-10 0)
(3 1.37326e-09 0)
(3 3.00715e-09 0)
(3 6.44037e-09 0)
(3 1.35877e-08 0)
(3 2.83535e-08 0)
(3 5.86597e-08 0)
(3 1.2052e-07 0)
(2.99999 2.46199e-07 0)
(2.99998 5.00472e-07 0)
(2.99996 1.01269e-06 0)
(2.99992 2.03931e-06 0)
(2.99985 4.08455e-06 0)
(2.99968 8.13262e-06 0)
(2.99935 1.6099e-05 0)
(2.99867 3.17295e-05 0)
(2.99727 6.24542e-05 0)
(2.99438 0.000123333 0)
(2.98842 0.000245671 0)
(2.97601 0.000496342 0)
(2.94977 0.00102319 0)
(2.89238 0.0021714 0)
(2.75672 0.00482472 0)
(2.37187 0.0118449 0)
(1.03946 0.0376683 0)
(-0.0618719 0.187163 0)
(0.00067952 0.300638 0)
(0.186242 0.367942 0)
(0.376208 0.411108 0)
(0.486958 0.436496 0)
(0.520167 0.444763 0)
(0.526084 0.460656 0)
(0.517603 0.50129 0)
(0.475952 0.486294 0)
(0.305895 0.463526 0)
(0.230578 0.443051 0)
(3 5.59408e-12 0)
(3 3.50193e-11 0)
(3 1.17086e-10 0)
(3 3.12305e-10 0)
(3 7.46996e-10 0)
(3 1.68627e-09 0)
(3 3.68674e-09 0)
(3 7.91366e-09 0)
(3 1.67945e-08 0)
(3 3.5358e-08 0)
(3 7.39632e-08 0)
(3 1.53853e-07 0)
(2.99999 3.18454e-07 0)
(2.99998 6.56403e-07 0)
(2.99996 1.34855e-06 0)
(2.99993 2.76375e-06 0)
(2.99985 5.65297e-06 0)
(2.99969 1.15389e-05 0)
(2.99936 2.34895e-05 0)
(2.99868 4.76421e-05 0)
(2.99729 9.62124e-05 0)
(2.99442 0.000193536 0)
(2.98849 0.00038863 0)
(2.97616 0.000782649 0)
(2.95009 0.00159276 0)
(2.89309 0.00331394 0)
(2.75845 0.0071869 0)
(2.37746 0.0171237 0)
(1.06745 0.0514948 0)
(-0.0209797 0.210205 0)
(0.0311622 0.328494 0)
(0.204608 0.394123 0)
(0.388462 0.422815 0)
(0.490585 0.447611 0)
(0.517079 0.452328 0)
(0.518824 0.464217 0)
(0.493414 0.463737 0)
(0.433514 0.465669 0)
(0.255826 0.480854 0)
(0.186201 0.496667 0)
(3 7.83373e-12 0)
(3 4.85569e-11 0)
(3 1.59817e-10 0)
(3 4.18409e-10 0)
(3 9.83482e-10 0)
(3 2.18801e-09 0)
(3 4.73139e-09 0)
(3 1.00842e-08 0)
(3 2.13349e-08 0)
(3 4.4953e-08 0)
(3 9.44391e-08 0)
(3 1.97847e-07 0)
(2.99999 4.13227e-07 0)
(2.99998 8.60283e-07 0)
(2.99996 1.78527e-06 0)
(2.99993 3.69433e-06 0)
(2.99985 7.62834e-06 0)
(2.99969 1.57303e-05 0)
(2.99936 3.24154e-05 0)
(2.99869 6.67715e-05 0)
(2.99731 0.000137446 0)
(2.99448 0.000282543 0)
(2.98861 0.000579759 0)
(2.9764 0.0011883 0)
(2.95059 0.00244102 0)
(2.89417 0.00506916 0)
(2.76101 0.0108464 0)
(2.38515 0.0252168 0)
(1.09798 0.072264 0)
(0.0216022 0.240428 0)
(0.0618764 0.362149 0)
(0.220861 0.422216 0)
(0.397923 0.436368 0)
(0.493079 0.444619 0)
(0.515756 0.444612 0)
(0.508809 0.45856 0)
(0.472017 0.449426 0)
(0.400708 0.471917 0)
(0.210097 0.501178 0)
(0.144946 0.556388 0)
(3 1.19632e-11 0)
(3 7.26705e-11 0)
(3 2.33444e-10 0)
(3 5.98169e-10 0)
(3 1.38118e-09 0)
(3 3.02788e-09 0)
(3 6.46791e-09 0)
(3 1.36475e-08 0)
(3 2.86475e-08 0)
(3 6.00271e-08 0)
(3 1.25719e-07 0)
(3 2.6322e-07 0)
(2.99999 5.50723e-07 0)
(2.99998 1.15081e-06 0)
(2.99996 2.40059e-06 0)
(2.99993 4.99751e-06 0)
(2.99985 1.03825e-05 0)
(2.99969 2.15323e-05 0)
(2.99937 4.46016e-05 0)
(2.99871 9.23433e-05 0)
(2.99736 0.000191244 0)
(2.99456 0.000396429 0)
(2.98879 0.000822799 0)
(2.97678 0.00171056 0)
(2.95138 0.00356722 0)
(2.89587 0.0075005 0)
(2.76496 0.0161366 0)
(2.39642 0.0372792 0)
(1.13285 0.103897 0)
(0.0650711 0.284863 0)
(0.091242 0.402691 0)
(0.234544 0.448238 0)
(0.40271 0.446765 0)
(0.491739 0.442392 0)
(0.513798 0.441648 0)
(0.502587 0.449923 0)
(0.45707 0.449416 0)
(0.372163 0.472458 0)
(0.17363 0.511313 0)
(0.11062 0.631334 0)
(3 1.82943e-11 0)
(3 1.09205e-10 0)
(3 3.44021e-10 0)
(3 8.68725e-10 0)
(3 1.98493e-09 0)
(3 4.31685e-09 0)
(3 9.15921e-09 0)
(3 1.92041e-08 0)
(3 4.00617e-08 0)
(3 8.34416e-08 0)
(3 1.73809e-07 0)
(3 3.62293e-07 0)
(2.99999 7.55707e-07 0)
(2.99998 1.57699e-06 0)
(2.99997 3.29089e-06 0)
(2.99993 6.8647e-06 0)
(2.99985 1.43088e-05 0)
(2.9997 2.97953e-05 0)
(2.99939 6.19752e-05 0)
(2.99874 0.000128778 0)
(2.99742 0.000267394 0)
(2.99469 0.000555124 0)
(2.98905 0.00115337 0)
(2.97733 0.00240179 0)
(2.95255 0.00502601 0)
(2.89845 0.0106259 0)
(2.77111 0.0230036 0)
(2.41397 0.0533006 0)
(1.18052 0.147528 0)
(0.108367 0.356032 0)
(0.114099 0.433057 0)
(0.242544 0.45999 0)
(0.404649 0.455901 0)
(0.49146 0.453512 0)
(0.512149 0.452287 0)
(0.496921 0.455743 0)
(0.444146 0.455039 0)
(0.347334 0.478847 0)
(0.153596 0.52901 0)
(0.088456 0.680806 0)
(3 2.66076e-11 0)
(3 1.57207e-10 0)
(3 4.89851e-10 0)
(3 1.22851e-09 0)
(3 2.79643e-09 0)
(3 6.06942e-09 0)
(3 1.28598e-08 0)
(3 2.69217e-08 0)
(3 5.60446e-08 0)
(3 1.16418e-07 0)
(3 2.41739e-07 0)
(3 5.02237e-07 0)
(2.99999 1.04438e-06 0)
(2.99998 2.1737e-06 0)
(2.99997 4.5273e-06 0)
(2.99993 9.43276e-06 0)
(2.99986 1.96534e-05 0)
(2.99971 4.09343e-05 0)
(2.99941 8.52063e-05 0)
(2.99878 0.000177227 0)
(2.9975 0.000368362 0)
(2.99486 0.000765276 0)
(2.98941 0.00159015 0)
(2.97808 0.00330899 0)
(2.95417 0.00691428 0)
(2.90205 0.0145914 0)
(2.77979 0.0315333 0)
(2.43923 0.0728176 0)
(1.25434 0.199727 0)
(0.148717 0.457016 0)
(0.119211 0.437323 0)
(0.24869 0.455886 0)
(0.404602 0.456562 0)
(0.490765 0.469967 0)
(0.509576 0.469148 0)
(0.491649 0.471729 0)
(0.434871 0.472466 0)
(0.329013 0.496864 0)
(0.130761 0.541283 0)
(0.0647437 0.649619 0)
(3 3.61006e-11 0)
(3 2.12504e-10 0)
(3 6.59795e-10 0)
(3 1.65239e-09 0)
(3 3.76205e-09 0)
(3 8.17451e-09 0)
(3 1.73449e-08 0)
(3 3.63554e-08 0)
(3 7.57296e-08 0)
(3 1.57277e-07 0)
(3 3.26237e-07 0)
(3 6.76547e-07 0)
(2.99999 1.40344e-06 0)
(2.99998 2.91292e-06 0)
(2.99997 6.04968e-06 0)
(2.99993 1.25711e-05 0)
(2.99986 2.61326e-05 0)
(2.99972 5.43336e-05 0)
(2.99943 0.000112966 0)
(2.99884 0.000234829 0)
(2.99761 0.000488055 0)
(2.9951 0.00101429 0)
(2.9899 0.00210881 0)
(2.97912 0.0043911 0)
(2.95638 0.00917905 0)
(2.90693 0.0193653 0)
(2.7915 0.0417734 0)
(2.47301 0.095832 0)
(1.36135 0.25803 0)
(0.189571 0.580817 0)
(0.100298 0.428463 0)
(0.251649 0.439543 0)
(0.409033 0.443045 0)
(0.493915 0.469664 0)
(0.507979 0.480393 0)
(0.48781 0.486814 0)
(0.427055 0.488983 0)
(0.307577 0.498468 0)
(0.0948647 0.533051 0)
(0.0384221 0.616449 0)
(3 4.53844e-11 0)
(3 2.67418e-10 0)
(3 8.31527e-10 0)
(3 2.08605e-09 0)
(3 4.75789e-09 0)
(3 1.03569e-08 0)
(3 2.20117e-08 0)
(3 4.61984e-08 0)
(3 9.63137e-08 0)
(3 2.00072e-07 0)
(3 4.14821e-07 0)
(3 8.59301e-07 0)
(2.99999 1.77951e-06 0)
(2.99999 3.68546e-06 0)
(2.99997 7.63515e-06 0)
(2.99994 1.58245e-05 0)
(2.99987 3.2813e-05 0)
(2.99974 6.80712e-05 0)
(2.99947 0.000141277 0)
(2.99891 0.000293334 0)
(2.99776 0.000609346 0)
(2.9954 0.00126665 0)
(2.99054 0.00263592 0)
(2.98047 0.005497 0)
(2.95926 0.0115125 0)
(2.91331 0.024332 0)
(2.8068 0.0525199 0)
(2.51667 0.119893 0)
(1.50972 0.316286 0)
(0.239861 0.719243 0)
(0.060441 0.425505 0)
(0.24855 0.403664 0)
(0.413484 0.426141 0)
(0.5 0.460277 0)
(0.510445 0.479526 0)
(0.485316 0.490395 0)
(0.416034 0.491481 0)
(0.287121 0.495714 0)
(0.0715972 0.539306 0)
(0.0217275 0.645555 0)
(3 5.17621e-11 0)
(3 3.06632e-10 0)
(3 9.59029e-10 0)
(3 2.41481e-09 0)
(3 5.51867e-09 0)
(3 1.2024e-08 0)
(3 2.55635e-08 0)
(3 5.36558e-08 0)
(3 1.11851e-07 0)
(3 2.32301e-07 0)
(3 4.81467e-07 0)
(3 9.96702e-07 0)
(2.99999 2.06182e-06 0)
(2.99999 4.26325e-06 0)
(2.99997 8.81306e-06 0)
(2.99994 1.82181e-05 0)
(2.99988 3.76694e-05 0)
(2.99976 7.79325e-05 0)
(2.99951 0.000161379 0)
(2.99899 0.000334601 0)
(2.99794 0.000694862 0)
(2.99577 0.00144571 0)
(2.99132 0.00301444 0)
(2.98211 0.00630258 0)
(2.96279 0.0132347 0)
(2.92114 0.028034 0)
(2.82564 0.0605766 0)
(2.57013 0.13775 0)
(1.70909 0.355386 0)
(0.319719 0.841228 0)
(0.0392554 0.504512 0)
(0.237812 0.386248 0)
(0.421276 0.41559 0)
(0.50859 0.462005 0)
(0.512995 0.48464 0)
(0.482999 0.497567 0)
(0.408618 0.500087 0)
(0.273887 0.515257 0)
(0.0572203 0.565681 0)
(0.0110718 0.684614 0)
(3 5.13358e-11 0)
(3 3.07626e-10 0)
(3 9.73688e-10 0)
(3 2.4684e-09 0)
(3 5.65696e-09 0)
(3 1.23295e-08 0)
(3 2.61895e-08 0)
(3 5.48958e-08 0)
(3 1.14276e-07 0)
(3 2.37006e-07 0)
(3 4.90447e-07 0)
(3 1.01324e-06 0)
(2.99999 2.09032e-06 0)
(2.99999 4.3068e-06 0)
(2.99997 8.86388e-06 0)
(2.99995 1.82287e-05 0)
(2.99989 3.74731e-05 0)
(2.99978 7.70343e-05 0)
(2.99955 0.000158421 0)
(2.99908 0.000326026 0)
(2.99813 0.000671635 0)
(2.99618 0.00138551 0)
(2.99217 0.00286364 0)
(2.98391 0.00593677 0)
(2.96666 0.0123758 0)
(2.92979 0.0260823 0)
(2.84658 0.0562443 0)
(2.62962 0.127884 0)
(1.94679 0.323417 0)
(0.486529 0.831833 0)
(0.0886221 0.61988 0)
(0.22922 0.4405 0)
(0.428465 0.422837 0)
(0.51884 0.469037 0)
(0.516759 0.498864 0)
(0.48163 0.516904 0)
(0.402966 0.522113 0)
(0.264042 0.543161 0)
(0.0479649 0.597629 0)
(0.00580637 0.722647 0)
(3 4.29741e-11 0)
(3 2.62199e-10 0)
(3 8.45556e-10 0)
(3 2.1676e-09 0)
(3 4.99137e-09 0)
(3 1.0883e-08 0)
(3 2.3064e-08 0)
(3 4.81677e-08 0)
(3 9.98542e-08 0)
(3 2.06242e-07 0)
(3 4.25154e-07 0)
(3 8.75345e-07 0)
(2.99999 1.80033e-06 0)
(2.99999 3.69868e-06 0)
(2.99998 7.58961e-06 0)
(2.99995 1.55532e-05 0)
(2.9999 3.18273e-05 0)
(2.9998 6.50287e-05 0)
(2.99959 0.000132643 0)
(2.99916 0.000270088 0)
(2.99829 0.000549049 0)
(2.9965 0.0011148 0)
(2.99284 0.00226341 0)
(2.9853 0.00460617 0)
(2.9696 0.00943757 0)
(2.93622 0.0196277 0)
(2.86191 0.0420787 0)
(2.67228 0.0963377 0)
(2.10392 0.241696 0)
(0.663269 0.693851 0)
(0.107555 0.64215 0)
(0.230501 0.498204 0)
(0.430842 0.444757 0)
(0.528545 0.478883 0)
(0.521916 0.514479 0)
(0.481385 0.538798 0)
(0.398524 0.548422 0)
(0.257099 0.572484 0)
(0.0423462 0.633542 0)
(0.00564901 0.758753 0)
(3 3.37152e-11 0)
(3 2.07815e-10 0)
(3 6.78672e-10 0)
(3 1.75769e-09 0)
(3 4.07062e-09 0)
(3 8.88162e-09 0)
(3 1.87484e-08 0)
(3 3.88489e-08 0)
(3 7.96746e-08 0)
(3 1.62521e-07 0)
(3 3.30714e-07 0)
(3 6.72619e-07 0)
(2.99999 1.36878e-06 0)
(2.99999 2.78834e-06 0)
(2.99998 5.68547e-06 0)
(2.99996 1.15984e-05 0)
(2.99991 2.36564e-05 0)
(2.99981 4.8205e-05 0)
(2.99962 9.80693e-05 0)
(2.99922 0.000199086 0)
(2.99841 0.000403178 0)
(2.99675 0.00081468 0)
(2.99333 0.00164412 0)
(2.98629 0.00332151 0)
(2.97164 0.0067488 0)
(2.94057 0.0139202 0)
(2.87196 0.0296946 0)
(2.6998 0.0683843 0)
(2.19656 0.175624 0)
(0.808593 0.569668 0)
(0.146092 0.641159 0)
(0.240045 0.543169 0)
(0.431498 0.476552 0)
(0.536583 0.496028 0)
(0.527891 0.53215 0)
(0.482775 0.562614 0)
(0.395563 0.579063 0)
(0.25265 0.604051 0)
(0.0399532 0.674111 0)
(0.0100437 0.794903 0)
(3 2.58146e-11 0)
(3 1.59923e-10 0)
(3 5.26803e-10 0)
(3 1.37912e-09 0)
(3 3.22656e-09 0)
(3 7.09633e-09 0)
(3 1.50541e-08 0)
(3 3.12415e-08 0)
(3 6.39415e-08 0)
(3 1.29696e-07 0)
(3 2.61553e-07 0)
(3 5.25646e-07 0)
(3 1.05469e-06 0)
(2.99999 2.11578e-06 0)
(2.99998 4.24797e-06 0)
(2.99996 8.54144e-06 0)
(2.99991 1.7204e-05 0)
(2.99982 3.47099e-05 0)
(2.99964 7.01258e-05 0)
(2.99927 0.000141811 0)
(2.9985 0.000286901 0)
(2.99692 0.000580484 0)
(2.99368 0.00117475 0)
(2.98698 0.002381 0)
(2.97306 0.0048508 0)
(2.94356 0.0100163 0)
(2.87869 0.0213455 0)
(2.71838 0.0489795 0)
(2.25613 0.131393 0)
(0.925535 0.46431 0)
(0.185008 0.627535 0)
(0.255885 0.581692 0)
(0.434436 0.515307 0)
(0.54317 0.518837 0)
(0.533897 0.553605 0)
(0.485912 0.590137 0)
(0.393886 0.611663 0)
(0.251273 0.642155 0)
(0.0411308 0.710823 0)
(0.0185009 0.827786 0)
(3 2.07101e-11 0)
(3 1.28001e-10 0)
(3 4.20445e-10 0)
(3 1.09768e-09 0)
(3 2.56451e-09 0)
(3 5.64112e-09 0)
(3 1.19902e-08 0)
(3 2.49805e-08 0)
(3 5.14204e-08 0)
(3 1.05023e-07 0)
(3 2.13305e-07 0)
(3 4.3131e-07 0)
(3 8.68905e-07 0)
(2.99999 1.74513e-06 0)
(2.99998 3.49663e-06 0)
(2.99996 6.99458e-06 0)
(2.99992 1.39802e-05 0)
(2.99983 2.79436e-05 0)
(2.99966 5.5904e-05 0)
(2.9993 0.000112031 0)
(2.99856 0.000225022 0)
(2.99704 0.000453174 0)
(2.99393 0.000915362 0)
(2.9875 0.00185591 0)
(2.97413 0.00378624 0)
(2.9458 0.00782035 0)
(2.88366 0.0165997 0)
(2.73234 0.0373907 0)
(2.29904 0.103824 0)
(1.0152 0.383183 0)
(0.221703 0.618369 0)
(0.276686 0.621461 0)
(0.439952 0.558932 0)
(0.549527 0.53929 0)
(0.541325 0.572297 0)
(0.490066 0.613208 0)
(0.394625 0.642497 0)
(0.249932 0.681521 0)
(0.0431503 0.73944 0)
(0.0315549 0.853152 0)
(3 2.00584e-11 0)
(3 1.2108e-10 0)
(3 3.8794e-10 0)
(3 9.94558e-10 0)
(3 2.29067e-09 0)
(3 4.97709e-09 0)
(3 1.04632e-08 0)
(3 2.15953e-08 0)
(3 4.41379e-08 0)
(3 8.97772e-08 0)
(3 1.82187e-07 0)
(3 3.69221e-07 0)
(3 7.47345e-07 0)
(2.99999 1.51045e-06 0)
(2.99998 3.04729e-06 0)
(2.99996 6.13572e-06 0)
(2.99992 1.233e-05 0)
(2.99984 2.47346e-05 0)
(2.99967 4.95572e-05 0)
(2.99932 9.92479e-05 0)
(2.99861 0.000198898 0)
(2.99715 0.000399398 0)
(2.99414 0.000804793 0)
(2.98793 0.00163005 0)
(2.975 0.00332684 0)
(2.94764 0.00687452 0)
(2.88763 0.0145464 0)
(2.74366 0.0321667 0)
(2.3347 0.0878958 0)
(1.11228 0.318875 0)
(0.262929 0.617411 0)
(0.300375 0.664 0)
(0.445372 0.608661 0)
(0.554007 0.562747 0)
(0.549818 0.587043 0)
(0.496784 0.627484 0)
(0.398879 0.671039 0)
(0.24753 0.709656 0)
(0.0468846 0.770416 0)
(0.047856 0.880437 0)
(3 1.79809e-11 0)
(3 1.09052e-10 0)
(3 3.52208e-10 0)
(3 9.13089e-10 0)
(3 2.12712e-09 0)
(3 4.66977e-09 0)
(3 9.89917e-09 0)
(3 2.05457e-08 0)
(3 4.21064e-08 0)
(3 8.5676e-08 0)
(3 1.73699e-07 0)
(3 3.51656e-07 0)
(3 7.11741e-07 0)
(2.99999 1.44074e-06 0)
(2.99998 2.91664e-06 0)
(2.99996 5.90315e-06 0)
(2.99992 1.19408e-05 0)
(2.99984 2.41315e-05 0)
(2.99968 4.87124e-05 0)
(2.99935 9.82196e-05 0)
(2.99866 0.000197895 0)
(2.99725 0.000398815 0)
(2.99434 0.000805197 0)
(2.98834 0.00163236 0)
(2.97585 0.00333359 0)
(2.94941 0.00689298 0)
(2.89149 0.0145758 0)
(2.75365 0.0320924 0)
(2.36487 0.0818373 0)
(1.19591 0.273019 0)
(0.315064 0.611544 0)
(0.327094 0.700922 0)
(0.450482 0.66046 0)
(0.555879 0.596918 0)
(0.557276 0.606669 0)
(0.505879 0.644257 0)
(0.40443 0.700618 0)
(0.24666 0.738906 0)