/*--------------------------------*- C++ -*----------------------------------*\
  =========                 |
  \\      /  F ield         | OpenFOAM: The Open Source CFD Toolbox
   \\    /   O peration     | Website:  https://openfoam.org
    \\  /    A nd           | Version:  6.0
     \\/     M anipulation  |
\*---------------------------------------------------------------------------*/
FoamFile
{
    version     2.0;
    format      ascii;
    class       volScalarField;
    location    "3.0001335";
    object      rho;
}
// * * * * * * * * * * * * * * * * * * * * * * * * * * * * * * * * * * * * * //

dimensions      [1 -3 0 0 0 0 0];

internalField   nonuniform List<scalar> 
192000
(
1.39997
1.39997
1.39997
1.39997
1.39997
1.39997
1.39997
1.39997
1.39997
1.39997
1.39997
1.39997
1.39997
1.39997
1.39997
1.39997
1.39997
1.39997
1.39997
1.39997
2.43031
5.09946
5.45206
5.49288
5.54408
5.58635
5.62571
5.66335
5.69977
5.73441
5.76681
5.79654
5.82445
5.85309
5.88307
5.91062
5.93031
5.93957
5.94265
5.95043
1.39997
1.39997
1.39997
1.39997
1.39997
1.39997
1.39997
1.39997
1.39997
1.39997
1.39997
1.39997
1.39997
1.39997
1.39997
1.39997
1.39997
1.39997
1.39997
1.39997
2.42614
5.09834
5.4537
5.49348
5.54421
5.58578
5.62405
5.66093
5.6977
5.73343
5.76684
5.79739
5.82593
5.85435
5.88272
5.90811
5.92713
5.93774
5.94269
5.95042
1.39997
1.39997
1.39997
1.39997
1.39997
1.39997
1.39997
1.39997
1.39997
1.39997
1.39997
1.39997
1.39997
1.39997
1.39997
1.39997
1.39997
1.39997
1.39997
1.39997
2.41741
5.09975
5.45493
5.49272
5.54189
5.58259
5.62085
5.65794
5.69494
5.73153
5.76604
5.79759
5.82696
5.85557
5.88271
5.90568
5.92297
5.93441
5.94188
5.95041
1.39997
1.39997
1.39997
1.39997
1.39997
1.39997
1.39997
1.39997
1.39997
1.39997
1.39997
1.39997
1.39997
1.39997
1.39997
1.39997
1.39997
1.39997
1.39997
1.39997
2.41019
5.10528
5.45881
5.49218
5.53811
5.57741
5.6158
5.65395
5.69234
5.73001
5.765
5.79687
5.8268
5.85553
5.88158
5.90287
5.91908
5.93116
5.94046
5.94897
1.39997
1.39997
1.39997
1.39997
1.39997
1.39997
1.39997
1.39997
1.39997
1.39997
1.39997
1.39997
1.39997
1.39997
1.39997
1.39997
1.39997
1.39997
1.39997
1.39997
2.38939
5.09276
5.4569
5.4877
5.5316
5.57066
5.61034
5.65065
5.69103
5.72892
5.76321
5.79463
5.82497
5.85401
5.87968
5.90048
5.91664
5.92901
5.9384
5.94563
1.39997
1.39997
1.39997
1.39997
1.39997
1.39997
1.39997
1.39997
1.39997
1.39997
1.39997
1.39997
1.39997
1.39997
1.39997
1.39997
1.39997
1.39997
1.39997
1.39997
2.36694
5.07453
5.45406
5.48334
5.52675
5.5663
5.60752
5.64897
5.68895
5.72593
5.75995
5.79199
5.82253
5.85119
5.8766
5.8977
5.9152
5.92811
5.93581
5.94049
1.39997
1.39997
1.39997
1.39997
1.39997
1.39997
1.39997
1.39997
1.39997
1.39997
1.39997
1.39997
1.39997
1.39997
1.39997
1.39997
1.39997
1.39997
1.39997
1.39997
2.33917
5.04952
5.44838
5.48066
5.52617
5.56651
5.60694
5.64619
5.68369
5.72018
5.75612
5.79036
5.82087
5.84785
5.87184
5.8942
5.91439
5.92758
5.9326
5.9343
1.39997
1.39997
1.39997
1.39997
1.39997
1.39997
1.39997
1.39997
1.39997
1.39997
1.39997
1.39997
1.39997
1.39997
1.39997
1.39997
1.39997
1.39997
1.39997
1.39997
2.30623
5.02467
5.44496
5.48083
5.5284
5.569
5.60682
5.64187
5.67633
5.71313
5.75274
5.78995
5.82037
5.84443
5.8659
5.89
5.913
5.92628
5.92872
5.92798
1.39997
1.39997
1.39997
1.39997
1.39997
1.39997
1.39997
1.39997
1.39997
1.39997
1.39997
1.39997
1.39997
1.39997
1.39997
1.39997
1.39997
1.39997
1.39997
1.39997
2.26844
5.00439
5.44562
5.48387
5.53285
5.57225
5.60608
5.63663
5.66923
5.70733
5.74962
5.78897
5.81922
5.84056
5.86041
5.88541
5.90982
5.92316
5.924
5.92197
1.39997
1.39997
1.39997
1.39997
1.39997
1.39997
1.39997
1.39997
1.39997
1.39997
1.39997
1.39997
1.39997
1.39997
1.39997
1.39997
1.39997
1.39997
1.39997
1.39997
2.22689
4.98816
5.45154
5.49077
5.53897
5.57498
5.60515
5.63349
5.66617
5.70522
5.74708
5.78582
5.81544
5.83615
5.85695
5.88177
5.90514
5.91775
5.91825
5.91594
1.39997
1.39997
1.39997
1.39997
1.39997
1.39997
1.39997
1.39997
1.39997
1.39997
1.39997
1.39997
1.39997
1.39997
1.39997
1.39997
1.39997
1.39997
1.39997
1.39997
2.18298
4.97132
5.46021
5.4968
5.54268
5.5753
5.60396
5.63358
5.66829
5.70728
5.74598
5.78038
5.80816
5.83157
5.85556
5.87978
5.90006
5.91057
5.91117
5.90918
1.39997
1.39997
1.39997
1.39997
1.39997
1.39997
1.39997
1.39997
1.39997
1.39997
1.39997
1.39997
1.39997
1.39997
1.39997
1.39997
1.39997
1.39997
1.39997
1.39997
2.13508
4.94778
5.46454
5.49809
5.54191
5.57351
5.60331
5.63594
5.67326
5.71066
5.74463
5.7728
5.79896
5.82742
5.85542
5.87873
5.89525
5.90268
5.90266
5.90115
1.39997
1.39997
1.39997
1.39997
1.39997
1.39997
1.39997
1.39997
1.39997
1.39997
1.39997
1.39997
1.39997
1.39997
1.39997
1.39997
1.39997
1.39997
1.39997
1.39997
2.08688
4.91896
5.46369
5.49315
5.53681
5.57124
5.60548
5.64095
5.67726
5.71173
5.74062
5.76519
5.79189
5.82349
5.85408
5.87696
5.89041
5.89477
5.89311
5.89192
1.39997
1.39997
1.39997
1.39997
1.39997
1.39997
1.39997
1.39997
1.39997
1.39997
1.39997
1.39997
1.39997
1.39997
1.39997
1.39997
1.39997
1.39997
1.39997
1.39997
2.03734
4.87406
5.45662
5.48438
5.53008
5.57039
5.60959
5.64578
5.67834
5.70776
5.73349
5.75976
5.78891
5.82024
5.85039
5.873
5.88453
5.88639
5.883
5.88231
1.39997
1.39997
1.39997
1.39997
1.39997
1.39997
1.39997
1.39997
1.39997
1.39997
1.39997
1.39997
1.39997
1.39997
1.39997
1.39997
1.39997
1.39997
1.39997
1.39997
1.9862
4.82042
5.44487
5.47584
5.52559
5.56977
5.61043
5.64459
5.67279
5.69806
5.72608
5.75734
5.7885
5.81799
5.84507
5.8659
5.87604
5.87659
5.8729
5.87339
1.39997
1.39997
1.39997
1.39997
1.39997
1.39997
1.39997
1.39997
1.39997
1.39997
1.39997
1.39997
1.39997
1.39997
1.39997
1.39997
1.39997
1.39997
1.39997
1.39997
1.93341
4.76375
5.43431
5.46945
5.52281
5.56747
5.60669
5.63785
5.66333
5.68944
5.72118
5.75571
5.78789
5.81541
5.83859
5.8561
5.86441
5.86502
5.86339
5.86573
1.39997
1.39997
1.39997
1.39997
1.39997
1.39997
1.39997
1.39997
1.39997
1.39997
1.39997
1.39997
1.39997
1.39997
1.39997
1.39997
1.39997
1.39997
1.39997
1.39997
1.87968
4.7082
5.42964
5.46588
5.51932
5.56143
5.59742
5.62671
5.65397
5.68448
5.71865
5.75328
5.78464
5.81042
5.83066
5.84431
5.8501
5.85189
5.85461
5.85924
1.39997
1.39997
1.39997
1.39997
1.39997
1.39997
1.39997
1.39997
1.39997
1.39997
1.39997
1.39997
1.39997
1.39997
1.39997
1.39997
1.39997
1.39997
1.39997
1.39997
1.82418
4.65129
5.43068
5.46216
5.51266
5.55075
5.58436
5.61504
5.64755
5.68262
5.71741
5.74956
5.77759
5.80167
5.82073
5.83161
5.83517
5.83891
5.84633
5.85239
1.39997
1.39997
1.39997
1.39997
1.39997
1.39997
1.39997
1.39997
1.39997
1.39997
1.39997
1.39997
1.39997
1.39997
1.39997
1.39997
1.39997
1.39997
1.39997
1.39997
1.76658
4.5842
5.43363
5.45647
5.50325
5.53804
5.57168
5.60616
5.64337
5.6808
5.71452
5.74277
5.76707
5.78985
5.80873
5.81858
5.82168
5.82749
5.83771
5.84356
1.39997
1.39997
1.39997
1.39997
1.39997
1.39997
1.39997
1.39997
1.39997
1.39997
1.39997
1.39997
1.39997
1.39997
1.39997
1.39997
1.39997
1.39997
1.39997
1.39997
1.70565
4.51895
5.44271
5.45503
5.49619
5.52893
5.56393
5.60073
5.6389
5.67569
5.70721
5.73281
5.75545
5.77712
5.79518
5.80536
5.8106
5.818
5.82786
5.8316
1.39997
1.39997
1.39997
1.39997
1.39997
1.39997
1.39997
1.39997
1.39997
1.39997
1.39997
1.39997
1.39997
1.39997
1.39997
1.39997
1.39997
1.39997
1.39997
1.39997
1.64778
4.47349
5.46301
5.45672
5.49239
5.52471
5.56127
5.59752
5.6323
5.66432
5.69323
5.71981
5.7442
5.76529
5.78154
5.79254
5.80154
5.80955
5.81589
5.81633
1.39997
1.39997
1.39997
1.39997
1.39997
1.39997
1.39997
1.39997
1.39997
1.39997
1.39997
1.39997
1.39997
1.39997
1.39997
1.39997
1.39997
1.39997
1.39997
1.39997
1.57981
4.4334
5.47877
5.4586
5.49314
5.52638
5.56289
5.59606
5.62395
5.64886
5.67597
5.70591
5.73344
5.75403
5.76831
5.78021
5.7929
5.80082
5.80161
5.79834
1.39997
1.39997
1.39997
1.39997
1.39997
1.39997
1.39997
1.39997
1.39997
1.39997
1.39997
1.39997
1.39997
1.39997
1.39997
1.39997
1.39997
1.39997
1.39997
1.39997
1.49709
4.35929
5.49002
5.45924
5.49506
5.52891
5.56468
5.59269
5.6135
5.63378
5.66091
5.69318
5.72202
5.74189
5.75545
5.76877
5.78328
5.79008
5.78514
5.7789
1.39997
1.39997
1.39997
1.39997
1.39997
1.39997
1.39997
1.39997
1.39997
1.39997
1.39997
1.39997
1.39997
1.39997
1.39997
1.39997
1.39997
1.39997
1.39997
1.39997
1.4432
4.26865
5.4632
5.45489
5.49439
5.53028
5.56311
5.58605
5.60333
5.62366
5.65168
5.68273
5.70916
5.72772
5.74203
5.75719
5.7713
5.7753
5.76649
5.75963
1.39997
1.39997
1.39997
1.39997
1.39997
1.39997
1.39997
1.39997
1.39997
1.39997
1.39997
1.39997
1.39997
1.39997
1.39997
1.39997
1.39997
1.39997
1.39997
1.39997
1.41062
4.15633
5.42776
5.44599
5.49205
5.52724
5.55761
5.57825
5.59629
5.61913
5.64687
5.67375
5.69549
5.71255
5.72819
5.74427
5.75593
5.75591
5.74589
5.74099
1.39997
1.39997
1.39997
1.39997
1.39997
1.39997
1.39997
1.39997
1.39997
1.39997
1.39997
1.39997
1.39997
1.39997
1.39997
1.39997
1.39997
1.39997
1.39997
1.39997
1.40135
4.02534
5.37957
5.42835
5.4769
5.5174
5.5496
5.57296
5.59334
5.61706
5.64217
5.66378
5.68149
5.69805
5.71432
5.72845
5.73573
5.73255
5.72418
5.72284
1.39997
1.39997
1.39997
1.39997
1.39997
1.39997
1.39997
1.39997
1.39997
1.39997
1.39997
1.39997
1.39997
1.39997
1.39997
1.39997
1.39997
1.39997
1.39997
1.39997
1.40002
3.8926
5.33043
5.39766
5.4528
5.49931
5.53978
5.57057
5.59365
5.61438
5.63336
5.65027
5.667
5.68475
5.70034
5.70962
5.71108
5.70663
5.70179
5.70383
1.39997
1.39997
1.39997
1.39997
1.39997
1.39997
1.39997
1.39997
1.39997
1.39997
1.39997
1.39997
1.39997
1.39997
1.39997
1.39997
1.39997
1.39997
1.39997
1.39997
1.39997
3.75704
5.28889
5.36587
5.4276
5.4815
5.52855
5.56657
5.59408
5.60983
5.62031
5.63353
5.65191
5.67124
5.68392
5.68728
5.684
5.67954
5.6787
5.68291
1.39997
1.39997
1.39997
1.39997
1.39997
1.39997
1.39997
1.39997
1.39997
1.39997
1.39997
1.39997
1.39997
1.39997
1.39997
1.39997
1.39997
1.39997
1.39997
1.39997
1.39997
3.61893
5.24985
5.34401
5.40442
5.46329
5.51597
5.56036
5.58788
5.60027
5.60593
5.61728
5.6365
5.65488
5.66325
5.66188
5.65645
5.65254
5.65357
5.65836
1.39997
1.39997
1.39997
1.39997
1.39997
1.39997
1.39997
1.39997
1.39997
1.39997
1.39997
1.39997
1.39997
1.39997
1.39997
1.39997
1.39997
1.39997
1.39997
1.39997
1.39997
3.48097
5.21635
5.32705
5.38649
5.44555
5.499
5.54264
5.57204
5.58542
5.59345
5.60535
5.62205
5.63487
5.63786
5.63434
5.62913
5.62576
5.62571
5.6287
1.39997
1.39997
1.39997
1.39997
1.39997
1.39997
1.39997
1.39997
1.39997
1.39997
1.39997
1.39997
1.39997
1.39997
1.39997
1.39997
1.39997
1.39997
1.39997
1.39997
1.39997
3.34157
5.1895
5.31054
5.368
5.42554
5.47639
5.51703
5.54715
5.56783
5.58327
5.59731
5.60844
5.61238
5.61061
5.60666
5.60185
5.59723
5.59329
5.59355
1.39997
1.39997
1.39997
1.39997
1.39997
1.39997
1.39997
1.39997
1.39997
1.39997
1.39997
1.39997
1.39997
1.39997
1.39997
1.39997
1.39997
1.39997
1.39997
1.39997
1.39997
3.19986
5.16691
5.29658
5.35033
5.39973
5.44684
5.48828
5.52264
5.55088
5.57266
5.58748
5.59254
5.58891
5.58445
5.57999
5.57343
5.56534
5.55574
5.55221
1.39997
1.39997
1.39997
1.39997
1.39997
1.39997
1.39997
1.39997
1.39997
1.39997
1.39997
1.39997
1.39997
1.39997
1.39997
1.39997
1.39997
1.39997
1.39997
1.39997
1.39997
3.05421
5.1436
5.2855
5.33415
5.37869
5.42119
5.46529
5.50582
5.53933
5.56166
5.57345
5.5727
5.56568
5.56129
5.55485
5.54294
5.52756
5.51092
5.50509
1.39997
1.39997
1.39997
1.39997
1.39997
1.39997
1.39997
1.39997
1.39997
1.39997
1.39997
1.39997
1.39997
1.39997
1.39997
1.39997
1.39997
1.39997
1.39997
1.39997
1.39997
2.90424
5.11546
5.28139
5.32167
5.36435
5.40988
5.4564
5.49918
5.53265
5.54976
5.55409
5.55009
5.54341
5.53987
5.52882
5.50833
5.4838
5.45923
5.44956
1.39997
1.39997
1.39997
1.39997
1.39997
1.39997
1.39997
1.39997
1.39997
1.39997
1.39997
1.39997
1.39997
1.39997
1.39997
1.39997
1.39997
1.39997
1.39997
1.39997
1.39997
2.75049
5.07836
5.28462
5.31371
5.35497
5.40348
5.44917
5.48673
5.51344
5.52744
5.52921
5.52674
5.52334
5.51897
5.50087
5.4692
5.43229
5.39747
5.38404
1.39997
1.39997
1.39997
1.39997
1.39997
1.39997
1.39997
1.39997
1.39997
1.39997
1.39997
1.39997
1.39997
1.39997
1.39997
1.39997
1.39997
1.39997
1.39997
1.39997
1.39997
2.59445
5.0311
5.29537
5.31075
5.34712
5.39003
5.42649
5.45728
5.47935
5.49484
5.50318
5.50577
5.50528
5.49647
5.46787
5.42399
5.37462
5.32622
5.30132
1.39997
1.39997
1.39997
1.39997
1.39997
1.39997
1.39997
1.39997
1.39997
1.39997
1.39997
1.39997
1.39997
1.39997
1.39997
1.39997
1.39997
1.39997
1.39997
1.39997
1.39997
2.43464
4.96875
5.31232
5.31376
5.33945
5.37213
5.40075
5.42416
5.44448
5.46465
5.48036
5.48649
5.48551
5.46966
5.43071
5.37615
5.31055
5.23838
5.19637
1.39997
1.39997
1.39997
1.39997
1.39997
1.39997
1.39997
1.39997
1.39997
1.39997
1.39997
1.39997
1.39997
1.39997
1.39997
1.39997
1.39997
1.39997
1.39997
1.39997
1.39997
2.27356
4.89721
5.34075
5.32329
5.33862
5.35879
5.38121
5.40539
5.42507
5.44626
5.46578
5.47069
5.46332
5.43699
5.38959
5.32584
5.24357
5.13806
5.05568
1.39997
1.39997
1.39997
1.39997
1.39997
1.39997
1.39997
1.39997
1.39997
1.39997
1.39997
1.39997
1.39997
1.39997
1.39997
1.39997
1.39997
1.39997
1.39997
1.39997
1.39997
2.09691
4.8208
5.37666
5.34339
5.34688
5.35212
5.36867
5.39578
5.41953
5.43974
5.45381
5.45565
5.4347
5.39749
5.34586
5.27448
5.17011
5.00864
4.85239
1.39997
1.39997
1.39997
1.39997
1.39997
1.39997
1.39997
1.39997
1.39997
1.39997
1.39997
1.39997
1.39997
1.39997
1.39997
1.39997
1.39997
1.39997
1.39997
1.39997
1.39997
1.89715
4.77257
5.41045
5.35979
5.36106
5.36123
5.37099
5.39318
5.40964
5.41901
5.42246
5.4203
5.39231
5.35175
5.30253
5.22781
5.10105
4.88702
4.61144
1.39997
1.39997
1.39997
1.39997
1.39997
1.39997
1.39997
1.39997
1.39997
1.39997
1.39997
1.39997
1.39997
1.39997
1.39997
1.39997
1.39997
1.39997
1.39997
1.39997
2.43031
5.09946
5.45206
5.49288
5.54408
5.58635
5.62571
5.66335
5.69977
5.73441
5.76681
5.79654
5.82445
5.85309
5.88307
5.91062
5.93031
5.93957
5.94265
5.95043
1.39997
1.39997
1.39997
1.39997
1.39997
1.39997
1.39997
1.39997
1.39997
1.39997
1.39997
1.39997
1.39997
1.39997
1.39997
1.39997
1.39997
1.39997
1.39997
1.39997
2.42614
5.09834
5.4537
5.49348
5.54421
5.58578
5.62405
5.66093
5.6977
5.73343
5.76684
5.79739
5.82593
5.85435
5.88272
5.90811
5.92713
5.93774
5.94269
5.95042
1.39997
1.39997
1.39997
1.39997
1.39997
1.39997
1.39997
1.39997
1.39997
1.39997
1.39997
1.39997
1.39997
1.39997
1.39997
1.39997
1.39997
1.39997
1.39997
1.39997
2.41741
5.09975
5.45493
5.49272
5.54189
5.58259
5.62085
5.65794
5.69494
5.73153
5.76604
5.79759
5.82696
5.85557
5.88271
5.90568
5.92297
5.93441
5.94188
5.95041
1.39997
1.39997
1.39997
1.39997
1.39997
1.39997
1.39997
1.39997
1.39997
1.39997
1.39997
1.39997
1.39997
1.39997
1.39997
1.39997
1.39997
1.39997
1.39997
1.39997
2.41019
5.10528
5.45881
5.49218
5.53811
5.57741
5.6158
5.65395
5.69234
5.73001
5.765
5.79687
5.8268
5.85553
5.88158
5.90287
5.91908
5.93116
5.94046
5.94897
1.39997
1.39997
1.39997
1.39997
1.39997
1.39997
1.39997
1.39997
1.39997
1.39997
1.39997
1.39997
1.39997
1.39997
1.39997
1.39997
1.39997
1.39997
1.39997
1.39997
2.38939
5.09276
5.4569
5.4877
5.5316
5.57066
5.61034
5.65065
5.69103
5.72892
5.76321
5.79463
5.82497
5.85401
5.87968
5.90048
5.91664
5.92901
5.9384
5.94563
1.39997
1.39997
1.39997
1.39997
1.39997
1.39997
1.39997
1.39997
1.39997
1.39997
1.39997
1.39997
1.39997
1.39997
1.39997
1.39997
1.39997
1.39997
1.39997
1.39997
2.36694
5.07453
5.45406
5.48334
5.52675
5.5663
5.60752
5.64897
5.68895
5.72593
5.75995
5.79199
5.82253
5.85119
5.8766
5.8977
5.9152
5.92811
5.93581
5.94049
1.39997
1.39997
1.39997
1.39997
1.39997
1.39997
1.39997
1.39997
1.39997
1.39997
1.39997
1.39997
1.39997
1.39997
1.39997
1.39997
1.39997
1.39997
1.39997
1.39997
2.33917
5.04952
5.44838
5.48066
5.52617
5.56651
5.60694
5.64619
5.68369
5.72018
5.75612
5.79036
5.82087
5.84785
5.87184
5.8942
5.91439
5.92759
5.9326
5.9343
1.39997
1.39997
1.39997
1.39997
1.39997
1.39997
1.39997
1.39997
1.39997
1.39997
1.39997
1.39997
1.39997
1.39997
1.39997
1.39997
1.39997
1.39997
1.39997
1.39997
2.30623
5.02467
5.44496
5.48083
5.5284
5.569
5.60682
5.64187
5.67633
5.71313
5.75274
5.78995
5.82037
5.84443
5.8659
5.89
5.913
5.92628
5.92872
5.92798
1.39997
1.39997
1.39997
1.39997
1.39997
1.39997
1.39997
1.39997
1.39997
1.39997
1.39997
1.39997
1.39997
1.39997
1.39997
1.39997
1.39997
1.39997
1.39997
1.39997
2.26844
5.00439
5.44562
5.48387
5.53285
5.57225
5.60608
5.63663
5.66923
5.70733
5.74962
5.78897
5.81922
5.84056
5.86041
5.88541
5.90982
5.92316
5.924
5.92197
1.39997
1.39997
1.39997
1.39997
1.39997
1.39997
1.39997
1.39997
1.39997
1.39997
1.39997
1.39997
1.39997
1.39997
1.39997
1.39997
1.39997
1.39997
1.39997
1.39997
2.22689
4.98816
5.45154
5.49077
5.53897
5.57498
5.60515
5.63349
5.66617
5.70522
5.74708
5.78582
5.81544
5.83615
5.85695
5.88177
5.90514
5.91775
5.91825
5.91594
1.39997
1.39997
1.39997
1.39997
1.39997
1.39997
1.39997
1.39997
1.39997
1.39997
1.39997
1.39997
1.39997
1.39997
1.39997
1.39997
1.39997
1.39997
1.39997
1.39997
2.18298
4.97132
5.46021
5.4968
5.54268
5.5753
5.60396
5.63358
5.66829
5.70728
5.74598
5.78038
5.80816
5.83157
5.85556
5.87978
5.90006
5.91057
5.91117
5.90918
1.39997
1.39997
1.39997
1.39997
1.39997
1.39997
1.39997
1.39997
1.39997
1.39997
1.39997
1.39997
1.39997
1.39997
1.39997
1.39997
1.39997
1.39997
1.39997
1.39997
2.13508
4.94778
5.46454
5.49809
5.54191
5.57351
5.60331
5.63594
5.67326
5.71066
5.74463
5.7728
5.79896
5.82742
5.85542
5.87873
5.89525
5.90268
5.90266
5.90115
1.39997
1.39997
1.39997
1.39997
1.39997
1.39997
1.39997
1.39997
1.39997
1.39997
1.39997
1.39997
1.39997
1.39997
1.39997
1.39997
1.39997
1.39997
1.39997
1.39997
2.08688
4.91896
5.46369
5.49315
5.53681
5.57124
5.60548
5.64095
5.67726
5.71173
5.74062
5.76519
5.79189
5.82349
5.85408
5.87696
5.89041
5.89477
5.89311
5.89192
1.39997
1.39997
1.39997
1.39997
1.39997
1.39997
1.39997
1.39997
1.39997
1.39997
1.39997
1.39997
1.39997
1.39997
1.39997
1.39997
1.39997
1.39997
1.39997
1.39997
2.03734
4.87406
5.45662
5.48438
5.53008
5.57039
5.60959
5.64578
5.67834
5.70776
5.73349
5.75976
5.78891
5.82024
5.85039
5.873
5.88453
5.88639
5.883
5.88231
1.39997
1.39997
1.39997
1.39997
1.39997
1.39997
1.39997
1.39997
1.39997
1.39997
1.39997
1.39997
1.39997
1.39997
1.39997
1.39997
1.39997
1.39997
1.39997
1.39997
1.9862
4.82042
5.44487
5.47584
5.52559
5.56977
5.61043
5.64459
5.67279
5.69806
5.72608
5.75734
5.7885
5.81799
5.84507
5.8659
5.87604
5.87659
5.8729
5.87339
1.39997
1.39997
1.39997
1.39997
1.39997
1.39997
1.39997
1.39997
1.39997
1.39997
1.39997
1.39997
1.39997
1.39997
1.39997
1.39997
1.39997
1.39997
1.39997
1.39997
1.93341
4.76375
5.43431
5.46945
5.52281
5.56747
5.60669
5.63785
5.66333
5.68944
5.72118
5.75571
5.78789
5.81541
5.83859
5.8561
5.86441
5.86502
5.86339
5.86573
1.39997
1.39997
1.39997
1.39997
1.39997
1.39997
1.39997
1.39997
1.39997
1.39997
1.39997
1.39997
1.39997
1.39997
1.39997
1.39997
1.39997
1.39997
1.39997
1.39997
1.87968
4.7082
5.42964
5.46588
5.51932
5.56143
5.59742
5.62671
5.65397
5.68448
5.71865
5.75328
5.78464
5.81042
5.83066
5.84431
5.8501
5.85189
5.85461
5.85924
1.39997
1.39997
1.39997
1.39997
1.39997
1.39997
1.39997
1.39997
1.39997
1.39997
1.39997
1.39997
1.39997
1.39997
1.39997
1.39997
1.39997
1.39997
1.39997
1.39997
1.82418
4.65129
5.43068
5.46216
5.51266
5.55075
5.58436
5.61504
5.64755
5.68262
5.71741
5.74956
5.77759
5.80167
5.82073
5.83161
5.83517
5.83891
5.84633
5.85239
1.39997
1.39997
1.39997
1.39997
1.39997
1.39997
1.39997
1.39997
1.39997
1.39997
1.39997
1.39997
1.39997
1.39997
1.39997
1.39997
1.39997
1.39997
1.39997
1.39997
1.76658
4.5842
5.43363
5.45647
5.50325
5.53804
5.57168
5.60616
5.64337
5.6808
5.71452
5.74277
5.76707
5.78985
5.80873
5.81858
5.82168
5.82749
5.83771
5.84356
1.39997
1.39997
1.39997
1.39997
1.39997
1.39997
1.39997
1.39997
1.39997
1.39997
1.39997
1.39997
1.39997
1.39997
1.39997
1.39997
1.39997
1.39997
1.39997
1.39997
1.70565
4.51895
5.44271
5.45503
5.49619
5.52893
5.56393
5.60073
5.6389
5.67569
5.70721
5.73281
5.75545
5.77712
5.79518
5.80536
5.8106
5.818
5.82786
5.8316
1.39997
1.39997
1.39997
1.39997
1.39997
1.39997
1.39997
1.39997
1.39997
1.39997
1.39997
1.39997
1.39997
1.39997
1.39997
1.39997
1.39997
1.39997
1.39997
1.39997
1.64778
4.47349
5.46301
5.45672
5.49239
5.52471
5.56127
5.59752
5.6323
5.66432
5.69323
5.71981
5.7442
5.76529
5.78155
5.79254
5.80154
5.80955
5.81589
5.81633
1.39997
1.39997
1.39997
1.39997
1.39997
1.39997
1.39997
1.39997
1.39997
1.39997
1.39997
1.39997
1.39997
1.39997
1.39997
1.39997
1.39997
1.39997
1.39997
1.39997
1.57981
4.4334
5.47877
5.4586
5.49314
5.52638
5.56289
5.59606
5.62395
5.64886
5.67597
5.70591
5.73344
5.75403
5.76831
5.78021
5.7929
5.80082
5.80161
5.79834
1.39997
1.39997
1.39997
1.39997
1.39997
1.39997
1.39997
1.39997
1.39997
1.39997
1.39997
1.39997
1.39997
1.39997
1.39997
1.39997
1.39997
1.39997
1.39997
1.39997
1.49709
4.35929
5.49002
5.45924
5.49506
5.52891
5.56468
5.59269
5.6135
5.63378
5.66091
5.69318
5.72202
5.74189
5.75545
5.76877
5.78328
5.79008
5.78514
5.7789
1.39997
1.39997
1.39997
1.39997
1.39997
1.39997
1.39997
1.39997
1.39997
1.39997
1.39997
1.39997
1.39997
1.39997
1.39997
1.39997
1.39997
1.39997
1.39997
1.39997
1.4432
4.26865
5.4632
5.45489
5.49439
5.53028
5.56311
5.58605
5.60333
5.62366
5.65168
5.68273
5.70916
5.72772
5.74203
5.75719
5.7713
5.7753
5.76649
5.75963
1.39997
1.39997
1.39997
1.39997
1.39997
1.39997
1.39997
1.39997
1.39997
1.39997
1.39997
1.39997
1.39997
1.39997
1.39997
1.39997
1.39997
1.39997
1.39997
1.39997
1.41062
4.15633
5.42776
5.44599
5.49205
5.52724
5.55761
5.57825
5.59629
5.61913
5.64687
5.67375
5.69549
5.71256
5.72819
5.74427
5.75593
5.75591
5.74589
5.74099
1.39997
1.39997
1.39997
1.39997
1.39997
1.39997
1.39997
1.39997
1.39997
1.39997
1.39997
1.39997
1.39997
1.39997
1.39997
1.39997
1.39997
1.39997
1.39997
1.39997
1.40135
4.02534
5.37957
5.42835
5.4769
5.5174
5.5496
5.57296
5.59334
5.61706
5.64217
5.66378
5.68149
5.69805
5.71432
5.72845
5.73573
5.73255
5.72418
5.72284
1.39997
1.39997
1.39997
1.39997
1.39997
1.39997
1.39997
1.39997
1.39997
1.39997
1.39997
1.39997
1.39997
1.39997
1.39997
1.39997
1.39997
1.39997
1.39997
1.39997
1.40002
3.8926
5.33043
5.39766
5.4528
5.49931
5.53978
5.57057
5.59365
5.61438
5.63336
5.65027
5.667
5.68475
5.70034
5.70962
5.71108
5.70663
5.70179
5.70383
1.39997
1.39997
1.39997
1.39997
1.39997
1.39997
1.39997
1.39997
1.39997
1.39997
1.39997
1.39997
1.39997
1.39997
1.39997
1.39997
1.39997
1.39997
1.39997
1.39997
1.39997
3.75704
5.28889
5.36587
5.4276
5.4815
5.52855
5.56657
5.59408
5.60983
5.62031
5.63353
5.65191
5.67124
5.68392
5.68728
5.684
5.67954
5.6787
5.68291
1.39997
1.39997
1.39997
1.39997
1.39997
1.39997
1.39997
1.39997
1.39997
1.39997
1.39997
1.39997
1.39997
1.39997
1.39997
1.39997
1.39997
1.39997
1.39997
1.39997
1.39997
3.61893
5.24985
5.34401
5.40442
5.46329
5.51597
5.56036
5.58788
5.60027
5.60593
5.61728
5.6365
5.65488
5.66325
5.66188
5.65645
5.65254
5.65357
5.65836
1.39997
1.39997
1.39997
1.39997
1.39997
1.39997
1.39997
1.39997
1.39997
1.39997
1.39997
1.39997
1.39997
1.39997
1.39997
1.39997
1.39997
1.39997
1.39997
1.39997
1.39997
3.48097
5.21635
5.32705
5.38649
5.44555
5.499
5.54264
5.57204
5.58542
5.59345
5.60536
5.62205
5.63487
5.63786
5.63434
5.62913
5.62576
5.62571
5.6287
1.39997
1.39997
1.39997
1.39997
1.39997
1.39997
1.39997
1.39997
1.39997
1.39997
1.39997
1.39997
1.39997
1.39997
1.39997
1.39997
1.39997
1.39997
1.39997
1.39997
1.39997
3.34157
5.1895
5.31054
5.368
5.42554
5.47639
5.51703
5.54715
5.56783
5.58327
5.59731
5.60844
5.61239
5.61061
5.60666
5.60185
5.59723
5.59329
5.59355
1.39997
1.39997
1.39997
1.39997
1.39997
1.39997
1.39997
1.39997
1.39997
1.39997
1.39997
1.39997
1.39997
1.39997
1.39997
1.39997
1.39997
1.39997
1.39997
1.39997
1.39997
3.19986
5.16691
5.29658
5.35033
5.39973
5.44684
5.48828
5.52264
5.55088
5.57266
5.58748
5.59254
5.58891
5.58445
5.57999
5.57343
5.56534
5.55574
5.55221
1.39997
1.39997
1.39997
1.39997
1.39997
1.39997
1.39997
1.39997
1.39997
1.39997
1.39997
1.39997
1.39997
1.39997
1.39997
1.39997
1.39997
1.39997
1.39997
1.39997
1.39997
3.05421
5.1436
5.2855
5.33415
5.37869
5.42119
5.46529
5.50582
5.53933
5.56166
5.57345
5.5727
5.56569
5.56129
5.55485
5.54294
5.52756
5.51092
5.50509
1.39997
1.39997
1.39997
1.39997
1.39997
1.39997
1.39997
1.39997
1.39997
1.39997
1.39997
1.39997
1.39997
1.39997
1.39997
1.39997
1.39997
1.39997
1.39997
1.39997
1.39997
2.90424
5.11546
5.28139
5.32167
5.36435
5.40988
5.4564
5.49918
5.53265
5.54976
5.55409
5.55009
5.54341
5.53987
5.52882
5.50833
5.4838
5.45923
5.44956
1.39997
1.39997
1.39997
1.39997
1.39997
1.39997
1.39997
1.39997
1.39997
1.39997
1.39997
1.39997
1.39997
1.39997
1.39997
1.39997
1.39997
1.39997
1.39997
1.39997
1.39997
2.75049
5.07836
5.28462
5.31371
5.35497
5.40348
5.44917
5.48673
5.51344
5.52744
5.52921
5.52674
5.52334
5.51897
5.50087
5.4692
5.43229
5.39747
5.38404
1.39997
1.39997
1.39997
1.39997
1.39997
1.39997
1.39997
1.39997
1.39997
1.39997
1.39997
1.39997
1.39997
1.39997
1.39997
1.39997
1.39997
1.39997
1.39997
1.39997
1.39997
2.59445
5.0311
5.29537
5.31075
5.34712
5.39003
5.42649
5.45728
5.47935
5.49484
5.50318
5.50577
5.50528
5.49647
5.46787
5.42399
5.37462
5.32622
5.30132
1.39997
1.39997
1.39997
1.39997
1.39997
1.39997
1.39997
1.39997
1.39997
1.39997
1.39997
1.39997
1.39997
1.39997
1.39997
1.39997
1.39997
1.39997
1.39997
1.39997
1.39997
2.43464
4.96875
5.31232
5.31376
5.33945
5.37213
5.40075
5.42416
5.44448
5.46465
5.48036
5.48649
5.48551
5.46966
5.43071
5.37615
5.31055
5.23838
5.19637
1.39997
1.39997
1.39997
1.39997
1.39997
1.39997
1.39997
1.39997
1.39997
1.39997
1.39997
1.39997
1.39997
1.39997
1.39997
1.39997
1.39997
1.39997
1.39997
1.39997
1.39997
2.27356
4.89721
5.34075
5.32329
5.33862
5.35879
5.38121
5.40539
5.42507
5.44626
5.46578
5.47069
5.46332
5.43699
5.38959
5.32584
5.24357
5.13806
5.05568
1.39997
1.39997
1.39997
1.39997
1.39997
1.39997
1.39997
1.39997
1.39997
1.39997
1.39997
1.39997
1.39997
1.39997
1.39997
1.39997
1.39997
1.39997
1.39997
1.39997
1.39997
2.09691
4.8208
5.37666
5.34339
5.34688
5.35212
5.36867
5.39578
5.41953
5.43974
5.45381
5.45565
5.4347
5.39749
5.34586
5.27448
5.17011
5.00864
4.85239
1.39997
1.39997
1.39997
1.39997
1.39997
1.39997
1.39997
1.39997
1.39997
1.39997
1.39997
1.39997
1.39997
1.39997
1.39997
1.39997
1.39997
1.39997
1.39997
1.39997
1.39997
1.89715
4.77257
5.41045
5.35979
5.36106
5.36123
5.37099
5.39318
5.40964
5.41901
5.42246
5.4203
5.39231
5.35175
5.30253
5.22782
5.10105
4.88702
4.61144
1.39997
1.39997
1.39997
1.39997
1.39997
1.39997
1.39997
1.39997
1.39997
1.39997
1.39997
1.39997
1.39997
1.39997
1.39997
1.39997
1.39997
1.39997
1.39997
1.39997
2.43031
5.09946
5.45206
5.49288
5.54408
5.58635
5.62571
5.66335
5.69977
5.73441
5.76681
5.79654
5.82445
5.85309
5.88307
5.91062
5.93031
5.93957
5.94265
5.95043
1.39997
1.39997
1.39997
1.39997
1.39997
1.39997
1.39997
1.39997
1.39997
1.39997
1.39997
1.39997
1.39997
1.39997
1.39997
1.39997
1.39997
1.39997
1.39997
1.39997
2.42614
5.09834
5.4537
5.49348
5.54421
5.58578
5.62405
5.66093
5.6977
5.73343
5.76684
5.79739
5.82593
5.85435
5.88272
5.90811
5.92713
5.93774
5.94269
5.95042
1.39997
1.39997
1.39997
1.39997
1.39997
1.39997
1.39997
1.39997
1.39997
1.39997
1.39997
1.39997
1.39997
1.39997
1.39997
1.39997
1.39997
1.39997
1.39997
1.39997
2.41741
5.09975
5.45493
5.49272
5.54189
5.58259
5.62085
5.65794
5.69494
5.73153
5.76604
5.79759
5.82696
5.85557
5.88271
5.90568
5.92297
5.93441
5.94188
5.95041
1.39997
1.39997
1.39997
1.39997
1.39997
1.39997
1.39997
1.39997
1.39997
1.39997
1.39997
1.39997
1.39997
1.39997
1.39997
1.39997
1.39997
1.39997
1.39997
1.39997
2.41019
5.10528
5.45881
5.49218
5.53811
5.57741
5.6158
5.65395
5.69234
5.73001
5.765
5.79687
5.8268
5.85553
5.88158
5.90287
5.91908
5.93116
5.94046
5.94897
1.39997
1.39997
1.39997
1.39997
1.39997
1.39997
1.39997
1.39997
1.39997
1.39997
1.39997
1.39997
1.39997
1.39997
1.39997
1.39997
1.39997
1.39997
1.39997
1.39997
2.38939
5.09276
5.4569
5.4877
5.5316
5.57066
5.61034
5.65065
5.69103
5.72892
5.76321
5.79463
5.82497
5.85401
5.87968
5.90048
5.91664
5.92901
5.9384
5.94563
1.39997
1.39997
1.39997
1.39997
1.39997
1.39997
1.39997
1.39997
1.39997
1.39997
1.39997
1.39997
1.39997
1.39997
1.39997
1.39997
1.39997
1.39997
1.39997
1.39997
2.36694
5.07453
5.45406
5.48334
5.52675
5.5663
5.60752
5.64897
5.68895
5.72593
5.75995
5.79199
5.82253
5.85119
5.8766
5.8977
5.9152
5.92811
5.93581
5.94049
1.39997
1.39997
1.39997
1.39997
1.39997
1.39997
1.39997
1.39997
1.39997
1.39997
1.39997
1.39997
1.39997
1.39997
1.39997
1.39997
1.39997
1.39997
1.39997
1.39997
2.33917
5.04952
5.44838
5.48066
5.52617
5.56651
5.60694
5.64619
5.68369
5.72018
5.75612
5.79036
5.82087
5.84785
5.87184
5.8942
5.91439
5.92759
5.9326
5.9343
1.39997
1.39997
1.39997
1.39997
1.39997
1.39997
1.39997
1.39997
1.39997
1.39997
1.39997
1.39997
1.39997
1.39997
1.39997
1.39997
1.39997
1.39997
1.39997
1.39997
2.30623
5.02467
5.44496
5.48083
5.5284
5.569
5.60682
5.64187
5.67633
5.71313
5.75274
5.78995
5.82037
5.84443
5.8659
5.89
5.913
5.92628
5.92872
5.92798
1.39997
1.39997
1.39997
1.39997
1.39997
1.39997
1.39997
1.39997
1.39997
1.39997
1.39997
1.39997
1.39997
1.39997
1.39997
1.39997
1.39997
1.39997
1.39997
1.39997
2.26844
5.00439
5.44562
5.48387
5.53285
5.57225
5.60608
5.63663
5.66923
5.70733
5.74962
5.78897
5.81922
5.84056
5.86041
5.88541
5.90982
5.92316
5.924
5.92197
1.39997
1.39997
1.39997
1.39997
1.39997
1.39997
1.39997
1.39997
1.39997
1.39997
1.39997
1.39997
1.39997
1.39997
1.39997
1.39997
1.39997
1.39997
1.39997
1.39997
2.22689
4.98816
5.45154
5.49077
5.53897
5.57498
5.60515
5.63349
5.66617
5.70522
5.74708
5.78582
5.81544
5.83615
5.85695
5.88177
5.90514
5.91775
5.91825
5.91594
1.39997
1.39997
1.39997
1.39997
1.39997
1.39997
1.39997
1.39997
1.39997
1.39997
1.39997
1.39997
1.39997
1.39997
1.39997
1.39997
1.39997
1.39997
1.39997
1.39997
2.18298
4.97132
5.46021
5.4968
5.54268
5.5753
5.60396
5.63358
5.66829
5.70728
5.74598
5.78038
5.80816
5.83157
5.85556
5.87978
5.90006
5.91057
5.91117
5.90918
1.39997
1.39997
1.39997
1.39997
1.39997
1.39997
1.39997
1.39997
1.39997
1.39997
1.39997
1.39997
1.39997
1.39997
1.39997
1.39997
1.39997
1.39997
1.39997
1.39997
2.13508
4.94778
5.46454
5.49809
5.54191
5.57351
5.60331
5.63594
5.67326
5.71066
5.74463
5.7728
5.79896
5.82742
5.85542
5.87873
5.89525
5.90268
5.90266
5.90115
1.39997
1.39997
1.39997
1.39997
1.39997
1.39997
1.39997
1.39997