/*--------------------------------*- C++ -*----------------------------------*\
  =========                 |
  \\      /  F ield         | OpenFOAM: The Open Source CFD Toolbox
   \\    /   O peration     | Website:  https://openfoam.org
    \\  /    A nd           | Version:  6.0
     \\/     M anipulation  |
\*---------------------------------------------------------------------------*/
FoamFile
{
    version     2.0;
    format      ascii;
    class       volScalarField;
    location    "0.999901";
    object      p;
}
// * * * * * * * * * * * * * * * * * * * * * * * * * * * * * * * * * * * * * //

dimensions      [1 -1 -2 0 0 0 0];

internalField   nonuniform List<scalar> 
300
(
1
1
1
1
1
3.65403
10.3431
11.0619
11.2679
11.5519
1
1
1
1
1
3.6178
10.2536
11.0638
11.3243
11.6167
1
1
1
1
1
3.54666
10.1394
11.0401
11.3489
11.6764
1
1
1
1
1
3.42656
9.99387
10.9914
11.2369
11.4708
1
1
1
1
1
3.25232
9.81326
10.91
10.9815
11.0568
1
1
1
1
1
3.0284
9.58679
10.8377
10.8106
10.787
1
1
1
1
1
2.74701
9.29349
10.8138
10.7402
10.7431
1
1
1
1
1
2.42255
8.94064
10.7779
10.7012
10.7
1
1
1
1
1
2.06586
8.54815
10.6107
10.6494
10.328
1
1
1
1
1
1.67881
8.17508
10.3055
10.4226
10.3042
1
1
1
1
1
1.07943
6.29639
9.88713
9.34843
7.79787
1
1
1
1
1
1.00048
2.89761
8.30575
8.43101
6.94894
1
1
1
1
1
1
1.16061
4.94541
8.0619
6.79174
1
1
1
1
1
1
1.0015
1.66885
5.58192
6.81817
1
1
1
1
1
1
1
1.02178
2.11695
5.46224
1
1
1
1
1
1
1
1.00011
1.05749
2.6569
1
1
1
1
1
1
1
1
1.00037
1.1449
1
1
1
1
1
1
1
1
1
1.00149
1
1
1
1
1
1
1
1
1
1
1
1
1
1
1
1
1
1
1
1
1.58144
0.98752
1.05196
0.990785
0.934632
0.897272
0.859118
0.840255
0.840654
0.87568
3.12051
1.38965
1.05125
0.925834
0.891204
0.884465
0.854911
0.844418
0.85019
0.886447
3.73062
1.63528
1.1127
0.925178
0.861626
0.872265
0.87657
0.879937
0.886181
0.913976
4.16184
2.1195
1.32949
0.937806
0.843513
0.871129
0.911864
0.959609
0.966622
0.94939
4.57986
2.65807
1.55512
0.976308
0.88991
0.991135
1.12798
1.23366
1.25387
1.16269
4.27905
3.10412
1.83035
1.21307
1.18722
1.38209
1.51673
1.51191
1.45387
1.34489
3.69618
3.30974
2.20544
1.71165
1.70899
1.81165
1.76319
1.60523
1.43927
1.30419
2.81425
3.21797
2.9849
2.93948
2.67623
2.30995
1.95441
1.65807
1.39324
1.2458
1.81019
3.32022
4.49716
4.00579
3.23397
2.51993
1.96671
1.53369
1.25037
1.14534
1.2267
3.44864
6.22957
5.41352
4.02993
2.85819
2.03155
1.428
1.13188
1.07055
)
;

boundaryField
{
    inlet
    {
        type            fixedValue;
        value           uniform 1;
    }
    outlet
    {
        type            zeroGradient;
    }
    top
    {
        type            symmetryPlane;
    }
    bottom
    {
        type            symmetryPlane;
    }
    step
    {
        type            zeroGradient;
    }
    defaultFaces
    {
        type            empty;
    }
}


// ************************************************************************* //
