/*--------------------------------*- C++ -*----------------------------------*\
  =========                 |
  \\      /  F ield         | OpenFOAM: The Open Source CFD Toolbox
   \\    /   O peration     | Website:  https://openfoam.org
    \\  /    A nd           | Version:  6.0
     \\/     M anipulation  |
\*---------------------------------------------------------------------------*/
FoamFile
{
    version     2.0;
    format      ascii;
    class       volScalarField;
    location    "0.999901";
    object      rho;
}
// * * * * * * * * * * * * * * * * * * * * * * * * * * * * * * * * * * * * * //

dimensions      [1 -3 0 0 0 0 0];

internalField   nonuniform List<scalar> 
300
(
1.39997
1.39997
1.39997
1.39997
1.39997
2.69995
5.24416
5.46652
5.437
5.45842
1.39997
1.39997
1.39997
1.39997
1.39997
2.67614
5.20365
5.46388
5.45494
5.48016
1.39997
1.39997
1.39997
1.39997
1.39997
2.63218
5.14496
5.44884
5.45977
5.49896
1.39997
1.39997
1.39997
1.39997
1.39997
2.5701
5.0763
5.42471
5.41627
5.42684
1.39997
1.39997
1.39997
1.39997
1.39997
2.49112
5.00531
5.39122
5.32475
5.28309
1.39997
1.39997
1.39997
1.39997
1.39997
2.39417
4.93226
5.36926
5.26681
5.19129
1.39997
1.39997
1.39997
1.39997
1.39997
2.27306
4.85064
5.37727
5.25044
5.18143
1.39997
1.39997
1.39997
1.39997
1.39997
2.13412
4.76819
5.39518
5.24717
5.17241
1.39997
1.39997
1.39997
1.39997
1.39997
1.98643
4.69465
5.3797
5.24882
5.04624
1.39997
1.39997
1.39997
1.39997
1.39997
1.81312
4.62575
5.30818
5.20901
4.99372
1.39997
1.39997
1.39997
1.39997
1.39997
1.46265
3.93239
5.21874
4.91776
4.03769
1.39997
1.39997
1.39997
1.39997
1.39997
1.40042
2.47089
4.79442
4.63264
3.91454
1.39997
1.39997
1.39997
1.39997
1.39997
1.39997
1.52038
3.47581
4.59879
4.01221
1.39997
1.39997
1.39997
1.39997
1.39997
1.39997
1.40125
1.84777
3.78661
4.15587
1.39997
1.39997
1.39997
1.39997
1.39997
1.39997
1.39997
1.41792
2.12769
3.72348
1.39997
1.39997
1.39997
1.39997
1.39997
1.39997
1.39997
1.40007
1.44694
2.40126
1.39997
1.39997
1.39997
1.39997
1.39997
1.39997
1.39997
1.39997
1.40032
1.51235
1.39997
1.39997
1.39997
1.39997
1.39997
1.39997
1.39997
1.39997
1.39997
1.4013
1.39997
1.39997
1.39997
1.39997
1.39997
1.39997
1.39997
1.39997
1.39997
1.39997
1.39997
1.39997
1.39997
1.39997
1.39997
1.39997
1.39997
1.39997
1.39997
1.39997
1.14522
0.819578
0.855887
0.795127
0.723291
0.677985
0.653459
0.657702
0.694163
0.872956
2.01921
1.0974
0.903813
0.785657
0.720887
0.685848
0.665291
0.672186
0.712239
0.893636
2.49203
1.32156
1.00849
0.842893
0.755036
0.722837
0.720143
0.732772
0.775992
0.955695
2.85974
1.69923
1.20201
0.919228
0.80264
0.785515
0.804967
0.852163
0.904047
1.0499
3.22092
2.10341
1.4035
0.995635
0.879904
0.919634
1.01561
1.12796
1.21624
1.30231
3.15084
2.46053
1.6453
1.2066
1.13725
1.24628
1.37312
1.43961
1.49846
1.54178
2.90007
2.65382
1.94325
1.58632
1.55547
1.65455
1.67717
1.64989
1.61165
1.58968
2.52247
2.65073
2.48664
2.43283
2.29157
2.12274
1.95898
1.81125
1.65953
1.59154
2.02633
2.91518
3.51509
3.2637
2.83904
2.41852
2.0719
1.77371
1.5627
1.51826
1.61098
3.21895
4.6453
4.18037
3.39697
2.69221
2.14523
1.69436
1.45635
1.45424
)
;

boundaryField
{
    inlet
    {
        type            calculated;
        value           uniform 1.39997;
    }
    outlet
    {
        type            calculated;
        value           nonuniform List<scalar> 10(0.881548 0.902821 0.964799 1.06388 1.32323 1.55329 1.59155 1.59069 1.51261 1.44147);
    }
    top
    {
        type            symmetryPlane;
    }
    bottom
    {
        type            symmetryPlane;
    }
    step
    {
        type            calculated;
        value           nonuniform List<scalar> 
20
(
5.45842
5.48016
5.49896
5.42684
5.28309
5.19129
5.18143
5.17241
5.04624
4.99372
1.14522
0.819578
0.855887
0.795127
0.723291
0.677985
0.653459
0.657702
0.694163
0.872956
)
;
    }
    defaultFaces
    {
        type            empty;
    }
}


// ************************************************************************* //
