/*--------------------------------*- C++ -*----------------------------------*\
  =========                 |
  \\      /  F ield         | OpenFOAM: The Open Source CFD Toolbox
   \\    /   O peration     | Website:  https://openfoam.org
    \\  /    A nd           | Version:  6.0
     \\/     M anipulation  |
\*---------------------------------------------------------------------------*/
FoamFile
{
    version     2.0;
    format      ascii;
    class       volVectorField;
    location    "0.999901";
    object      U;
}
// * * * * * * * * * * * * * * * * * * * * * * * * * * * * * * * * * * * * * //

dimensions      [0 1 -1 0 0 0 0];

internalField   nonuniform List<vector> 
300
(
(3 1.08254e-16 0)
(3 3.20657e-16 0)
(3 -5.54653e-16 0)
(3 -5.98205e-16 0)
(3 1.8468e-16 0)
(1.82145 0.0124065 0)
(0.692772 0.0212378 0)
(0.490614 0.0288011 0)
(0.312651 0.0351742 0)
(0.126132 0.0465804 0)
(3 1.18812e-16 0)
(3 9.37366e-16 0)
(3 -8.09999e-16 0)
(3 -1.26253e-15 0)
(3 -1.27854e-17 0)
(1.81031 0.0426583 0)
(0.671911 0.0695735 0)
(0.469282 0.0798285 0)
(0.302253 0.0965131 0)
(0.123314 0.131154 0)
(3 -2.23969e-17 0)
(3 -5.01718e-16 0)
(3 -6.77754e-16 0)
(3 -9.30464e-16 0)
(3 -6.46144e-16 0)
(1.81384 0.085542 0)
(0.652625 0.121066 0)
(0.447186 0.132529 0)
(0.288983 0.148663 0)
(0.119802 0.191008 0)
(3 4.15429e-16 0)
(3 -9.9574e-16 0)
(3 -1.14441e-15 0)
(3 -6.91628e-16 0)
(3 -1.20243e-15 0)
(1.84903 0.139714 0)
(0.647509 0.180307 0)
(0.435919 0.189145 0)
(0.281308 0.198905 0)
(0.110898 0.24354 0)
(3 2.21628e-16 0)
(3 -3.71775e-16 0)
(3 -1.02116e-15 0)
(3 -7.20094e-16 0)
(3 -7.85381e-16 0)
(1.92082 0.193875 0)
(0.662247 0.243561 0)
(0.440867 0.249891 0)
(0.286754 0.255912 0)
(0.116641 0.303111 0)
(3 -4.17412e-16 0)
(3 -1.67544e-16 0)
(3 -1.86991e-16 0)
(3 -6.89595e-16 0)
(3 -7.75467e-16 0)
(2.02136 0.243953 0)
(0.690001 0.308197 0)
(0.457029 0.305545 0)
(0.296201 0.316962 0)
(0.117008 0.3659 0)
(3 -2.15837e-16 0)
(3 -2.00866e-16 0)
(3 1.53466e-16 0)
(3 -6.98483e-16 0)
(3 -4.5155e-18 0)
(2.15401 0.291967 0)
(0.729134 0.374114 0)
(0.484071 0.359541 0)
(0.32272 0.372603 0)
(0.142356 0.4443 0)
(3 2.72313e-16 0)
(3 6.14914e-16 0)
(3 -3.04342e-16 0)
(3 -9.15639e-16 0)
(3 -1.61691e-17 0)
(2.34122 0.329675 0)
(0.794829 0.439461 0)
(0.533364 0.404494 0)
(0.362786 0.444894 0)
(0.149496 0.549329 0)
(3 -2.66732e-16 0)
(3 3.26201e-16 0)
(3 -2.76242e-16 0)
(3 2.4181e-16 0)
(3 -5.62219e-16 0)
(2.60111 0.335832 0)
(0.903753 0.489543 0)
(0.613391 0.447286 0)
(0.446807 0.538711 0)
(0.21041 0.708929 0)
(3 -4.63868e-16 0)
(3 -3.63738e-16 0)
(3 3.62739e-16 0)
(3 7.21865e-16 0)
(3 -1.45828e-16 0)
(2.87336 0.264274 0)
(1.03019 0.52979 0)
(0.721554 0.47445 0)
(0.563106 0.62603 0)
(0.326041 0.932472 0)
(3 7.5033e-17 0)
(3 1.28203e-16 0)
(3 2.71742e-16 0)
(3 2.28152e-16 0)
(3 2.42536e-16 0)
(3.04159 0.0273254 0)
(1.34744 0.606796 0)
(0.832329 0.627806 0)
(0.77085 0.725097 0)
(0.806475 1.00026 0)
(3 1.22235e-16 0)
(3 -1.09885e-16 0)
(3 -2.76037e-17 0)
(3 3.01188e-16 0)
(3 2.7162e-16 0)
(3.00079 0.000229462 0)
(2.29707 0.466301 0)
(1.10123 0.78033 0)
(0.995107 0.829863 0)
(1.19585 0.891283 0)
(3 -4.48477e-17 0)
(3 -2.3497e-16 0)
(3 -2.76776e-16 0)
(3 -1.63643e-16 0)
(3 1.01734e-16 0)
(3 2.24973e-07 0)
(3.02479 0.0538565 0)
(1.76009 0.747291 0)
(1.1925 0.902329 0)
(1.38039 0.90299 0)
(3 6.62144e-17 0)
(3 1.73173e-17 0)
(3 -1.35606e-16 0)
(3 1.63245e-17 0)
(3 -2.53185e-16 0)
(3 9.16572e-12 0)
(3.00189 0.0013788 0)
(2.86176 0.245555 0)
(1.68639 0.872161 0)
(1.46287 0.943324 0)
(3 -1.11949e-16 0)
(3 -6.76539e-17 0)
(3 2.98058e-16 0)
(3 4.63748e-16 0)
(3 3.27582e-17 0)
(3 -7.78135e-14 0)
(3 1.85081e-06 0)
(3.00498 0.0132425 0)
(2.7035 0.397932 0)
(1.74886 0.898529 0)
(3 -4.10513e-17 0)
(3 1.84244e-16 0)
(3 7.30068e-17 0)
(3 4.82364e-17 0)
(3 3.48437e-17 0)
(3 -1.23081e-13 0)
(3 2.12037e-10 0)
(3.00002 9.7101e-05 0)
(3.00701 0.0245907 0)
(2.47132 0.554562 0)
(3 1.32539e-16 0)
(3 1.2196e-16 0)
(3 -1.28169e-16 0)
(3 -4.39472e-16 0)
(3 -6.45848e-16 0)
(3 -3.06028e-14 0)
(3 -6.68392e-14 0)
(3 4.2843e-08 0)
(3.00008 0.000366614 0)
(3.00227 0.0506132 0)
(3 -9.07127e-19 0)
(3 -1.67003e-16 0)
(3 -2.1691e-17 0)
(3 -2.10687e-16 0)
(3 -2.99522e-16 0)
(3 -1.67521e-15 0)
(3 -2.77059e-14 0)
(3 3.36316e-12 0)
(3 3.73491e-07 0)
(3.00115 0.000534315 0)
(3 -4.20733e-17 0)
(3 -2.12379e-17 0)
(3 7.19075e-17 0)
(3 9.0761e-17 0)
(3 1.78204e-16 0)
(3 -6.34241e-17 0)
(3 -3.53737e-15 0)
(3 -1.83823e-15 0)
(3 4.70724e-11 0)
(3 7.70803e-07 0)
(3 1.3601e-17 0)
(3 1.21859e-16 0)
(3 1.65843e-16 0)
(3 2.50336e-16 0)
(3 9.22001e-17 0)
(3 -2.95774e-16 0)
(3 -9.2144e-17 0)
(3 -4.06317e-16 0)
(3 1.95718e-15 0)
(3 6.71507e-11 0)
(1.77661 0.988781 0)
(2.33974 0.16524 0)
(2.68082 -0.0234653 0)
(2.84607 -0.0382907 0)
(2.98428 -0.00533032 0)
(2.97422 0.0117987 0)
(2.88738 0.0189094 0)
(2.87333 0.0208496 0)
(2.86 0.00766928 0)
(2.85225 -0.00586506 0)
(1.87057 0.465415 0)
(2.37534 -0.0157169 0)
(2.6146 -0.149441 0)
(2.87178 -0.0674069 0)
(2.97974 0.0255303 0)
(2.94778 0.0575995 0)
(2.89298 0.0522224 0)
(2.88236 0.0394493 0)
(2.87676 0.0101589 0)
(2.87118 -0.0123744 0)
(1.89572 0.627094 0)
(2.26437 0.387867 0)
(2.54148 -0.0946103 0)
(2.79844 -0.122112 0)
(2.93425 0.00379028 0)
(2.9038 0.053469 0)
(2.89567 0.0427916 0)
(2.90176 0.025947 0)
(2.91934 -0.0206501 0)
(2.92036 -0.0478541 0)
(1.90383 0.742241 0)
(2.30214 0.418325 0)
(2.56479 -0.0573973 0)
(2.77081 -0.105246 0)
(2.86247 -0.0501563 0)
(2.88327 -0.00105492 0)
(2.89025 -0.0296325 0)
(2.92071 -0.0957785 0)
(2.98467 -0.131508 0)
(3.00449 -0.0788315 0)
(1.88952 0.861796 0)
(2.27226 0.564102 0)
(2.55231 0.196974 0)
(2.67213 0.146703 0)
(2.82873 -0.0555877 0)
(2.84239 -0.143628 0)
(2.86838 -0.275117 0)
(2.95181 -0.380822 0)
(3.06744 -0.411719 0)
(3.10141 -0.243467 0)
(1.99482 0.843414 0)
(2.22103 0.67696 0)
(2.54059 0.37438 0)
(2.64136 0.218351 0)
(2.76642 -0.165931 0)
(2.83824 -0.383808 0)
(2.87962 -0.551089 0)
(2.99437 -0.60857 0)
(3.10767 -0.574275 0)
(3.14675 -0.424588 0)
(2.12176 0.783118 0)
(2.17478 0.774756 0)
(2.40907 0.608013 0)
(2.59693 0.229564 0)
(2.66643 -0.332991 0)
(2.83116 -0.561831 0)
(2.91455 -0.661626 0)
(3.01975 -0.63921 0)
(3.09338 -0.592186 0)
(3.15825 -0.490936 0)
(2.43254 0.673678 0)
(2.26982 0.781144 0)
(2.34509 0.553564 0)
(2.56175 0.15406 0)
(2.66937 -0.231002 0)
(2.81686 -0.482028 0)
(2.94209 -0.515589 0)
(3.03566 -0.540354 0)
(3.0863 -0.53921 0)
(3.17328 -0.457078 0)
(2.80459 0.388775 0)
(2.52911 0.736374 0)
(2.29172 0.225078 0)
(2.47532 -0.155876 0)
(2.62492 -0.367415 0)
(2.78771 -0.442709 0)
(2.94613 -0.453802 0)
(3.0829 -0.425999 0)
(3.10271 -0.420163 0)
(3.15582 -0.355073 0)
(2.94672 0.0928181 0)
(2.57351 0.385703 0)
(2.31982 0.213102 0)
(2.4429 0.10954 0)
(2.6351 -0.0364247 0)
(2.83746 -0.120533 0)
(3.02849 -0.159453 0)
(3.12397 -0.158404 0)
(3.20175 -0.173681 0)
(3.20112 -0.163699 0)
)
;

boundaryField
{
    inlet
    {
        type            fixedValue;
        value           uniform (3 0 0);
    }
    outlet
    {
        type            inletOutlet;
        inletValue      uniform (3 0 0);
        value           nonuniform List<vector> 10((2.85225 -0.00586506 0) (2.87118 -0.0123744 0) (2.92036 -0.0478541 0) (3.00449 -0.0788315 0) (3.10141 -0.243467 0) (3.14675 -0.424588 0) (3.15825 -0.490936 0) (3.17328 -0.457078 0) (3.15582 -0.355073 0) (3.20112 -0.163699 0));
    }
    top
    {
        type            symmetryPlane;
    }
    bottom
    {
        type            symmetryPlane;
    }
    step
    {
        type            slip;
    }
    defaultFaces
    {
        type            empty;
    }
}


// ************************************************************************* //
