/*--------------------------------*- C++ -*----------------------------------*\
  =========                 |
  \\      /  F ield         | OpenFOAM: The Open Source CFD Toolbox
   \\    /   O peration     | Website:  https://openfoam.org
    \\  /    A nd           | Version:  6.0
     \\/     M anipulation  |
\*---------------------------------------------------------------------------*/
FoamFile
{
    version     2.0;
    format      ascii;
    class       volScalarField;
    location    "2.000128";
    object      p;
}
// * * * * * * * * * * * * * * * * * * * * * * * * * * * * * * * * * * * * * //

dimensions      [1 -1 -2 0 0 0 0];

internalField   nonuniform List<scalar> 
2700
(
1
1
1
1
1
1
1
1
1
1
1
1
1
1
1
2.30807
8.98722
10.6066
10.9598
11.1356
10.9922
10.9599
11.6783
12.5483
12.7894
12.0882
10.812
10.8459
12.1427
13.3944
1
1
1
1
1
1
1
1
1
1
1
1
1
1
1
2.31781
9.10284
10.6817
10.8051
10.9317
11.0123
11.0492
11.1524
11.5291
11.7616
11.6494
11.7969
11.6336
11.8059
11.9995
1
1
1
1
1
1
1
1
1
1
1
1
1
1
1
2.32568
9.185
10.6908
10.6349
10.7073
10.8921
11.211
11.0639
10.7361
10.59
11.1899
12.2325
12.3722
11.5226
10.8389
1
1
1
1
1
1
1
1
1
1
1
1
1
1
1
2.2995
9.1569
10.5755
10.4914
10.6898
11.1538
11.4489
11.215
10.4839
10.298
11.1459
12.006
12.572
11.508
10.3898
1
1
1
1
1
1
1
1
1
1
1
1
1
1
1
2.23897
9.04569
10.4641
10.4865
10.8535
11.4097
11.6107
11.3395
10.7554
10.5966
11.2714
12.3737
12.3359
11.5781
11.1624
1
1
1
1
1
1
1
1
1
1
1
1
1
1
1
2.16458
8.86794
10.4126
10.7197
11.0485
11.2516
11.4107
11.4221
11.6118
11.9712
11.9715
11.9344
11.5743
11.9202
12.6179
1
1
1
1
1
1
1
1
1
1
1
1
1
1
1
2.07943
8.72648
10.5128
10.9488
11.0983
11.0095
10.8277
11.2464
12.3386
12.9402
12.6863
11.3646
10.9435
12.087
13.4843
1
1
1
1
1
1
1
1
1
1
1
1
1
1
1
2.00806
8.66321
10.6888
10.9999
11.0508
10.7736
10.554
11.1782
12.3511
13.0055
12.2715
11.0085
11.0591
11.9534
13.1342
1
1
1
1
1
1
1
1
1
1
1
1
1
1
1
1.97497
8.69727
10.7358
10.8794
10.8576
10.6329
10.7064
11.2416
11.6838
11.6821
11.2832
11.2597
11.2467
11.5972
11.9009
1
1
1
1
1
1
1
1
1
1
1
1
1
1
1
1.91701
8.74281
10.7381
10.6251
10.6216
10.8052
11.2509
11.3623
10.9777
10.3631
10.6816
11.5558
11.8355
11.5118
10.6895
1
1
1
1
1
1
1
1
1
1
1
1
1
1
1
1.8262
8.54484
10.6803
10.3568
10.3759
11.0559
11.7559
11.6384
10.69
9.94043
10.5162
11.969
12.6792
11.4794
10.4302
1
1
1
1
1
1
1
1
1
1
1
1
1
1
1
1.71659
8.26662
10.3884
10.2541
10.5531
11.2522
11.6662
11.4375
10.7846
10.4685
11.0046
12.3418
12.7427
11.6066
10.731
1
1
1
1
1
1
1
1
1
1
1
1
1
1
1
1.60274
7.97029
10.2383
10.5015
11.0645
11.2305
11.1865
10.916
10.9447
11.5702
12.2728
12.3717
12.0908
11.7937
12.0255
1
1
1
1
1
1
1
1
1
1
1
1
1
1
1
1.47389
7.73032
10.1743
10.8936
11.2682
11.1112
10.5991
10.4706
11.382
12.5668
12.7671
11.7374
10.4969
11.6606
13.18
1
1
1
1
1
1
1
1
1
1
1
1
1
1
1
1.3781
7.60684
10.5938
10.9671
11.2122
11.0283
10.2945
10.5051
11.8853
12.6164
12.456
10.5514
10.1467
11.356
13.1152
1
1
1
1
1
1
1
1
1
1
1
1
1
1
1
1.28298
7.64855
10.8411
10.8323
10.8372
10.4588
10.5524
11.1915
11.8405
12.1988
11.0312
10.2451
10.2449
11.1292
12.8207
1
1
1
1
1
1
1
1
1
1
1
1
1
1
1
1.14656
7.42768
10.8232
10.6274
10.2549
10.0835
10.7175
11.7161
11.8361
10.8491
10.2941
10.4088
10.8141
11.3004
10.8591
1
1
1
1
1
1
1
1
1
1
1
1
1
1
1
1.05053
7.06981
10.6259
10.2718
9.93567
10.1978
11.2827
11.6858
11.2924
9.88323
10.2986
11.5899
12.1764
11.3818
10.1602
1
1
1
1
1
1
1
1
1
1
1
1
1
1
1
1.01239
6.61106
10.2029
10.0571
10.1651
11.1167
11.4371
11.3217
10.3496
9.77967
10.3779
12.3408
12.8193
11.2187
9.90739
1
1
1
1
1
1
1
1
1
1
1
1
1
1
1
1.004
6.30486
9.99546
10.0026
10.9839
11.3524
11.3692
10.859
9.84787
9.86485
11.1027
12.4023
12.6577
11.2581
9.81736
1
1
1
1
1
1
1
1
1
1
1
1
1
1
1
1.00065
6.05966
9.97815
10.5381
11.0058
11.3092
11.3068
10.3008
10.0537
11.0522
12.1383
11.9693
11.7187
11.1528
11.3863
1
1
1
1
1
1
1
1
1
1
1
1
1
1
1
0.99999
5.9442
10.3094
10.7313
10.8378
10.9186
10.2613
10.178
10.8687
12.1945
12.1969
11.4834
9.57097
10.932
12.7015
1
1
1
1
1
1
1
1
1
1
1
1
1
1
1
0.999983
5.58767
10.3849
10.7427
10.8458
10.2262
9.81743
10.0217
11.7842
12.1906
11.8751
9.70986
9.33185
10.4983
12.5994
1
1
1
1
1
1
1
1
1
1
1
1
1
1
1
0.999989
5.14322
10.1532
10.5227
10.1712
9.82069
9.85404
11.0429
11.7622
11.8929
10.8338
9.15382
9.08816
10.1046
12.3109
1
1
1
1
1
1
1
1
1
1
1
1
1
1
1
0.999999
4.62115
9.87806
9.88535
9.88233
9.83683
10.4218
11.3125
11.6128
11.3555
9.86022
9.0418
9.11519
9.98416
10.8398
1
1
1
1
1
1
1
1
1
1
1
1
1
1
1
1
4.15601
9.51731
9.65425
9.75953
10.3766
11.2196
11.0751
10.9679
9.44869
9.88417
10.6073
11.1531
10.8772
9.48392
1
1
1
1
1
1
1
1
1
1
1
1
1
1
1
1
3.74671
9.22049
9.74518
10.2838
11.0599
11.2291
11.1963
9.67364
9.07201
9.59405
12.2305
12.3731
10.9214
8.87016
1
1
1
1
1
1
1
1
1
1
1
1
1
1
1
1
3.4637
8.9545
10.3332
10.9073
11.0373
11.0266
10.2642
9.44522
9.31133
10.6908
12.3322
12.5036
10.5343
8.24673
1
1
1
1
1
1
1
1
1
1
1
1
1
1
1
1
3.1596
9.27625
10.672
10.8453
10.9126
10.2653
9.48307
9.2908
10.2948
11.4999
11.9027
12.5056
9.64335
7.53315
1
1
1
1
1
1
1
1
1
1
1
1
1
1
1
1
2.66342
9.24415
10.5968
10.5517
10.1242
9.57175
9.53561
10.4517
11.4873
11.2191
10.5421
8.73469
9.22682
9.50558
1
1
1
1
1
1
1
1
1
1
1
1
1
1
1
1
1.66313
8.08011
10.1398
9.96029
10.0283
10.2479
10.4966
10.7257
10.5351
10.0549
9.27664
8.87945
8.68634
7.64036
1
1
1
1
1
1
1
1
1
1
1
1
1
1
1
1
1.02889
6.13718
9.82457
10.0073
10.1509
10.1575
10.0642
9.842
9.66366
9.51688
9.47368
9.00716
7.98542
6.18711
1
1
1
1
1
1
1
1
1
1
1
1
1
1
1
1
0.999975
3.63575
9.25226
9.85021
9.84126
9.77188
9.65607
9.55493
9.43478
9.2197
8.86107
8.25759
7.27233
5.99211
1
1
1
1
1
1
1
1
1
1
1
1
1
1
1
1
0.999998
1.53741
7.7837
9.73488
9.64445
9.5564
9.45864
9.31117
9.07426
8.74469
8.3115
7.76568
6.89922
5.92545
1
1
1
1
1
1
1
1
1
1
1
1
1
1
1
1
1
1.01673
5.21058
9.31323
9.37153
9.30918
9.19018
8.97349
8.70187
8.38114
7.98037
7.45472
6.70624
5.9013
1
1
1
1
1
1
1
1
1
1
1
1
1
1
1
1
1
0.999977
2.16649
8.08601
9.18532
9.07823
8.98894
8.77412
8.4803
8.13395
7.70232
7.20437
6.60667
5.9342
1
1
1
1
1
1
1
1
1
1
1
1
1
1
1
1
1
0.999995
1.07155
5.36148
8.84279
8.8877
8.80974
8.61329
8.31073
7.94565
7.5078
7.03645
6.52597
5.96527
1
1
1
1
1
1
1
1
1
1
1
1
1
1
1
1
1
1
1.00023
1.90773
7.53323
8.79351
8.58371
8.4619
8.18869
7.84638
7.42968
6.9581
6.47635
5.99474
1
1
1
1
1
1
1
1
1
1
1
1
1
1
1
1
1
1
1
1.04192
4.5793
8.26315
8.34709
8.19829
8.00288
7.73582
7.38174
6.94086
6.48349
6.04804
1
1
1
1
1
1
1
1
1
1
1
1
1
1
1
1
1
1
1
1.00011
1.54991
6.35848
8.25704
8.05204
7.87266
7.63532
7.3275
6.94034
6.53272
6.13191
1
1
1
1
1
1
1
1
1
1
1
1
1
1
1
1
1
1
1
1
1.0154
2.68175
7.32012
7.9718
7.71835
7.49895
7.2137
6.8893
6.55556
6.1964
1
1
1
1
1
1
1
1
1
1
1
1
1
1
1
1
1
1
1
1
1.00005
1.13324
4.48796
7.64838
7.62619
7.39517
7.12546
6.85152
6.57134
6.23301
1
1
1
1
1
1
1
1
1
1
1
1
1
1
1
1
1
1
1
1
1
1.00125
1.56795
5.53121
7.54284
7.34163
7.09123
6.83823
6.57564
6.24399
1
1
1
1
1
1
1
1
1
1
1
1
1
1
1
1
1
1
1
1
1
1
1.01683
2.12515
6.11772
7.32549
7.07793
6.82504
6.56989
6.25053
1
1
1
1
1
1
1
1
1
1
1
1
1
1
1
1
1
1
1
1
1
1
1.00008
1.06144
2.73173
6.39622
7.12519
6.83793
6.57597
6.29028
1
1
1
1
1
1
1
1
1
1
1
1
1
1
1
1
1
1
1
1
1
1
1
1.00051
1.14328
3.2911
6.45843
6.89778
6.61599
6.34084
1
1
1
1
1
1
1
1
1
1
1
1
1
1
1
1
1
1
1
1
1
1
1
1
1.00185
1.25708
3.70387
6.36044
6.67333
6.41208
1
1
1
1
1
1
1
1
1
1
1
1
1
1
1
1
1
1
1
1
1
1
1
1
1
1.00479
1.3774
3.92078
6.20178
6.46874
1
1
1
1
1
1
1
1
1
1
1
1
1
1
1
1
1
1
1
1
1
1
1
1
1
1.00002
1.00931
1.47106
3.95424
6.12417
1
1
1
1
1
1
1
1
1
1
1
1
1
1
1
1
1
1
1
1
1
1
1
1
1
1
1.00004
1.01432
1.50845
4.18654
1
1
1
1
1
1
1
1
1
1
1
1
1
1
1
1
1
1
1
1
1
1
1
1
1
1
1
1.00008
1.01543
1.68739
1
1
1
1
1
1
1
1
1
1
1
1
1
1
1
1
1
1
1
1
1
1
1
1
1
1
1
1
1.00009
1.02729
1
1
1
1
1
1
1
1
1
1
1
1
1
1
1
1
1
1
1
1
1
1
1
1
1
1
1
1
1
1.00009
1
1
1
1
1
1
1
1
1
1
1
1
1
1
1
1
1
1
1
1
1
1
1
1
1
1
1
1
1
1
1
1
1
1
1
1
1
1
1
1
1
1
1
1
1
1
1
1
1
1
1
1
1
1
1
1
1
1
1
1
1
1
1
1
1
1
1
1
1
1
1
1
1
1
1
1
1
1
1
1
1
1
1
1
1
1
1
1
1
1
1
1
1
1
1
1
1
1
1
1
1
1
1
1
1
1
1
1
1
1
1
1
1
1
1
1
1
1
1
1
1
1
1
1
1
1
1
1
1
1
1
1
1
1
1
1
1
1
1
1
1
1
1
1
1
1
1
1
1
1
1
1
1
1
1
1
1
1
1
1
1
1
1
1
1
1
1
1
1
1
1
1
1
1
1
1
1
1
1
1
1
1
1
1
1
1
1
1
1
1
1
1
1
1
1
1
1
1
1
1
1
1
1
1
1
1
1
1
1
1
1.05098
0.559407
0.851982
1.1246
1.17408
1.19749
1.23642
1.25295
1.2661
1.29191
1.29723
1.29806
1.4709
3.43674
5.2989
5.5365
5.1332
4.73169
4.43602
4.14938
3.88198
3.63936
3.43447
3.25804
3.08866
2.91885
2.74556
2.56683
2.41944
2.21511
2.45196
0.882667
0.943883
1.03085
1.10239
1.17198
1.21374
1.23164
1.25891
1.28603
1.29939
1.31598
1.63612
3.14416
4.83198
5.27965
5.05036
4.74183
4.45117
4.17551
3.90289
3.65462
3.43716
3.24806
3.07471
2.91151
2.75308
2.58807
2.43787
2.21837
3.15227
1.26437
0.979772
0.965075
1.06107
1.1781
1.22221
1.22892
1.25001
1.27335
1.29423
1.35136
1.93356
2.77234
4.22548
5.2443
5.07091
4.72938
4.4294
4.17026
3.91896
3.6802
3.45218
3.245
3.0534
2.87645
2.72241
2.58121
2.45466
2.23423
3.59516
1.81678
1.20611
0.971274
1.00522
1.08616
1.17188
1.22552
1.255
1.26908
1.28835
1.45667
2.39928
2.65279
3.33693
4.58007
4.99853
4.7149
4.41265
4.16707
3.93508
3.69307
3.45426
3.24449
3.05501
2.87678
2.71329
2.56415
2.44447
2.24016
3.98348
2.31779
1.47857
1.03278
1.0394
1.05147
1.10977
1.19836
1.28917
1.29337
1.31676
1.72904
2.85251
2.77113
2.82186
3.64037
4.63956
4.7166
4.42876
4.15824
3.92799
3.69706
3.45923
3.23978
3.04584
2.87453
2.72165
2.57061
2.43613
2.22628
4.28299
2.74053
1.79632
1.25063
1.12085
1.05296
1.07546
1.15612
1.25292
1.27674
1.37493
2.16421
3.02375
2.92206
2.77707
2.90739
3.92523
4.52006
4.43748
4.18541
3.92089
3.68967
3.45766
3.23461
3.03661
2.86649
2.71652
2.56666
2.43107
2.22344
4.50716
3.08276
2.11077
1.50875
1.22444
1.0519
1.07131
1.12553
1.20772
1.24684
1.5397
2.61718
3.00286
2.90482
2.73466
2.61973
3.06318
4.0284
4.34025
4.17829
3.92013
3.67282
3.44263
3.22365
3.02389
2.85017
2.69792
2.54898
2.41998
2.223
4.67937
3.38871
2.37051
1.77384
1.3907
1.10647
1.10935
1.10932
1.1473
1.21606
1.86171
2.90701
2.92614
2.84575
2.69939
2.56417
2.55953
3.24321
4.09604
4.12542
3.91662
3.65394
3.42341
3.21132
3.01141
2.82981
2.67246
2.52941
2.41243
2.22357
4.84007
3.64557
2.61298
2.02334
1.54121
1.22734
1.16758
1.10459
1.11036
1.25519
2.24594
2.91505
2.92596
2.80447
2.68008
2.53343
2.42788
2.58636
3.41139
3.95616
3.87344
3.63854
3.40655
3.20136
3.01196
2.82604
2.65338
2.50572
2.40009
2.22076
5.01474
3.84456
2.84279
2.24229
1.70067
1.41081
1.24875
1.10384
1.1023
1.42312
2.5177
2.89772
2.88939
2.76835
2.66493
2.55467
2.41111
2.32262
2.63682
3.43469
3.70493
3.59846
3.38163
3.17784
3.00464
2.83433
2.66072
2.50454
2.3916
2.21029
5.1634
4.01889
3.05474
2.43537
1.87833
1.59494
1.32893
1.13836
1.15373
1.77643
2.65573
2.85592
2.81244
2.72825
2.64005
2.55323
2.40869
2.23011
2.19002
2.6325
3.28377
3.45463
3.3439
3.16522
2.97823
2.82175
2.66762
2.51885
2.39787
2.20013
5.29485
4.1568
3.26643
2.60284
2.05796
1.76575
1.43285
1.22077
1.30102
2.25081
2.72453
2.74732
2.71295
2.65912
2.59493
2.49962
2.3549
2.17352
2.03397
2.08242
2.57087
3.16005
3.27836
3.15871
2.97562
2.79758
2.64559
2.51073
2.39489
2.18923
5.39875
4.26539
3.4582
2.74868
2.24566
1.91632
1.54106
1.30895
1.62836
2.74131
2.78061
2.68409
2.59335
2.54665
2.49797
2.40526
2.25787
2.08899
1.98003
1.91868
2.01403
2.55227
3.08245
3.10585
2.99654
2.80216
2.62551
2.49621
2.38389
2.16978
5.49168
4.36912
3.62242
2.87916
2.43568
2.04092
1.65137
1.44878
2.21929
3.08718
2.93859
2.69715
2.54676
2.4059
2.32439
2.2404
2.12135
1.99699
1.93546
1.88026
1.83399
2.00009
2.55969
2.95069
2.92803
2.81735
2.63571
2.46057
2.3138
2.12696
5.57541
4.4829
3.76451
3.02807
2.60935
2.12799
1.77164
1.76144
2.92427
3.25715
3.05474
2.75369
2.52254
2.35045
2.20264
2.09368
2.00537
1.93107
1.89715
1.86922
1.79337
1.76836
2.01909
2.53791
2.76645
2.74032
2.62967
2.43911
2.27905
2.0914
5.64366
4.61788
3.88661
3.19333
2.76267
2.19632
1.90208
2.37101
3.61204
3.4092
3.11844
2.81514
2.53798
2.31644
2.14645
2.03212
1.92989
1.87009
1.87826
1.87084
1.78462
1.67042
1.67543
1.96802
2.41064
2.57221
2.54795
2.42332
2.27016
2.07992
5.71286
4.78436
4.00301
3.37302
2.86931
2.28342
2.09413
3.26929
4.03076
3.65505
3.2367
2.89599
2.58972
2.33192
2.1444
2.00062
1.89212
1.81047
1.806
1.79967
1.72543
1.61313
1.52717
1.55992
1.84444
2.24395
2.39498
2.36401
2.25709
2.08607
5.79447
4.95493
4.11453
3.55867
2.92895
2.40395
2.59016
4.20802
4.21513
3.81246
3.34673
2.96479
2.64315
2.37848
2.1782
2.02051
1.87481
1.77244
1.72464
1.68419
1.60727
1.53172
1.46291
1.4097
1.45352
1.74605
2.12311
2.24054
2.2153
2.08639
5.92972
5.13091
4.2526
3.68376
2.96062
2.559
3.53961
4.92597
4.42238
3.92152
3.46044
3.06587
2.73183
2.45378
2.2256
2.03888
1.87393
1.74791
1.65062
1.55246
1.4636
1.42212
1.40264
1.37196
1.33091
1.38433
1.69332
2.04062
2.14657
2.07751
5.92244
5.30465
4.41083
3.73773
3.03646
2.85851
4.77331
5.28988
4.70072
4.07907
3.58187
3.16587
2.81674
2.52652
2.28304
2.06604
1.87813
1.73417
1.61385
1.49304
1.38957
1.34814
1.34329
1.3379
1.29551
1.26958
1.34638
1.6554
2.01972
1.99758
5.61286
5.36107
4.51146
3.75063
3.13714
3.73582
5.8554
5.47115
4.8401
4.20303
3.68275
3.254
2.89214
2.58812
2.33126
2.10383
1.90383
1.73588
1.5938
1.46261
1.35883
1.30357
1.29361
1.28562
1.26965
1.23679
1.22001
1.3128
1.64067
1.8669
4.85253
5.09402
4.56392
3.73456
3.28227
5.22114
6.56285
5.7177
4.96917
4.33032
3.79745
3.35565
2.97701
2.65291
2.37511
2.12831
1.91424
1.73607
1.5854
1.44898
1.33825
1.27514
1.25178
1.23002
1.21107
1.18436
1.15288
1.13385
1.23699
1.59881
3.32904
4.92528
4.61722
3.86205
3.85353
6.78443
6.85047
5.94352
5.10545
4.44121
3.89225
3.42964
3.03301
2.69439
2.40307
2.14819
1.92914
1.74346
1.58095
1.44156
1.33843
1.2724
1.21889
1.16897
1.13151
1.11655
1.0826
1.03209
1.02277
1.24624
2.47456
4.83905
4.67317
4.05763
5.22324
7.98464
7.03019
6.06217
5.20578
4.52435
3.96752
3.49652
3.09339
2.74516
2.43939
2.17283
1.95592
1.77406
1.60576
1.45428
1.34512
1.27019
1.19867
1.12506
1.05815
1.04025
1.0131
0.96967
0.952004
1.00755
1.57326
4.44419
4.74312
4.30755
7.17337
8.62761
7.2238
6.15293
5.28988
4.59907
4.031
3.55026
3.14004
2.78307
2.46795
2.19165
1.96404
1.77633
1.61097
1.47197
1.36155
1.26256
1.1753
1.08906
1.01724
0.987286
0.952808
0.918903
0.909284
0.915518
1.10358
3.8248
4.49615
5.06258
9.05411
8.87836
7.39067
6.22913
5.34993
4.65314
4.07637
3.58543
3.16683
2.80926
2.49962
2.23175
2.00232
1.80768
1.63442
1.49204
1.37601
1.26536
1.16465
1.0686
0.997021
0.953477
0.912797
0.877535
0.877588
0.877873
1.00084
3.02153
4.07892
6.73267
10.3311
9.00839
7.48122
6.30964
5.42999
4.7229
4.12922
3.62493
3.19693
2.83359
2.52199
2.25371
2.02289
1.83111
1.65768
1.51044
1.38593
1.27333
1.16098
1.05485
0.985296
0.933029
0.886851
0.850569
0.853257
0.847838
0.999944
2.07757
3.66334
8.99424
11.2933
9.15804
7.54371
6.35673
5.47661
4.7636
4.15835
3.6448
3.21172
2.84505
2.531
2.26315
2.03058
1.83155
1.66276
1.52059
1.39495
1.27612
1.16036
1.05526
0.984582
0.925368
0.873444
0.839427
0.826101
0.80681
0.999978
1.3694
3.38395
10.8838
11.5927
9.17542
7.52927
6.40024
5.53038
4.80633
4.18929
3.66708
3.22771
2.85803
2.54584
2.27928
2.05316
1.84457
1.702
1.56856
1.4351
1.30493
1.18342
1.08556
1.01287
0.944516
0.883373
0.839858
0.811132
0.78084
0.999988
1.06847
4.42121
13.571
12.2338
9.24265
7.4664
6.37318
5.5275
4.80985
4.19596
3.67611
3.23434
2.8566
2.53402
2.26864
2.04536
1.85715
1.6781
1.52692
1.39006
1.26101
1.13936
1.05241
0.984796
0.91749
0.849749
0.818733
0.78644
0.754071
)
;

boundaryField
{
    inlet
    {
        type            fixedValue;
        value           uniform 1;
    }
    outlet
    {
        type            zeroGradient;
    }
    top
    {
        type            symmetryPlane;
    }
    bottom
    {
        type            symmetryPlane;
    }
    step
    {
        type            zeroGradient;
    }
    defaultFaces
    {
        type            empty;
    }
}


// ************************************************************************* //
