/*--------------------------------*- C++ -*----------------------------------*\
  =========                 |
  \\      /  F ield         | OpenFOAM: The Open Source CFD Toolbox
   \\    /   O peration     | Website:  https://openfoam.org
    \\  /    A nd           | Version:  6.0
     \\/     M anipulation  |
\*---------------------------------------------------------------------------*/
FoamFile
{
    version     2.0;
    format      ascii;
    class       volScalarField;
    location    "2.000128";
    object      rho;
}
// * * * * * * * * * * * * * * * * * * * * * * * * * * * * * * * * * * * * * //

dimensions      [1 -3 0 0 0 0 0];

internalField   nonuniform List<scalar> 
2700
(
1.39997
1.39997
1.39997
1.39997
1.39997
1.39997
1.39997
1.39997
1.39997
1.39997
1.39997
1.39997
1.39997
1.39997
1.39997
2.10038
4.88806
5.45296
5.58009
5.64264
5.59032
5.58073
5.84217
6.15335
6.23844
5.98418
5.51218
5.51238
5.9611
6.3885
1.39997
1.39997
1.39997
1.39997
1.39997
1.39997
1.39997
1.39997
1.39997
1.39997
1.39997
1.39997
1.39997
1.39997
1.39997
2.10506
4.93139
5.48085
5.5238
5.56905
5.59826
5.61339
5.65437
5.79422
5.87645
5.82901
5.87171
5.79735
5.84345
5.91062
1.39997
1.39997
1.39997
1.39997
1.39997
1.39997
1.39997
1.39997
1.39997
1.39997
1.39997
1.39997
1.39997
1.39997
1.39997
2.10622
4.96075
5.48476
5.46231
5.48803
5.55618
5.67295
5.62315
5.50729
5.45496
5.66763
6.0258
6.05945
5.74562
5.49857
1.39997
1.39997
1.39997
1.39997
1.39997
1.39997
1.39997
1.39997
1.39997
1.39997
1.39997
1.39997
1.39997
1.39997
1.39997
2.09105
4.94974
5.44335
5.41064
5.48289
5.65264
5.76009
5.67902
5.41568
5.34942
5.65397
5.94734
6.13031
5.7434
5.33806
1.39997
1.39997
1.39997
1.39997
1.39997
1.39997
1.39997
1.39997
1.39997
1.39997
1.39997
1.39997
1.39997
1.39997
1.39997
2.0617
4.91071
5.4039
5.41065
5.54513
5.74596
5.81909
5.72435
5.51567
5.45935
5.69934
6.07848
6.05142
5.77001
5.62182
1.39997
1.39997
1.39997
1.39997
1.39997
1.39997
1.39997
1.39997
1.39997
1.39997
1.39997
1.39997
1.39997
1.39997
1.39997
2.02652
4.84849
5.38767
5.49957
5.61857
5.69051
5.74775
5.75403
5.82703
5.95567
5.95031
5.92768
5.78404
5.89542
6.13912
1.39997
1.39997
1.39997
1.39997
1.39997
1.39997
1.39997
1.39997
1.39997
1.39997
1.39997
1.39997
1.39997
1.39997
1.39997
1.98658
4.80046
5.42867
5.58611
5.63847
5.60497
5.5376
5.69085
6.08334
6.29659
6.2041
5.72407
5.55896
5.95568
6.44016
1.39997
1.39997
1.39997
1.39997
1.39997
1.39997
1.39997
1.39997
1.39997
1.39997
1.39997
1.39997
1.39997
1.39997
1.39997
1.94973
4.78091
5.49551
5.6071
5.62355
5.51927
5.4376
5.66605
6.08806
6.32032
6.05923
5.59579
5.60262
5.91054
6.32415
1.39997
1.39997
1.39997
1.39997
1.39997
1.39997
1.39997
1.39997
1.39997
1.39997
1.39997
1.39997
1.39997
1.39997
1.39997
1.9319
4.79611
5.51398
5.5646
5.55338
5.46796
5.49374
5.68897
5.85252
5.85486
5.70598
5.68803
5.67215
5.7867
5.89781
1.39997
1.39997
1.39997
1.39997
1.39997
1.39997
1.39997
1.39997
1.39997
1.39997
1.39997
1.39997
1.39997
1.39997
1.39997
1.89944
4.81786
5.51441
5.46983
5.46568
5.5313
5.69221
5.73251
5.59666
5.37418
5.48894
5.79467
5.88346
5.75794
5.46249
1.39997
1.39997
1.39997
1.39997
1.39997
1.39997
1.39997
1.39997
1.39997
1.39997
1.39997
1.39997
1.39997
1.39997
1.39997
1.85098
4.74219
5.48958
5.36783
5.37388
5.62211
5.87319
5.8321
5.49172
5.21813
5.42966
5.94245
6.17946
5.74699
5.37081
1.39997
1.39997
1.39997
1.39997
1.39997
1.39997
1.39997
1.39997
1.39997
1.39997
1.39997
1.39997
1.39997
1.39997
1.39997
1.79028
4.63146
5.37857
5.32815
5.4391
5.6929
5.8412
5.76019
5.52697
5.41614
5.60955
6.07533
6.20398
5.79497
5.48451
1.39997
1.39997
1.39997
1.39997
1.39997
1.39997
1.39997
1.39997
1.39997
1.39997
1.39997
1.39997
1.39997
1.39997
1.39997
1.7293
4.52101
5.32356
5.42173
5.62696
5.68642
5.67016
5.57228
5.587
5.81837
6.06226
6.08819
5.98106
5.86284
5.94682
1.39997
1.39997
1.39997
1.39997
1.39997
1.39997
1.39997
1.39997
1.39997
1.39997
1.39997
1.39997
1.39997
1.39997
1.39997
1.66905
4.44924
5.30826
5.5708
5.70475
5.64701
5.4584
5.4106
5.74649
6.17096
6.23677
5.8663
5.40592
5.8164
6.34949
1.39997
1.39997
1.39997
1.39997
1.39997
1.39997
1.39997
1.39997
1.39997
1.39997
1.39997
1.39997
1.39997
1.39997
1.39997
1.62365
4.42586
5.47886
5.60678
5.69306
5.62271
5.34912
5.42611
5.92879
6.1904
6.13123
5.4354
5.27894
5.70888
6.33012
1.39997
1.39997
1.39997
1.39997
1.39997
1.39997
1.39997
1.39997
1.39997
1.39997
1.39997
1.39997
1.39997
1.39997
1.39997
1.57538
4.4728
5.58377
5.57405
5.56739
5.42038
5.44893
5.68144
5.91614
6.04953
5.62239
5.32533
5.31793
5.6299
6.2384
1.39997
1.39997
1.39997
1.39997
1.39997
1.39997
1.39997
1.39997
1.39997
1.39997
1.39997
1.39997
1.39997
1.39997
1.39997
1.49163
4.3974
5.58937
5.50972
5.35889
5.28767
5.51719
5.87554
5.9193
5.56182
5.35309
5.3901
5.53204
5.69198
5.5324
1.39997
1.39997
1.39997
1.39997
1.39997
1.39997
1.39997
1.39997
1.39997
1.39997
1.39997
1.39997
1.39997
1.39997
1.39997
1.43386
4.24847
5.51838
5.37885
5.24416
5.336
5.72863
5.86887
5.7279
5.20593
5.35595
5.81807
6.01599
5.72115
5.27901
1.39997
1.39997
1.39997
1.39997
1.39997
1.39997
1.39997
1.39997
1.39997
1.39997
1.39997
1.39997
1.39997
1.39997
1.39997
1.41091
4.04602
5.3473
5.2944
5.33327
5.67822
5.78921
5.74521
5.38345
5.17029
5.38992
6.08719
6.24381
5.66257
5.18795
1.39997
1.39997
1.39997
1.39997
1.39997
1.39997
1.39997
1.39997
1.39997
1.39997
1.39997
1.39997
1.39997
1.39997
1.39997
1.40391
3.90669
5.25807
5.26885
5.6349
5.76778
5.7715
5.5802
5.19968
5.20817
5.65824
6.11394
6.19203
5.68134
5.16033
1.39997
1.39997
1.39997
1.39997
1.39997
1.39997
1.39997
1.39997
1.39997
1.39997
1.39997
1.39997
1.39997
1.39997
1.39997
1.40062
3.79402
5.24087
5.45962
5.63908
5.75157
5.75245
5.37548
5.28063
5.6491
6.02983
5.96583
5.87243
5.64609
5.73022
1.39997
1.39997
1.39997
1.39997
1.39997
1.39997
1.39997
1.39997
1.39997
1.39997
1.39997
1.39997
1.39997
1.39997
1.39997
1.39996
3.74486
5.35153
5.52228
5.56913
5.60563
5.36387
5.33062
5.58577
6.05862
6.0532
5.79901
5.07776
5.56807
6.19565
1.39997
1.39997
1.39997
1.39997
1.39997
1.39997
1.39997
1.39997
1.39997
1.39997
1.39997
1.39997
1.39997
1.39997
1.39997
1.39995
3.60084
5.37552
5.51642
5.56347
5.34343
5.19473
5.27557
5.91897
6.05998
5.94378
5.13978
4.99063
5.41119
6.16472
1.39997
1.39997
1.39997
1.39997
1.39997
1.39997
1.39997
1.39997
1.39997
1.39997
1.39997
1.39997
1.39997
1.39997
1.39997
1.39996
3.41341
5.28935
5.43202
5.30845
5.18825
5.2073
5.65047
5.91306
5.95776
5.56665
4.93438
4.90265
5.26876
6.07588
1.39997
1.39997
1.39997
1.39997
1.39997
1.39997
1.39997
1.39997
1.39997
1.39997
1.39997
1.39997
1.39997
1.39997
1.39997
1.39997
3.19201
5.19813
5.19536
5.19877
5.19096
5.41665
5.74664
5.85764
5.76578
5.20394
4.89811
4.92813
5.22885
5.54563
1.39997
1.39997
1.39997
1.39997
1.39997
1.39997
1.39997
1.39997
1.39997
1.39997
1.39997
1.39997
1.39997
1.39997
1.39997
1.39997
2.99214
5.07969
5.10983
5.14996
5.38796
5.70386
5.65583
5.62501
5.05351
5.21146
5.48359
5.6731
5.55787
5.04216
1.39997
1.39997
1.39997
1.39997
1.39997
1.39997
1.39997
1.39997
1.39997
1.39997
1.39997
1.39997
1.39997
1.39997
1.39997
1.39997
2.81571
4.9811
5.14909
5.34619
5.63765
5.70248
5.69652
5.13521
4.90972
5.10823
6.06719
6.10963
5.57479
4.81348
1.39997
1.39997
1.39997
1.39997
1.39997
1.39997
1.39997
1.39997
1.39997
1.39997
1.39997
1.39997
1.39997
1.39997
1.39997
1.39997
2.68901
4.88985
5.37809
5.58428
5.62834
5.62499
5.34932
5.04865
5.00073
5.51695
6.11115
6.1705
5.43603
4.57704
1.39997
1.39997
1.39997
1.39997
1.39997
1.39997
1.39997
1.39997
1.39997
1.39997
1.39997
1.39997
1.39997
1.39997
1.39997
1.39997
2.54093
5.03607
5.5201
5.57436
5.59338
5.34636
5.05183
4.98345
5.3646
5.80385
5.96278
6.20481
5.10353
4.30815
1.39997
1.39997
1.39997
1.39997
1.39997
1.39997
1.39997
1.39997
1.39997
1.39997
1.39997
1.39997
1.39997
1.39997
1.39997
1.39997
2.31195
5.06451
5.52259
5.49322
5.31493
5.09445
5.07149
5.40917
5.7895
5.69011
5.44171
4.74706
4.92395
5.02085
1.39997
1.39997
1.39997
1.39997
1.39997
1.39997
1.39997
1.39997
1.39997
1.39997
1.39997
1.39997
1.39997
1.39997
1.39997
1.39997
1.81272
4.70567
5.39224
5.29013
5.29166
5.3578
5.43677
5.50901
5.42883
5.245
4.94205
4.77984
4.69151
4.13763
1.39997
1.39997
1.39997
1.39997
1.39997
1.39997
1.39997
1.39997
1.39997
1.39997
1.39997
1.39997
1.39997
1.39997
1.39997
1.39997
1.42288
3.89524
5.2828
5.32548
5.36105
5.34844
5.29717
5.19675
5.11659
5.04982
5.02117
4.8314
4.41639
3.61632
1.39997
1.39997
1.39997
1.39997
1.39997
1.39997
1.39997
1.39997
1.39997
1.39997
1.39997
1.39997
1.39997
1.39997
1.39997
1.39997
1.39993
2.79566
5.10108
5.2948
5.2744
5.23276
5.17291
5.11639
5.0522
4.9516
4.79728
4.54834
4.14281
3.58395
1.39997
1.39997
1.39997
1.39997
1.39997
1.39997
1.39997
1.39997
1.39997
1.39997
1.39997
1.39997
1.39997
1.39997
1.39997
1.39997
1.39997
1.74853
4.61634
5.28131
5.23249
5.18365
5.13067
5.05508
4.94262
4.79356
4.60413
4.37059
4.00387
3.57827
1.39997
1.39997
1.39997
1.39997
1.39997
1.39997
1.39997
1.39997
1.39997
1.39997
1.39997
1.39997
1.39997
1.39997
1.39997
1.39997
1.39997
1.41297
3.51344
5.13558
5.14513
5.1159
5.05807
4.95666
4.82977
4.68087
4.49893
4.26666
3.94186
3.58459
1.39997
1.39997
1.39997
1.39997
1.39997
1.39997
1.39997
1.39997
1.39997
1.39997
1.39997
1.39997
1.39997
1.39997
1.39997
1.39997
1.39997
1.39994
2.10754
4.76314
5.10621
5.0549
5.00741
4.90701
4.7722
4.61256
4.41547
4.19042
3.92381
3.6187
1.39997
1.39997
1.39997
1.39997
1.39997
1.39997
1.39997
1.39997
1.39997
1.39997
1.39997
1.39997
1.39997
1.39997
1.39997
1.39997
1.39997
1.39996
1.45598
3.61112
5.00376
4.99534
4.96069
4.87151
4.73292
4.56504
4.36455
4.14891
3.91645
3.6576
1.39997
1.39997
1.39997
1.39997
1.39997
1.39997
1.39997
1.39997
1.39997
1.39997
1.39997
1.39997
1.39997
1.39997
1.39997
1.39997
1.39997
1.39997
1.40015
1.97963
4.6146
5.0062
4.91008
4.84202
4.71074
4.55199
4.36136
4.14571
3.92293
3.69668
1.39997
1.39997
1.39997
1.39997
1.39997
1.39997
1.39997
1.39997
1.39997
1.39997
1.39997
1.39997
1.39997
1.39997
1.39997
1.39997
1.39997
1.39997
1.39997
1.43346
3.31063
4.84865
4.83635
4.76461
4.66702
4.53734
4.37069
4.16605
3.95266
3.74609
1.39997
1.39997
1.39997
1.39997
1.39997
1.39997
1.39997
1.39997
1.39997
1.39997
1.39997
1.39997
1.39997
1.39997
1.39997
1.39997
1.39997
1.39997
1.39997
1.40006
1.77481
4.14587
4.8502
4.75093
4.65594
4.53508
4.38432
4.19973
4.00552
3.81237
1.39997
1.39997
1.39997
1.39997
1.39997
1.39997
1.39997
1.39997
1.39997
1.39997
1.39997
1.39997
1.39997
1.39997
1.39997
1.39997
1.39997
1.39997
1.39997
1.39997
1.41259
2.43182
4.6002
4.761
4.63929
4.52432
4.37975
4.21796
4.05219
3.87436
1.39997
1.39997
1.39997
1.39997
1.39997
1.39997
1.39997
1.39997
1.39997
1.39997
1.39997
1.39997
1.39997
1.39997
1.39997
1.39997
1.39997
1.39997
1.39997
1.39997
1.40002
1.50375
3.335
4.68535
4.64358
4.52429
4.38542
4.24389
4.09973
3.92868
1.39997
1.39997
1.39997
1.39997
1.39997
1.39997
1.39997
1.39997
1.39997
1.39997
1.39997
1.39997
1.39997
1.39997
1.39997
1.39997
1.39997
1.39997
1.39997
1.39997
1.39997
1.40106
1.79376
3.84418
4.65444
4.54968
4.41751
4.28344
4.14507
3.97491
1.39997
1.39997
1.39997
1.39997
1.39997
1.39997
1.39997
1.39997
1.39997
1.39997
1.39997
1.39997
1.39997
1.39997
1.39997
1.39997
1.39997
1.39997
1.39997
1.39997
1.39997
1.39997
1.41401
2.14006
4.14271
4.59376
4.46702
4.33066
4.19224
4.02432
1.39997
1.39997
1.39997
1.39997
1.39997
1.39997
1.39997
1.39997
1.39997
1.39997
1.39997
1.39997
1.39997
1.39997
1.39997
1.39997
1.39997
1.39997
1.39997
1.39997
1.39997
1.39997
1.40005
1.45009
2.49423
4.29057
4.53715
4.39241
4.25059
4.09555
1.39997
1.39997
1.39997
1.39997
1.39997
1.39997
1.39997
1.39997
1.39997
1.39997
1.39997
1.39997
1.39997
1.39997
1.39997
1.39997
1.39997
1.39997
1.39997
1.39997
1.39997
1.39997
1.39997
1.40044
1.51296
2.80811
4.33289
4.46274
4.32065
4.17294
1.39997
1.39997
1.39997
1.39997
1.39997
1.39997
1.39997
1.39997
1.39997
1.39997
1.39997
1.39997
1.39997
1.39997
1.39997
1.39997
1.39997
1.39997
1.39997
1.39997
1.39997
1.39997
1.39997
1.39997
1.40164
1.59581
3.03672
4.30307
4.38577
4.25296
1.39997
1.39997
1.39997
1.39997
1.39997
1.39997
1.39997
1.39997
1.39997
1.39997
1.39997
1.39997
1.39997
1.39997
1.39997
1.39997
1.39997
1.39997
1.39997
1.39997
1.39997
1.39997
1.39997
1.39997
1.39997
1.4042
1.68042
3.16223
4.25216
4.31682
1.39997
1.39997
1.39997
1.39997
1.39997
1.39997
1.39997
1.39997
1.39997
1.39997
1.39997
1.39997
1.39997
1.39997
1.39997
1.39997
1.39997
1.39997
1.39997
1.39997
1.39997
1.39997
1.39997
1.39997
1.39997
1.39998
1.4081
1.74524
3.20843
4.21267
1.39997
1.39997
1.39997
1.39997
1.39997
1.39997
1.39997
1.39997
1.39997
1.39997
1.39997
1.39997
1.39997
1.39997
1.39997
1.39997
1.39997
1.39997
1.39997
1.39997
1.39997
1.39997
1.39997
1.39997
1.39997
1.39997
1.40001
1.41243
1.77775
3.28578
1.39997
1.39997
1.39997
1.39997
1.39997
1.39997
1.39997
1.39997
1.39997
1.39997
1.39997
1.39997
1.39997
1.39997
1.39997
1.39997
1.39997
1.39997
1.39997
1.39997
1.39997
1.39997
1.39997
1.39997
1.39997
1.39997
1.39997
1.40005
1.41335
1.87802
1.39997
1.39997
1.39997
1.39997
1.39997
1.39997
1.39997
1.39997
1.39997
1.39997
1.39997
1.39997
1.39997
1.39997
1.39997
1.39997
1.39997
1.39997
1.39997
1.39997
1.39997
1.39997
1.39997
1.39997
1.39997
1.39997
1.39997
1.39997
1.40005
1.4228
1.39997
1.39997
1.39997
1.39997
1.39997
1.39997
1.39997
1.39997
1.39997
1.39997
1.39997
1.39997
1.39997
1.39997
1.39997
1.39997
1.39997
1.39997
1.39997
1.39997
1.39997
1.39997
1.39997
1.39997
1.39997
1.39997
1.39997
1.39997
1.39997
1.40005
1.39997
1.39997
1.39997
1.39997
1.39997
1.39997
1.39997
1.39997
1.39997
1.39997
1.39997
1.39997
1.39997
1.39997
1.39997
1.39997
1.39997
1.39997
1.39997
1.39997
1.39997
1.39997
1.39997
1.39997
1.39997
1.39997
1.39997
1.39997
1.39997
1.39997
1.39997
1.39997
1.39997
1.39997
1.39997
1.39997
1.39997
1.39997
1.39997
1.39997
1.39997
1.39997
1.39997
1.39997
1.39997
1.39997
1.39997
1.39997
1.39997
1.39997
1.39997
1.39997
1.39997
1.39997
1.39997
1.39997
1.39997
1.39997
1.39997
1.39997
1.39997
1.39997
1.39997
1.39997
1.39997
1.39997
1.39997
1.39997
1.39997
1.39997
1.39997
1.39997
1.39997
1.39997
1.39997
1.39997
1.39997
1.39997
1.39997
1.39997
1.39997
1.39997
1.39997
1.39997
1.39997
1.39997
1.39997
1.39997
1.39997
1.39997
1.39997
1.39997
1.39997
1.39997
1.39997
1.39997
1.39997
1.39997
1.39997
1.39997
1.39997
1.39997
1.39997
1.39997
1.39997
1.39997
1.39997
1.39997
1.39997
1.39997
1.39997
1.39997
1.39997
1.39997
1.39997
1.39997
1.39997
1.39997
1.39997
1.39997
1.39997
1.39997
1.39997
1.39997
1.39997
1.39997
1.39997
1.39997
1.39997
1.39997
1.39997
1.39997
1.39997
1.39997
1.39997
1.39997
1.39997
1.39997
1.39997
1.39997
1.39997
1.39997
1.39997
1.39997
1.39997
1.39997
1.39997
1.39997
1.39997
1.39997
1.39997
1.39997
1.39997
1.39997
1.39997
1.39997
1.39997
1.39997
1.39997
1.39997
1.39997
1.39997
1.39997
1.39997
1.39997
1.39997
1.39997
1.39997
1.39997
1.39997
1.39997
1.39997
1.39997
1.39997
1.39997
1.39997
1.39997
1.39997
1.39997
1.39997
1.39997
1.39997
1.39997
1.39997
1.39997
1.39997
1.39997
1.39997
1.39997
1.39997
1.39997
1.39997
1.39997
1.39997
1.39997
1.39997
1.39997
1.39997
1.39997
1.39997
1.39997
1.39997
1.39997
1.39997
1.39997
1.39997
1.39997
1.39997
1.39997
1.39997
0.884931
0.491691
0.67067
0.837155
0.881945
0.901239
0.924785
0.940112
0.959714
0.986645
0.993486
0.993396
1.08492
1.98802
2.75614
2.88955
2.73855
2.5836
2.4763
2.37273
2.27028
2.17126
2.08492
2.00957
1.93583
1.85996
1.78059
1.69672
1.62612
1.52482
1.71711
0.734285
0.774994
0.829565
0.875259
0.917957
0.936278
0.949283
0.973802
1.00106
1.0117
1.02123
1.19272
1.93847
2.67014
2.8708
2.76889
2.63639
2.52164
2.41586
2.30597
2.20019
2.10522
2.02204
1.94466
1.8699
1.79559
1.71684
1.644
1.53377
2.19154
1.05124
0.861502
0.85916
0.919541
0.988769
1.00275
1.0003
1.01707
1.03965
1.05458
1.08965
1.40084
1.8843
2.58997
3.02567
2.91133
2.74621
2.61063
2.49783
2.38561
2.2742
2.16662
2.06935
1.97863
1.89263
1.81576
1.74436
1.6801
1.56528
2.47471
1.46303
1.06623
0.914786
0.940656
0.993408
1.04119
1.06347
1.0824
1.09626
1.11005
1.21211
1.7192
1.90571
2.28663
2.87989
3.01002
2.86662
2.71789
2.60066
2.48834
2.36711
2.24617
2.14049
2.04472
1.95261
1.86607
1.78591
1.72134
1.60931
2.69323
1.79811
1.28797
0.9927
0.998172
1.00718
1.045
1.09712
1.15241
1.15822
1.17516
1.42781
2.03762
2.01413
2.05823
2.47743
2.936
2.94142
2.80612
2.67569
2.56297
2.44521
2.3212
2.20674
2.10519
2.01326
1.92882
1.8446
1.77001
1.65107
2.85411
2.05837
1.51362
1.168
1.07947
1.02915
1.04381
1.09651
1.15891
1.17676
1.24284
1.70761
2.15873
2.11078
2.04561
2.11598
2.6222
2.89507
2.85367
2.73213
2.60553
2.49003
2.36985
2.25331
2.14908
2.0573
1.97401
1.88964
1.81355
1.69435
2.97897
2.25948
1.71733
1.35139
1.16505
1.03914
1.05081
1.08836
1.14585
1.17433
1.3664
1.95722
2.16244
2.11308
2.02668
1.97089
2.20612
2.6856
2.83255
2.75576
2.63245
2.51016
2.39263
2.27923
2.17466
2.08164
1.99782
1.91424
1.84163
1.72828
3.07917
2.43311
1.87809
1.5258
1.28265
1.08361
1.08396
1.08504
1.11296
1.16092
1.56171
2.10844
2.12685
2.0884
2.0147
1.94803
1.95979
2.31746
2.73865
2.75474
2.65325
2.52264
2.40527
2.29588
2.19152
2.09466
2.00838
1.92796
1.86189
1.75313
3.17381
2.57699
2.02301
1.68223
1.38306
1.17211
1.13056
1.08838
1.09289
1.1924
1.76876
2.11304
2.12777
2.07352
2.01487
1.94433
1.90316
1.9977
2.43207
2.7025
2.65978
2.53978
2.41945
2.3127
2.21349
2.11373
2.01839
1.93481
1.87458
1.77054
3.27691
2.6904
2.15775
1.81612
1.4871
1.29972
1.19108
1.09216
1.09017
1.30467
1.91298
2.11691
2.12079
2.06754
2.02211
1.97349
1.90817
1.87492
2.05562
2.47673
2.61211
2.5526
2.43527
2.32611
2.23385
2.14094
2.04341
1.95372
1.88836
1.78165
3.37349
2.79338
2.2816
1.93285
1.60106
1.42316
1.2489
1.11833
1.12896
1.51427
1.99109
2.11649
2.0985
2.06353
2.02734
1.99304
1.92734
1.83798
1.82718
2.08018
2.43579
2.51504
2.45011
2.35107
2.24785
2.15997
2.07114
1.98364
1.91222
1.79364
3.46411
2.88193
2.40667
2.03536
1.71579
1.53584
1.32238
1.1784
1.23226
1.77408
2.03985
2.06991
2.06096
2.04437
2.02291
1.98489
1.91827
1.82469
1.74967
1.78575
2.0739
2.39993
2.44947
2.3806
2.27732
2.17476
2.08481
2.00344
1.93332
1.80735
3.54633
2.95943
2.52366
2.12748
1.83512
1.63502
1.39879
1.24217
1.44156
2.04704
2.08833
2.04798
2.01374
2.00294
1.99076
1.95265
1.88092
1.7916
1.73147
1.70257
1.76482
2.08796
2.38325
2.37993
2.31815
2.20636
2.10055
2.02018
1.95049
1.81726
3.62913
3.03775
2.62883
2.21331
1.956
1.71857
1.47714
1.34013
1.77955
2.25155
2.18523
2.07069
2.00803
1.9458
1.91342
1.87633
1.81607
1.75045
1.71823
1.68852
1.66685
1.77453
2.11219
2.3244
2.30754
2.24133
2.13242
2.02417
1.93266
1.81299
3.71323
3.12576
2.72593
2.31182
2.06804
1.78064
1.56227
1.54551
2.16208
2.36057
2.2667
2.12348
2.014
1.93375
1.86106
1.80679
1.76014
1.72239
1.7066
1.69237
1.6493
1.64009
1.80081
2.11133
2.23854
2.2206
2.15245
2.0348
1.93368
1.81127
3.79387
3.22889
2.81707
2.42288
2.1717
1.83498
1.65008
1.90707
2.54597
2.45746
2.32532
2.18169
2.04402
1.93068
1.84259
1.78386
1.7262
1.69517
1.70603
1.70519
1.65456
1.5835
1.59086
1.77912
2.04795
2.1432
2.12613
2.0456
1.94699
1.82219
3.87404
3.35139
2.90781
2.54445
2.25241
1.90291
1.77765
2.37764
2.78509
2.61517
2.41737
2.25184
2.0959
1.95763
1.85472
1.77431
1.71371
1.66635
1.66905
1.66967
1.62558
1.55432
1.50011
1.52333
1.7104
1.96431
2.05517
2.03144
1.95848
1.84412
3.95764
3.47844
2.99854
2.6726
2.30639
1.98711
2.08413
2.86811
2.90342
2.72805
2.50607
2.31517
2.14681
2.0023
1.8893
1.79863
1.71251
1.65154
1.625
1.6029
1.55475
1.50836
1.4653
1.43123
1.46311
1.66255
1.90933
1.97988
1.95443
1.86411
4.07761
3.61056
3.10563
2.77119
2.34785
2.09267
2.59729
3.26628
3.03949
2.81288
2.5942
2.39533
2.21744
2.06258
1.93114
1.82158
1.72211
1.64539
1.58573
1.5242
1.46549
1.44284
1.43443
1.41657
1.39103
1.43066
1.6478
1.87986
1.93561
1.88286
4.10643
3.75038
3.23237
2.83177
2.41853
2.2842
3.20769
3.48562
3.21635
2.92678
2.68517
2.47145
2.28259
2.11918
1.97809
1.84888
1.73413
1.64548
1.57168
1.49459
1.42582
1.40215
1.40551
1.40628
1.379
1.36425
1.42271
1.64419
1.88668
1.85616
3.95692
3.81057
3.32797
2.87808
2.49402
2.79183
3.77137
3.60959
3.32487
3.02125
2.76188
2.53763
2.33973
2.16797
2.01913
1.88328
1.7617
1.65823
1.56966
1.48557
1.4181
1.3833
1.38355
1.38337
1.37584
1.35466
1.34619
1.41715
1.65711
1.79534
3.4835
3.67638
3.38534
2.91237
2.60004
3.53058
4.15062
3.76915
3.42043
3.11001
2.84071
2.60903
2.40229
2.21906
2.05792
1.9117
1.78272
1.67376
1.57962
1.4912
1.41711
1.37669
1.36625
1.35568
1.34595
1.3288
1.30751
1.29457
1.37552
1.6283
2.64391
3.54738
3.40308
2.99691
2.95413
4.25984
4.31992
3.91151
3.51323
3.18659
2.90798
2.66556
2.45075
2.26115
2.09338
1.94344
1.81194
1.69794
1.59487
1.5033
1.43378
1.3901
1.35448
1.32031
1.29455
1.28632
1.26187
1.22123
1.2158
1.38549
2.34146
3.5206
3.43081
3.10569
3.67344
4.84299
4.4274
3.99159
3.58658
3.25156
2.96987
2.72486
2.50912
2.31657
2.14159
1.98418
1.8532
1.74079
1.6328
1.53103
1.45529
1.40263
1.3505
1.29504
1.24271
1.23116
1.21098
1.17565
1.16318
1.20925
1.89932
3.44535
3.48394
3.2449
4.5281
5.14063
4.5411
4.06358
3.65891
3.32171
3.03653
2.78867
2.5704
2.37308
2.1915
2.02553
1.8846
1.76545
1.65685
1.56161
1.48233
1.40811
1.34129
1.2729
1.21433
1.19129
1.16362
1.13665
1.13061
1.13742
1.50216
3.17025
3.38342
3.63492
5.31803
5.27336
4.66234
4.14968
3.73844
3.39887
3.10911
2.85459
2.62918
2.42822
2.24632
2.08208
1.93656
1.80936
1.69156
1.59079
1.50514
1.41975
1.34002
1.26117
1.20139
1.16587
1.13215
1.10405
1.10565
1.10715
1.40081
2.74109
3.21791
4.41555
5.95774
5.42399
4.78662
4.26602
3.85076
3.50138
3.19696
2.92855
2.69113
2.48056
2.2919
2.12272
1.97204
1.84253
1.72127
1.61432
1.5205
1.43266
1.34207
1.25347
1.195
1.15127
1.11206
1.08195
1.08567
1.08164
1.39991
2.22088
3.09306
5.47679
6.5225
5.63877
4.93056
4.38017
3.95177
3.58885
3.2676
2.9839
2.73492
2.5155
2.31978
2.14652
1.99054
1.85237
1.73254
1.62805
1.53211
1.4383
1.34425
1.25683
1.19738
1.14662
1.10142
1.07222
1.06175
1.04503
1.39995
1.73144
3.08836
6.62324
6.86663
5.79059
5.0111
4.46524
4.03204
3.65517
3.31909
3.02286
2.76413
2.53832
2.34061
2.16593
2.01273
1.86722
1.76507
1.66665
1.56484
1.46229
1.36397
1.28359
1.22293
1.16418
1.11062
1.07285
1.04831
1.02131
1.39996
1.46655
3.79624
7.9535
7.30732
5.88534
5.00944
4.47231
4.04832
3.67171
3.33408
3.0364
2.77416
2.54173
2.33613
2.16131
2.00972
1.87867
1.74861
1.63548
1.53
1.42748
1.32808
1.25599
1.19905
1.1408
1.08066
1.05396
1.02559
0.996176
)
;

boundaryField
{
    inlet
    {
        type            calculated;
        value           uniform 1.39997;
    }
    outlet
    {
        type            calculated;
        value           nonuniform List<scalar> 
30
(
1.52456
1.53386
1.56569
1.60945
1.65134
1.69461
1.72827
1.75298
1.77031
1.78149
1.79405
1.80822
1.81828
1.81317
1.81145
1.82246
1.84411
1.86356
1.88301
1.85761
1.79722
1.63285
1.39078
1.21142
1.13763
1.10683
1.08147
1.0453
1.0219
0.996936
)
;
    }
    top
    {
        type            symmetryPlane;
    }
    bottom
    {
        type            symmetryPlane;
    }
    step
    {
        type            calculated;
        value           nonuniform List<scalar> 
60
(
6.3885
5.91062
5.49857
5.33806
5.62182
6.13912
6.44016
6.32415
5.89781
5.46249
5.37081
5.48451
5.94682
6.34949
6.33012
6.2384
5.5324
5.27901
5.18795
5.16033
5.73022
6.19565
6.16472
6.07588
5.54563
5.04216
4.81348
4.57704
4.30815
5.02085
0.884931
0.491691
0.67067
0.837155
0.881945
0.901239
0.924785
0.940112
0.959714
0.986645
0.993486
0.993396
1.08492
1.98802
2.75614
2.88955
2.73855
2.5836
2.4763
2.37273
2.27028
2.17126
2.08492
2.00957
1.93583
1.85996
1.78059
1.69672
1.62612
1.52482
)
;
    }
    defaultFaces
    {
        type            empty;
    }
}


// ************************************************************************* //
