/*--------------------------------*- C++ -*----------------------------------*\
  =========                 |
  \\      /  F ield         | OpenFOAM: The Open Source CFD Toolbox
   \\    /   O peration     | Website:  https://openfoam.org
    \\  /    A nd           | Version:  6.0
     \\/     M anipulation  |
\*---------------------------------------------------------------------------*/
FoamFile
{
    version     2.0;
    format      ascii;
    class       volScalarField;
    location    "2.000128";
    object      T;
}
// * * * * * * * * * * * * * * * * * * * * * * * * * * * * * * * * * * * * * //

dimensions      [0 0 0 1 0 0 0];

internalField   nonuniform List<scalar> 
2700
(
1
1
1
1
1
1
1
1
1
1
1
1
1
1
1
1.5384
2.57399
2.7231
2.74965
2.7628
2.75274
2.74938
2.79848
2.85491
2.87007
2.82797
2.74599
2.75451
2.85173
2.93524
1
1
1
1
1
1
1
1
1
1
1
1
1
1
1
1.54146
2.5842
2.72843
2.73847
2.74805
2.75387
2.75564
2.76123
2.78561
2.80202
2.79787
2.81269
2.80933
2.82845
2.84217
1
1
1
1
1
1
1
1
1
1
1
1
1
1
1
1.54584
2.59209
2.7288
2.72569
2.73139
2.74444
2.76664
2.75452
2.72915
2.71783
2.76403
2.84196
2.85847
2.80758
2.75966
1
1
1
1
1
1
1
1
1
1
1
1
1
1
1
1.53953
2.58991
2.7199
2.71459
2.72948
2.76242
2.78261
2.76468
2.71012
2.69504
2.75982
2.82614
2.87105
2.80511
2.72484
1
1
1
1
1
1
1
1
1
1
1
1
1
1
1
1.52035
2.57879
2.71089
2.71332
2.74016
2.77991
2.79333
2.77324
2.7299
2.71734
2.76867
2.84986
2.85384
2.80919
2.7797
1
1
1
1
1
1
1
1
1
1
1
1
1
1
1
1.49535
2.56056
2.70569
2.72881
2.75293
2.7681
2.77929
2.77902
2.78978
2.81402
2.81662
2.81859
2.80144
2.83065
2.87739
1
1
1
1
1
1
1
1
1
1
1
1
1
1
1
1.46541
2.54492
2.71108
2.74394
2.75558
2.74987
2.73736
2.76666
2.83951
2.8771
2.8627
2.77952
2.756
2.84122
2.93124
1
1
1
1
1
1
1
1
1
1
1
1
1
1
1
1.44185
2.5368
2.72294
2.74642
2.75106
2.73272
2.71723
2.76191
2.84017
2.88075
2.8353
2.75412
2.76343
2.83128
2.9075
1
1
1
1
1
1
1
1
1
1
1
1
1
1
1
1.43118
2.5387
2.72576
2.73709
2.73713
2.72236
2.72832
2.7664
2.79485
2.79333
2.76835
2.77131
2.77585
2.8057
2.82492
1
1
1
1
1
1
1
1
1
1
1
1
1
1
1
1.41292
2.54048
2.72613
2.71942
2.7206
2.73478
2.76711
2.77484
2.746
2.69958
2.72437
2.79184
2.81625
2.79895
2.73958
1
1
1
1
1
1
1
1
1
1
1
1
1
1
1
1.38122
2.52257
2.72372
2.70114
2.70306
2.75304
2.80222
2.79375
2.72514
2.66691
2.71146
2.81975
2.87249
2.79638
2.71878
1
1
1
1
1
1
1
1
1
1
1
1
1
1
1
1.34234
2.49878
2.70396
2.69425
2.71626
2.76709
2.79606
2.77979
2.73171
2.70591
2.74641
2.84398
2.87547
2.80396
2.73918
1
1
1
1
1
1
1
1
1
1
1
1
1
1
1
1.29751
2.46807
2.69243
2.71164
2.75282
2.7649
2.76196
2.7425
2.74247
2.78394
2.83417
2.84486
2.83005
2.81619
2.83098
1
1
1
1
1
1
1
1
1
1
1
1
1
1
1
1.23627
2.43237
2.68332
2.73761
2.76525
2.75463
2.71846
2.70922
2.7729
2.85095
2.86583
2.80108
2.71838
2.80663
2.906
1
1
1
1
1
1
1
1
1
1
1
1
1
1
1
1.18825
2.40616
2.70694
2.73839
2.75717
2.74587
2.69428
2.71038
2.80649
2.85321
2.84413
2.71767
2.69089
2.7848
2.90055
1
1
1
1
1
1
1
1
1
1
1
1
1
1
1
1.14013
2.39397
2.7181
2.72063
2.72511
2.70129
2.71119
2.75772
2.80187
2.82302
2.74677
2.69333
2.69701
2.76747
2.87711
1
1
1
1
1
1
1
1
1
1
1
1
1
1
1
1.0761
2.3647
2.71088
2.70033
2.67901
2.66973
2.71953
2.79161
2.79936
2.73084
2.69218
2.70347
2.73668
2.77939
2.74789
1
1
1
1
1
1
1
1
1
1
1
1
1
1
1
1.0257
2.32967
2.6957
2.67346
2.6524
2.67552
2.75727
2.78756
2.76
2.65778
2.69191
2.7888
2.83354
2.78514
2.69443
1
1
1
1
1
1
1
1
1
1
1
1
1
1
1
1.00454
2.2875
2.6712
2.65935
2.6683
2.74083
2.76576
2.75882
2.69141
2.64806
2.69553
2.83821
2.87431
2.77363
2.67351
1
1
1
1
1
1
1
1
1
1
1
1
1
1
1
1.00118
2.25935
2.6613
2.65776
2.72892
2.75549
2.75777
2.72432
2.65145
2.6517
2.74705
2.83989
2.86181
2.77418
2.6634
1
1
1
1
1
1
1
1
1
1
1
1
1
1
1
1.00018
2.23598
2.66542
2.70221
2.73233
2.75272
2.75173
2.68271
2.66537
2.73898
2.81819
2.80878
2.7937
2.76537
2.78182
1
1
1
1
1
1
1
1
1
1
1
1
1
1
1
0.999997
2.22217
2.69697
2.72054
2.7244
2.72684
2.6782
2.67302
2.72404
2.8178
2.82086
2.77227
2.63877
2.74862
2.87004
1
1
1
1
1
1
1
1
1
1
1
1
1
1
1
0.999995
2.17243
2.70459
2.72632
2.7292
2.67924
2.64578
2.65945
2.78722
2.81625
2.797
2.64476
2.61777
2.71609
2.86125
1
1
1
1
1
1
1
1
1
1
1
1
1
1
1
0.999997
2.10943
2.68733
2.71196
2.68239
2.64996
2.64923
2.736
2.78481
2.79462
2.72462
2.5971
2.59516
2.68491
2.83661
1
1
1
1
1
1
1
1
1
1
1
1
1
1
1
1
2.02677
2.66037
2.66376
2.6612
2.65293
2.69358
2.7559
2.77545
2.75718
2.6526
2.58431
2.58942
2.67315
2.73646
1
1
1
1
1
1
1
1
1
1
1
1
1
1
1
1
1.94453
2.62298
2.64503
2.65304
2.69619
2.75377
2.74139
2.72973
2.61756
2.65521
2.70806
2.75228
2.73985
2.63323
1
1
1
1
1
1
1
1
1
1
1
1
1
1
1
1
1.86286
2.59147
2.64958
2.69295
2.74645
2.75676
2.75158
2.63724
2.58681
2.62936
2.82213
2.83519
2.74264
2.57983
1
1
1
1
1
1
1
1
1
1
1
1
1
1
1
1
1.80329
2.56368
2.68982
2.73444
2.74536
2.74434
2.68623
2.61912
2.60673
2.71286
2.82512
2.83683
2.71296
2.52241
1
1
1
1
1
1
1
1
1
1
1
1
1
1
1
1
1.74084
2.57869
2.70657
2.72375
2.73132
2.68801
2.62796
2.61001
2.68657
2.77394
2.79456
2.82158
2.6453
2.44796
1
1
1
1
1
1
1
1
1
1
1
1
1
1
1
1
1.61279
2.55534
2.68626
2.68915
2.66674
2.63034
2.63227
2.70504
2.77776
2.76029
2.71213
2.57597
2.62336
2.65045
1
1
1
1
1
1
1
1
1
1
1
1
1
1
1
1
1.28444
2.40389
2.63257
2.63587
2.65311
2.67773
2.70288
2.72565
2.71677
2.68381
2.62786
2.60071
2.59205
2.58512
1
1
1
1
1
1
1
1
1
1
1
1
1
1
1
1
1.01233
2.20573
2.60356
2.63075
2.65078
2.65875
2.65983
2.65137
2.64411
2.63838
2.64139
2.60995
2.53133
2.39519
1
1
1
1
1
1
1
1
1
1
1
1
1
1
1
1
1
1.82066
2.53924
2.60444
2.61214
2.61436
2.61327
2.61446
2.61439
2.60669
2.58589
2.54167
2.45752
2.34065
1
1
1
1
1
1
1
1
1
1
1
1
1
1
1
1
1
1.23093
2.36051
2.58052
2.5804
2.58093
2.58091
2.57866
2.57023
2.5539
2.52726
2.48747
2.41234
2.31828
1
1
1
1
1
1
1
1
1
1
1
1
1
1
1
1
1
1.00738
2.07621
2.53881
2.54996
2.54746
2.54365
2.53449
2.52234
2.50666
2.48332
2.44603
2.38175
2.30477
1
1
1
1
1
1
1
1
1
1
1
1
1
1
1
1
1
1
1.43913
2.37662
2.51834
2.51424
2.51312
2.50325
2.48777
2.46875
2.4421
2.40689
2.35718
2.29577
1
1
1
1
1
1
1
1
1
1
1
1
1
1
1
1
1
0.999999
1.03033
2.07855
2.47407
2.49082
2.48622
2.47528
2.45826
2.43671
2.40819
2.37431
2.33277
2.28324
1
1
1
1
1
1
1
1
1
1
1
1
1
1
1
1
1
1
1.0001
1.34912
2.28542
2.45908
2.4474
2.44658
2.43357
2.41316
2.38488
2.34969
2.3112
2.27026
1
1
1
1
1
1
1
1
1
1
1
1
1
1
1
1
1
1
1
1.01757
1.93645
2.38585
2.41621
2.40887
2.40063
2.38684
2.36443
2.33242
2.29635
2.26024
1
1
1
1
1
1
1
1
1
1
1
1
1
1
1
1
1
1
1
1.00005
1.22257
2.14712
2.38333
2.37272
2.36719
2.35701
2.33976
2.31355
2.28325
2.25174
1
1
1
1
1
1
1
1
1
1
1
1
1
1
1
1
1
1
1
1
1.00633
1.54385
2.22772
2.3441
2.32912
2.32041
2.30583
2.2866
2.26484
2.23902
1
1
1
1
1
1
1
1
1
1
1
1
1
1
1
1
1
1
1
1
1.00002
1.05503
1.88396
2.28531
2.29918
2.28832
2.27468
2.26017
2.24397
2.2211
1
1
1
1
1
1
1
1
1
1
1
1
1
1
1
1
1
1
1
1
1
1.00047
1.22374
2.01435
2.26875
2.25907
2.24731
2.23496
2.22088
2.19914
1
1
1
1
1
1
1
1
1
1
1
1
1
1
1
1
1
1
1
1
1
1
1.00673
1.39021
2.06739
2.23248
2.21823
2.20633
2.19397
2.17442
1
1
1
1
1
1
1
1
1
1
1
1
1
1
1
1
1
1
1
1
1
1
1.00003
1.02475
1.53328
2.08702
2.19853
2.17942
2.16585
2.15019
1
1
1
1
1
1
1
1
1
1
1
1
1
1
1
1
1
1
1
1
1
1
1
1.00017
1.05789
1.64076
2.08674
2.16384
2.1437
2.12727
1
1
1
1
1
1
1
1
1
1
1
1
1
1
1
1
1
1
1
1
1
1
1
1
1.00066
1.10281
1.70753
2.06932
2.13017
2.1107
1
1
1
1
1
1
1
1
1
1
1
1
1
1
1
1
1
1
1
1
1
1
1
1
1
1.00176
1.14752
1.73579
2.04185
2.09785
1
1
1
1
1
1
1
1
1
1
1
1
1
1
1
1
1
1
1
1
1
1
1
1
1
1
1.00348
1.18003
1.7254
2.0352
1
1
1
1
1
1
1
1
1
1
1
1
1
1
1
1
1
1
1
1
1
1
1
1
1
1
1.00001
1.00537
1.1879
1.78375
1
1
1
1
1
1
1
1
1
1
1
1
1
1
1
1
1
1
1
1
1
1
1
1
1
1
1
1.00002
1.00581
1.25786
1
1
1
1
1
1
1
1
1
1
1
1
1
1
1
1
1
1
1
1
1
1
1
1
1
1
1
1
1.00003
1.0108
1
1
1
1
1
1
1
1
1
1
1
1
1
1
1
1
1
1
1
1
1
1
1
1
1
1
1
1
1
1.00003
1
1
1
1
1
1
1
1
1
1
1
1
1
1
1
1
1
1
1
1
1
1
1
1
1
1
1
1
1
1
1
1
1
1
1
1
1
1
1
1
1
1
1
1
1
1
1
1
1
1
1
1
1
1
1
1
1
1
1
1
1
1
1
1
1
1
1
1
1
1
1
1
1
1
1
1
1
1
1
1
1
1
1
1
1
1
1
1
1
1
1
1
1
1
1
1
1
1
1
1
1
1
1
1
1
1
1
1
1
1
1
1
1
1
1
1
1
1
1
1
1
1
1
1
1
1
1
1
1
1
1
1
1
1
1
1
1
1
1
1
1
1
1
1
1
1
1
1
1
1
1
1
1
1
1
1
1
1
1
1
1
1
1
1
1
1
1
1
1
1
1
1
1
1
1
1
1
1
1
1
1
1
1
1
1
1
1
1
1
1
1
1
1
1
1
1
1
1
1
1
1
1
1
1
1
1
1
1
1
1
1.66267
1.59277
1.77844
1.88066
1.86369
1.86016
1.87173
1.86583
1.84691
1.83311
1.82799
1.82932
1.89804
2.42016
2.69155
2.68241
2.62413
2.56395
2.50789
2.44824
2.39382
2.34657
2.30616
2.26972
2.23369
2.19698
2.15866
2.1179
2.08296
2.03374
1.99909
1.68287
1.70505
1.73965
1.76327
1.78738
1.81485
1.81638
1.80985
1.79849
1.79807
1.80403
1.92041
2.27072
2.53343
2.57466
2.55349
2.518
2.47121
2.41967
2.36947
2.32542
2.28571
2.2488
2.2135
2.1798
2.1465
2.1104
2.076
2.02485
2.01369
1.6838
1.59216
1.57255
1.61544
1.66804
1.70637
1.71992
1.7206
1.71465
1.7181
1.7362
1.93235
2.05975
2.28402
2.42652
2.43845
2.41096
2.37529
2.33733
2.29979
2.26549
2.23064
2.19533
2.16041
2.1277
2.099
2.0716
2.04538
1.99828
2.03382
1.73848
1.58364
1.48642
1.49606
1.53068
1.5757
1.61329
1.62321
1.62066
1.62484
1.68244
1.95377
1.94878
2.043
2.22646
2.32483
2.30261
2.27293
2.24319
2.21392
2.18418
2.15294
2.12203
2.09169
2.06257
2.03557
2.01003
1.9881
1.94876
2.07065
1.80458
1.60715
1.4565
1.45779
1.46152
1.48674
1.52915
1.56611
1.56333
1.56866
1.69533
1.95985
1.92614
1.91937
2.05714
2.21228
2.24486
2.2095
2.17567
2.14559
2.11669
2.08634
2.05533
2.02551
1.99888
1.97542
1.95098
1.92683
1.8877
2.10085
1.86393
1.66144
1.49901
1.45363
1.43236
1.44242
1.47608
1.51353
1.51891
1.54876
1.77431
1.96095
1.93805
1.90056
1.92358
2.09564
2.18577
2.17696
2.14464
2.10672
2.07444
2.04258
2.00965
1.97813
1.95061
1.92655
1.90155
1.87667
1.83713
2.11814
1.91007
1.7207
1.56299
1.47133
1.41715
1.42728
1.44778
1.47556
1.48641
1.57753
1.87203
1.94406
1.92451
1.88902
1.86086
1.94384
2.09995
2.14514
2.12263
2.08477
2.0484
2.01435
1.98006
1.94668
1.91683
1.89057
1.86419
1.83961
1.8007
2.12751
1.9498
1.76703
1.62756
1.5179
1.4295
1.43277
1.4313
1.44316
1.46646
1.66889
1.93021
1.9261
1.90766
1.87574
1.84277
1.82839
1.95921
2.09385
2.09655
2.06658
2.0278
1.99257
1.95818
1.92373
1.89131
1.86287
1.8367
1.81393
1.77564
2.13496
1.98048
1.80824
1.68385
1.56005
1.46594
1.44581
1.42082
1.42235
1.47369
1.77766
1.93133
1.92514
1.89348
1.86217
1.82413
1.78596
1.8125
1.96369
2.0494
2.03878
2.00562
1.97114
1.93791
1.90498
1.87174
1.8404
1.81306
1.79243
1.75596
2.14241
2.00055
1.84443
1.72849
1.60103
1.51962
1.46775
1.41494
1.41555
1.52707
1.84252
1.91634
1.90734
1.8745
1.84501
1.81225
1.76896
1.73426
1.79579
1.94145
1.98567
1.97357
1.94401
1.91258
1.88303
1.85337
1.82289
1.79467
1.77306
1.73678
2.14276
2.01417
1.87436
1.76395
1.64241
1.56895
1.48967
1.42505
1.43069
1.64234
1.86729
1.88907
1.87626
1.85094
1.82307
1.79346
1.74961
1.69865
1.67797
1.77168
1.88735
1.92298
1.91067
1.88476
1.85485
1.8289
1.80315
1.77769
1.75552
1.71724
2.13984
2.01927
1.9001
1.79029
1.67916
1.60954
1.51693
1.4503
1.47808
1.77617
1.86987
1.85813
1.84285
1.82095
1.79584
1.76301
1.71863
1.66761
1.62744
1.63255
1.73544
1.84338
1.87371
1.85756
1.82925
1.8009
1.77654
1.75446
1.7342
1.69577
2.13124
2.01776
1.9184
1.80874
1.71316
1.64083
1.54236
1.47522
1.58138
1.87478
1.86406
1.8348
1.80291
1.78
1.75666
1.72447
1.68054
1.63235
1.60094
1.57768
1.59766
1.71128
1.8107
1.82698
1.80966
1.77801
1.74985
1.72985
1.71105
1.67154
2.11847
2.01354
1.9291
1.82114
1.74329
1.66256
1.5651
1.51347
1.74591
1.91955
1.88261
1.82352
1.77556
1.73101
1.70066
1.67161
1.6353
1.59715
1.57696
1.55894
1.54034
1.57792
1.69657
1.77718
1.77642
1.75976
1.73039
1.70179
1.67605
1.64241
2.10205
2.00781
1.93336
1.83371
1.76642
1.67306
1.58759
1.59557
1.8935
1.9317
1.88668
1.81545
1.75347
1.70164
1.65692
1.62226
1.59502
1.56959
1.55628
1.54626
1.52226
1.50946
1.56966
1.68282
1.73012
1.72762
1.71035
1.67813
1.65001
1.61648
2.08256
2.0022
1.93149
1.84514
1.78093
1.67565
1.61377
1.74055
1.98618
1.94216
1.87747
1.80645
1.73829
1.67969
1.63083
1.59481
1.56517
1.54443
1.5413
1.53597
1.51002
1.47682
1.47439
1.54861
1.6479
1.6802
1.67772
1.65848
1.63234
1.59798
2.06447
1.99856
1.92726
1.85585
1.7834
1.67991
1.64921
1.92498
2.02612
1.95664
1.87447
1.80044
1.72982
1.66764
1.61862
1.57853
1.54571
1.52105
1.51484
1.50897
1.48596
1.45294
1.42523
1.4336
1.50968
1.59927
1.63145
1.62916
1.61342
1.58365
2.04972
1.99421
1.92101
1.86411
1.77786
1.69365
1.73988
2.054
2.03245
1.95646
1.86959
1.79279
1.72364
1.66298
1.61404
1.57267
1.53265
1.50245
1.48581
1.47096
1.44727
1.42165
1.39769
1.37891
1.3908
1.47028
1.55672
1.58428
1.58683
1.56691
2.03586
1.98947
1.917
1.86098
1.76535
1.71194
1.90789
2.11133
2.03692
1.95174
1.86744
1.79187
1.72472
1.66549
1.61343
1.56697
1.52339
1.48719
1.45726
1.42593
1.39816
1.37986
1.36894
1.35588
1.33946
1.35463
1.43864
1.51969
1.55255
1.54469
2.01908
1.98016
1.91037
1.84786
1.75766
1.75196
2.08327
2.12463
2.04606
1.95115
1.86748
1.79333
1.72758
1.66907
1.6158
1.56441
1.51622
1.47543
1.43753
1.39852
1.36438
1.34605
1.33799
1.3319
1.31521
1.30283
1.32486
1.40951
1.49869
1.50663
1.98584
1.96961
1.89783
1.8244
1.76097
1.87333
2.17358
2.12197
2.03797
1.94758
1.86675
1.79518
1.7305
1.67128
1.61639
1.56392
1.51292
1.46553
1.4215
1.37833
1.34145
1.31928
1.30896
1.30105
1.29191
1.27816
1.26875
1.29688
1.38608
1.45577
1.95016
1.93981
1.88736
1.79519
1.76731
2.07032
2.21359
2.12372
2.03386
1.94929
1.87147
1.80059
1.7349
1.67368
1.61575
1.5586
1.50325
1.45208
1.4051
1.36033
1.32206
1.2967
1.28267
1.2702
1.25968
1.2478
1.23441
1.22617
1.25898
1.37461
1.76275
1.94376
1.89944
1.80411
1.8262
2.22966
2.22005
2.12724
2.03445
1.95116
1.87382
1.80127
1.73258
1.66821
1.60708
1.54746
1.49052
1.4375
1.38775
1.34248
1.30687
1.28143
1.25982
1.2395
1.22365
1.2152
1.20108
1.18314
1.1777
1.25926
1.47955
1.92425
1.90692
1.82908
1.99061
2.30813
2.22299
2.12618
2.032
1.94798
1.87025
1.79643
1.72596
1.65898
1.59464
1.53307
1.47757
1.42673
1.37679
1.3298
1.29399
1.26778
1.24259
1.21621
1.19205
1.18288
1.1712
1.15469
1.1458
1.16645
1.15963
1.80583
1.90595
1.85844
2.21782
2.34959
2.22702
2.11978
2.02401
1.93832
1.85846
1.78231
1.71023
1.64184
1.57657
1.51478
1.45898
1.40859
1.3612
1.31961
1.28589
1.25526
1.22672
1.19778
1.17276
1.16023
1.14634
1.13178
1.12592
1.12685
1.0285
1.68902
1.86039
1.94982
2.38349
2.35703
2.21921
2.10151
2.00344
1.91659
1.8355
1.75839
1.68626
1.61965
1.55783
1.5006
1.4475
1.39866
1.35268
1.31306
1.27987
1.24772
1.21676
1.18621
1.16182
1.14493
1.12873
1.11274
1.1112
1.11005
1.00023
1.5432
1.77455
2.13462
2.42764
2.32513
2.18807
2.07062
1.97411
1.88837
1.80821
1.73286
1.66309
1.59921
1.54051
1.48636
1.43607
1.39129
1.34825
1.30988
1.27606
1.24427
1.21107
1.17813
1.1543
1.13458
1.11646
1.10058
1.10028
1.09736
0.999984
1.30963
1.65809
2.29909
2.42395
2.27372
2.14194
2.03171
1.94017
1.85822
1.7816
1.71004
1.64404
1.58338
1.52744
1.47603
1.42813
1.38423
1.34359
1.30756
1.27463
1.2421
1.20846
1.17544
1.15117
1.12983
1.1102
1.09602
1.08926
1.08084
0.999994
1.10724
1.53396
2.30053
2.36353
2.21831
2.10348
2.00664
1.92021
1.84088
1.76701
1.69832
1.63476
1.5763
1.52272
1.47324
1.42809
1.38299
1.34994
1.31758
1.2839
1.24931
1.21465
1.18398
1.1595
1.13582
1.11352
1.09593
1.08323
1.07034
0.999997
1.01996
1.63045
2.38877
2.3438
2.19859
2.08661
1.995
1.91149
1.83393
1.76187
1.69491
1.6322
1.57339
1.51856
1.4695
1.4248
1.38393
1.34352
1.30704
1.27192
1.23671
1.20103
1.17305
1.14981
1.12592
1.10083
1.08752
1.07352
1.05973
)
;

boundaryField
{
    inlet
    {
        type            fixedValue;
        value           uniform 1;
    }
    outlet
    {
        type            inletOutlet;
        inletValue      uniform 1;
        value           nonuniform List<scalar> 
30
(
2.03408
2.02473
1.99774
1.94859
1.88739
1.83685
1.80072
1.7758
1.75619
1.73693
1.71684
1.69495
1.67061
1.64226
1.61632
1.59775
1.58365
1.56737
1.54457
1.50545
1.45425
1.37079
1.25448
1.16436
1.12664
1.11037
1.09753
1.08056
1.06972
1.05892
)
;
    }
    top
    {
        type            symmetryPlane;
    }
    bottom
    {
        type            symmetryPlane;
    }
    step
    {
        type            zeroGradient;
    }
    defaultFaces
    {
        type            empty;
    }
}


// ************************************************************************* //
