/*--------------------------------*- C++ -*----------------------------------*\
  =========                 |
  \\      /  F ield         | OpenFOAM: The Open Source CFD Toolbox
   \\    /   O peration     | Website:  https://openfoam.org
    \\  /    A nd           | Version:  6.0
     \\/     M anipulation  |
\*---------------------------------------------------------------------------*/
FoamFile
{
    version     2.0;
    format      ascii;
    class       volVectorField;
    location    "2.000128";
    object      U;
}
// * * * * * * * * * * * * * * * * * * * * * * * * * * * * * * * * * * * * * //

dimensions      [0 1 -1 0 0 0 0];

internalField   nonuniform List<vector> 
2700
(
(3 -1.47741e-16 0)
(3 -3.27232e-16 0)
(3 -1.14843e-15 0)
(3 -1.0031e-15 0)
(3 -6.80052e-16 0)
(3 -4.4091e-16 0)
(3 1.89469e-17 0)
(3 5.25448e-16 0)
(3 5.30433e-16 0)
(3 5.49491e-16 0)
(3 -9.61094e-16 0)
(3 -7.2538e-16 0)
(3 -6.00591e-16 0)
(3 -2.34051e-16 0)
(3 5.58625e-16 0)
(2.41135 0.00619249 0)
(0.843298 0.0122663 0)
(0.689767 0.0165345 0)
(0.645723 0.00427129 0)
(0.589184 -0.00476648 0)
(0.523873 0.00396966 0)
(0.457759 0.0240657 0)
(0.427744 0.0315677 0)
(0.407207 -0.0182829 0)
(0.359813 -0.056715 0)
(0.276062 -0.0718359 0)
(0.187129 -0.016266 0)
(0.126855 0.0142209 0)
(0.0690595 -0.00460856 0)
(0.0420262 -0.0338533 0)
(3 4.48362e-17 0)
(3 -2.90818e-16 0)
(3 -6.87481e-16 0)
(3 -8.06923e-16 0)
(3 -9.54949e-16 0)
(3 -8.30051e-16 0)
(3 -7.5615e-16 0)
(3 5.03559e-16 0)
(3 1.0553e-15 0)
(3 1.09713e-15 0)
(3 -7.42885e-16 0)
(3 -3.68189e-16 0)
(3 -5.97418e-16 0)
(3 -1.20191e-16 0)
(3 6.21285e-16 0)
(2.41318 0.015683 0)
(0.850977 0.0222622 0)
(0.687459 0.0424885 0)
(0.639061 0.025286 0)
(0.583426 0.00868441 0)
(0.528894 0.00331383 0)
(0.476309 0.0565717 0)
(0.427877 0.096329 0)
(0.39126 0.0687243 0)
(0.326908 -0.0363263 0)
(0.259228 -0.122552 0)
(0.202195 -0.113615 0)
(0.141911 -0.0444265 0)
(0.0903319 0.0227196 0)
(0.0450206 0.0645109 0)
(3 2.48876e-16 0)
(3 4.53434e-16 0)
(3 -1.45168e-16 0)
(3 -9.24439e-16 0)
(3 -1.99282e-15 0)
(3 -8.02478e-16 0)
(3 -1.05004e-15 0)
(3 -2.36496e-16 0)
(3 2.22956e-16 0)
(3 -7.58903e-16 0)
(3 -7.41581e-16 0)
(3 -7.64793e-16 0)
(3 -4.32668e-16 0)
(3 -5.92918e-17 0)
(3 1.91481e-16 0)
(2.41255 0.0275251 0)
(0.853174 0.0440347 0)
(0.680519 0.0530562 0)
(0.62828 0.035416 0)
(0.574653 0.0161568 0)
(0.53361 0.0253359 0)
(0.493865 0.0635285 0)
(0.432753 0.096546 0)
(0.358232 0.0743124 0)
(0.297902 -0.016666 0)
(0.253981 -0.0519976 0)
(0.227089 -0.0340722 0)
(0.160078 0.00204585 0)
(0.106463 0.0520156 0)
(0.0382411 0.0327326 0)
(3 1.55735e-16 0)
(3 -2.17537e-16 0)
(3 -5.87939e-16 0)
(3 -5.43559e-16 0)
(3 -1.00872e-15 0)
(3 -1.06791e-15 0)
(3 -4.08099e-16 0)
(3 -2.75526e-17 0)
(3 -1.52979e-16 0)
(3 -7.10923e-16 0)
(3 -2.67304e-16 0)
(3 -1.18204e-15 0)
(3 -5.86136e-16 0)
(3 -6.692e-17 0)
(3 1.53507e-16 0)
(2.42353 0.0386021 0)
(0.858516 0.0605355 0)
(0.677246 0.0600461 0)
(0.624029 0.0434101 0)
(0.574959 0.0351614 0)
(0.547028 0.051857 0)
(0.50189 0.0617718 0)
(0.435692 0.0700415 0)
(0.342688 0.0587415 0)
(0.276292 0.0490198 0)
(0.246072 0.0536637 0)
(0.226788 0.0768986 0)
(0.161429 0.0898708 0)
(0.102273 0.0751099 0)
(0.035207 0.0480937 0)
(3 3.69529e-17 0)
(3 -2.35187e-16 0)
(3 -5.10354e-16 0)
(3 -4.94506e-16 0)
(3 4.6415e-16 0)
(3 -4.54858e-16 0)
(3 2.89899e-16 0)
(3 8.2945e-17 0)
(3 4.91235e-17 0)
(3 3.84573e-16 0)
(3 -4.55433e-16 0)
(3 -1.48758e-15 0)
(3 3.9561e-17 0)
(3 3.07656e-17 0)
(3 2.96881e-16 0)
(2.45298 0.0510977 0)
(0.86827 0.0720537 0)
(0.675051 0.0552225 0)
(0.626976 0.0589543 0)
(0.584976 0.0810289 0)
(0.54874 0.0834288 0)
(0.49688 0.0559281 0)
(0.433452 0.0198698 0)
(0.351358 0.0368209 0)
(0.295732 0.112275 0)
(0.268432 0.154397 0)
(0.235521 0.175245 0)
(0.157912 0.170626 0)
(0.0744454 0.0933892 0)
(0.0371273 0.0550318 0)
(3 1.29958e-16 0)
(3 6.33216e-17 0)
(3 -1.2714e-16 0)
(3 -1.95128e-16 0)
(3 -4.50663e-16 0)
(3 -3.07328e-16 0)
(3 -2.73002e-16 0)
(3 -5.12617e-16 0)
(3 5.94414e-16 0)
(3 1.05851e-15 0)
(3 -5.01608e-16 0)
(3 -4.89428e-16 0)
(3 -3.15849e-16 0)
(3 -2.50135e-16 0)
(3 -4.15606e-16 0)
(2.4884 0.0619348 0)
(0.871124 0.0776553 0)
(0.679207 0.0548833 0)
(0.639009 0.0852753 0)
(0.590433 0.11614 0)
(0.542012 0.108504 0)
(0.484128 0.0637674 0)
(0.425751 0.017071 0)
(0.382381 0.0309191 0)
(0.327177 0.133818 0)
(0.273495 0.23345 0)
(0.228805 0.224535 0)
(0.144524 0.145525 0)
(0.0581649 0.118656 0)
(0.0439262 0.107116 0)
(3 -1.16753e-16 0)
(3 -3.4789e-17 0)
(3 2.262e-16 0)
(3 -2.2621e-17 0)
(3 -7.4994e-16 0)
(3 -1.05883e-15 0)
(3 -1.72108e-15 0)
(3 -1.03673e-15 0)
(3 -1.37618e-16 0)
(3 -4.22271e-16 0)
(3 9.40969e-18 0)
(3 7.66815e-16 0)
(3 -3.88381e-16 0)
(3 -5.86295e-16 0)
(3 -8.8175e-16 0)
(2.52795 0.0663847 0)
(0.867247 0.0841936 0)
(0.690593 0.0767249 0)
(0.652733 0.114459 0)
(0.597365 0.128433 0)
(0.536578 0.126861 0)
(0.474234 0.0994322 0)
(0.420022 0.0757732 0)
(0.398996 0.124248 0)
(0.354135 0.174423 0)
(0.293371 0.1951 0)
(0.19931 0.125369 0)
(0.129199 0.084747 0)
(0.0656438 0.130219 0)
(0.0477474 0.176527 0)
(3 -2.514e-16 0)
(3 -1.05607e-16 0)
(3 4.19309e-17 0)
(3 -7.21135e-17 0)
(3 -1.02942e-15 0)
(3 -9.14477e-16 0)
(3 -1.58861e-15 0)
(3 -8.72826e-16 0)
(3 -9.37047e-16 0)
(3 -1.01942e-16 0)
(3 1.26488e-15 0)
(3 1.59649e-15 0)
(3 2.43764e-16 0)
(3 -8.27463e-16 0)
(3 -9.56523e-16 0)
(2.56484 0.0740429 0)
(0.873965 0.104171 0)
(0.703074 0.127385 0)
(0.660433 0.123684 0)
(0.603138 0.125281 0)
(0.535393 0.111358 0)
(0.471056 0.122012 0)
(0.431786 0.159156 0)
(0.411735 0.168067 0)
(0.36183 0.160871 0)
(0.272776 0.0990179 0)
(0.177939 0.0516164 0)
(0.139971 0.0628974 0)
(0.101348 0.140014 0)
(0.0571989 0.225359 0)
(3 -2.24229e-16 0)
(3 -2.15098e-16 0)
(3 9.76465e-19 0)
(3 -1.59199e-16 0)
(3 -2.52266e-16 0)
(3 -3.8436e-16 0)
(3 -5.01984e-16 0)
(3 -3.82733e-16 0)
(3 -6.48673e-17 0)
(3 8.96373e-16 0)
(3 1.23986e-15 0)
(3 8.09027e-16 0)
(3 9.82737e-17 0)
(3 -3.30531e-16 0)
(3 -1.03376e-15 0)
(2.59395 0.0838658 0)
(0.893839 0.135449 0)
(0.704317 0.162991 0)
(0.659988 0.141497 0)
(0.601755 0.111587 0)
(0.536854 0.105106 0)
(0.483827 0.141456 0)
(0.446375 0.207807 0)
(0.411263 0.225573 0)
(0.336358 0.158111 0)
(0.244054 0.0604116 0)
(0.193534 0.0556383 0)
(0.156865 0.100095 0)
(0.133371 0.171011 0)
(0.0646363 0.20386 0)
(3 1.36488e-16 0)
(3 8.3663e-17 0)
(3 1.9443e-16 0)
(3 4.77186e-16 0)
(3 4.07444e-17 0)
(3 -2.89827e-16 0)
(3 -7.87355e-17 0)
(3 -4.08472e-16 0)
(3 6.70525e-16 0)
(3 1.30337e-15 0)
(3 1.41967e-15 0)
(3 7.66575e-16 0)
(3 1.12788e-16 0)
(3 -7.32544e-16 0)
(3 -1.06978e-15 0)
(2.63029 0.091488 0)
(0.912047 0.164261 0)
(0.699465 0.181993 0)
(0.652216 0.148844 0)
(0.59087 0.103656 0)
(0.547783 0.0893985 0)
(0.514337 0.141849 0)
(0.464233 0.195973 0)
(0.393017 0.189658 0)
(0.311212 0.11371 0)
(0.230555 0.0904491 0)
(0.206458 0.147003 0)
(0.166009 0.210232 0)
(0.140391 0.208739 0)
(0.0559472 0.104117 0)
(3 4.53516e-17 0)
(3 -1.58099e-16 0)
(3 2.49571e-16 0)
(3 3.28477e-16 0)
(3 3.5284e-17 0)
(3 -1.37836e-16 0)
(3 -1.34846e-16 0)
(3 -2.12368e-17 0)
(3 7.12567e-16 0)
(3 1.21869e-15 0)
(3 8.71406e-16 0)
(3 8.35969e-16 0)
(3 1.51905e-16 0)
(3 -8.91159e-16 0)
(3 -1.0563e-15 0)
(2.67112 0.0948247 0)
(0.928607 0.181101 0)
(0.696722 0.1732 0)
(0.640485 0.133591 0)
(0.584059 0.128421 0)
(0.558335 0.152359 0)
(0.525681 0.185452 0)
(0.472719 0.169649 0)
(0.382296 0.139008 0)
(0.297857 0.125631 0)
(0.245406 0.16476 0)
(0.243112 0.254428 0)
(0.170377 0.297436 0)
(0.10045 0.216419 0)
(0.0445287 0.101271 0)
(3 -3.21574e-17 0)
(3 1.79958e-16 0)
(3 2.42826e-16 0)
(3 -2.11889e-16 0)
(3 1.07276e-16 0)
(3 8.29876e-17 0)
(3 7.27145e-16 0)
(3 1.02171e-15 0)
(3 1.51736e-15 0)
(3 1.17319e-15 0)
(3 -2.26811e-16 0)
(3 -2.74393e-16 0)
(3 -7.54e-17 0)
(3 5.10833e-16 0)
(3 -4.99526e-16 0)
(2.7131 0.0985779 0)
(0.940868 0.182334 0)
(0.684494 0.149686 0)
(0.638019 0.137257 0)
(0.597429 0.164976 0)
(0.570442 0.217542 0)
(0.524492 0.208299 0)
(0.462434 0.156458 0)
(0.375546 0.0989069 0)
(0.327371 0.118635 0)
(0.291919 0.218095 0)
(0.26272 0.316788 0)
(0.161711 0.323328 0)
(0.0503042 0.220889 0)
(0.037734 0.103932 0)
(3 -1.03444e-16 0)
(3 8.1099e-17 0)
(3 9.87987e-17 0)
(3 -2.4377e-18 0)
(3 2.09417e-16 0)
(3 7.77848e-16 0)
(3 1.32713e-15 0)
(3 2.13064e-15 0)
(3 1.95706e-15 0)
(3 5.35594e-16 0)
(3 -2.50072e-16 0)
(3 -9.11075e-16 0)
(3 -7.89738e-16 0)
(3 6.43301e-16 0)
(3 5.04804e-16 0)
(2.76719 0.100532 0)
(0.952348 0.189301 0)
(0.682296 0.148793 0)
(0.656264 0.159652 0)
(0.626083 0.232957 0)
(0.578292 0.257813 0)
(0.513509 0.245397 0)
(0.441323 0.170934 0)
(0.380288 0.119466 0)
(0.355351 0.18472 0)
(0.321819 0.296396 0)
(0.276345 0.322206 0)
(0.159577 0.301894 0)
(0.0120345 0.266625 0)
(0.0384065 0.254267 0)
(3 1.87827e-16 0)
(3 9.15157e-18 0)
(3 3.0538e-16 0)
(3 -1.19871e-16 0)
(3 5.13011e-17 0)
(3 5.0724e-16 0)
(3 5.33961e-16 0)
(3 1.3163e-15 0)
(3 1.90815e-15 0)
(3 1.04794e-15 0)
(3 2.44812e-17 0)
(3 -1.1093e-16 0)
(3 3.26794e-16 0)
(3 8.21959e-16 0)
(3 4.74688e-16 0)
(2.84853 0.0981757 0)
(0.971435 0.195807 0)
(0.699074 0.168946 0)
(0.690385 0.2205 0)
(0.652199 0.240332 0)
(0.590553 0.255318 0)
(0.510969 0.222813 0)
(0.42807 0.200776 0)
(0.399678 0.243605 0)
(0.386598 0.31408 0)
(0.339391 0.31404 0)
(0.261405 0.280887 0)
(0.154474 0.199449 0)
(0.0389587 0.297643 0)
(0.0627648 0.392818 0)
(3 -8.36096e-18 0)
(3 2.84531e-16 0)
(3 2.00663e-16 0)
(3 4.17369e-16 0)
(3 6.85349e-16 0)
(3 2.79046e-16 0)
(3 -1.46522e-16 0)
(3 8.02823e-16 0)
(3 6.888e-16 0)
(3 -1.65612e-16 0)
(3 3.31378e-16 0)
(3 1.68331e-15 0)
(3 1.33451e-15 0)
(3 1.0374e-15 0)
(3 -5.94364e-16 0)
(2.9224 0.0903091 0)
(1.01075 0.223707 0)
(0.743599 0.235067 0)
(0.714637 0.243356 0)
(0.66217 0.233778 0)
(0.599637 0.208335 0)
(0.513008 0.194059 0)
(0.451578 0.231242 0)
(0.436431 0.333203 0)
(0.392946 0.376398 0)
(0.3253 0.342668 0)
(0.221779 0.180566 0)
(0.165204 0.188382 0)
(0.105299 0.310839 0)
(0.0745063 0.445653 0)
(3 -2.84398e-16 0)
(3 -4.35262e-16 0)
(3 -2.96881e-16 0)
(3 8.43363e-16 0)
(3 8.30021e-16 0)
(3 1.91606e-16 0)
(3 -2.33566e-16 0)
(3 3.22047e-16 0)
(3 -3.72946e-16 0)
(3 -5.76257e-16 0)
(3 3.24656e-16 0)
(3 1.85791e-15 0)
(3 1.42923e-15 0)
(3 8.22927e-16 0)
(3 -3.19927e-16 0)
(2.97961 0.0581082 0)
(1.05834 0.264332 0)
(0.766627 0.26542 0)
(0.72663 0.264741 0)
(0.664358 0.251689 0)
(0.593548 0.170324 0)
(0.534724 0.160696 0)
(0.503142 0.261174 0)
(0.472461 0.366903 0)
(0.396693 0.404002 0)
(0.28084 0.280736 0)
(0.208243 0.178712 0)
(0.186425 0.194375 0)
(0.17118 0.31428 0)
(0.0882398 0.443015 0)
(3 1.66596e-17 0)
(3 -3.68892e-16 0)
(3 -2.86848e-16 0)
(3 3.24329e-16 0)
(3 8.73834e-17 0)
(3 2.00565e-16 0)
(3 6.39865e-16 0)
(3 5.01812e-16 0)
(3 -4.21729e-18 0)
(3 1.00173e-16 0)
(3 5.15159e-16 0)
(3 6.56208e-16 0)
(3 1.23558e-15 0)
(3 1.56026e-15 0)
(3 6.2835e-17 0)
(2.99274 0.0275623 0)
(1.087 0.273003 0)
(0.776684 0.264402 0)
(0.74149 0.263783 0)
(0.661118 0.216476 0)
(0.586059 0.198213 0)
(0.556118 0.223421 0)
(0.543935 0.315515 0)
(0.500803 0.33844 0)
(0.387891 0.27122 0)
(0.248043 0.22716 0)
(0.207588 0.226837 0)
(0.200282 0.270712 0)
(0.204186 0.344207 0)
(0.0858319 0.279258 0)
(3 1.70868e-16 0)
(3 3.75599e-16 0)
(3 1.22536e-16 0)
(3 -1.83818e-16 0)
(3 4.5572e-16 0)
(3 1.36135e-16 0)
(3 -3.12026e-16 0)
(3 9.182e-16 0)
(3 1.16699e-15 0)
(3 6.02001e-16 0)
(3 1.04649e-15 0)
(3 5.85018e-16 0)
(3 1.30201e-15 0)
(3 9.37007e-16 0)
(3 7.62963e-17 0)
(3.00495 0.0119068 0)
(1.11523 0.254629 0)
(0.776885 0.254199 0)
(0.734953 0.225506 0)
(0.658166 0.217766 0)
(0.605533 0.243245 0)
(0.595979 0.338104 0)
(0.559545 0.341275 0)
(0.491553 0.288964 0)
(0.366483 0.182675 0)
(0.271362 0.229089 0)
(0.24931 0.366899 0)
(0.207431 0.447432 0)
(0.181921 0.374026 0)
(0.0619606 0.226896 0)
(3 6.4595e-17 0)
(3 1.64149e-16 0)
(3 -2.6052e-16 0)
(3 -6.9963e-16 0)
(3 -4.23619e-17 0)
(3 -4.28941e-16 0)
(3 -3.38696e-16 0)
(3 4.04698e-16 0)
(3 4.88159e-18 0)
(3 1.79097e-15 0)
(3 2.06571e-15 0)
(3 1.21007e-15 0)
(3 3.96617e-17 0)
(3 -1.05969e-15 0)
(3 -2.22225e-16 0)
(3.01004 0.00362717 0)
(1.13972 0.236386 0)
(0.763351 0.231089 0)
(0.723357 0.212792 0)
(0.673497 0.226593 0)
(0.649485 0.349124 0)
(0.602489 0.390125 0)
(0.552609 0.371969 0)
(0.457552 0.246001 0)
(0.371652 0.187866 0)
(0.323491 0.246876 0)
(0.305065 0.465432 0)
(0.206075 0.520099 0)
(0.11677 0.408769 0)
(0.0506465 0.24674 0)
(3 -9.74138e-17 0)
(3 -7.17776e-16 0)
(3 -7.08727e-16 0)
(3 -7.64455e-16 0)
(3 -6.33424e-16 0)
(3 -1.3622e-16 0)
(3 3.29992e-16 0)
(3 4.88966e-17 0)
(3 4.59902e-17 0)
(3 9.35568e-16 0)
(3 1.08595e-15 0)
(3 8.30315e-16 0)
(3 -1.24633e-15 0)
(3 -8.94357e-16 0)
(3 -4.04182e-17 0)
(3.00393 0.00118411 0)
(1.17328 0.236611 0)
(0.743031 0.231754 0)
(0.720819 0.230979 0)
(0.700284 0.323454 0)
(0.668564 0.365233 0)
(0.614129 0.386421 0)
(0.5422 0.335356 0)
(0.432351 0.249633 0)
(0.37515 0.243044 0)
(0.385294 0.386137 0)
(0.347558 0.515625 0)
(0.20275 0.574972 0)
(0.052286 0.454541 0)
(0.0432673 0.28308 0)
(3 -6.48692e-16 0)
(3 -5.69851e-16 0)
(3 5.35277e-17 0)
(3 2.0237e-16 0)
(3 -2.82297e-17 0)
(3 2.88659e-16 0)
(3 9.2542e-16 0)
(3 -4.406e-16 0)
(3 3.68134e-16 0)
(3 3.02879e-16 0)
(3 -4.36946e-17 0)
(3 -9.74658e-16 0)
(3 -1.20022e-15 0)
(3 -5.13808e-17 0)
(3 -2.18498e-16 0)
(3.00035 0.000351165 0)
(1.20971 0.259879 0)
(0.741046 0.243869 0)
(0.728264 0.323854 0)
(0.699403 0.357572 0)
(0.671966 0.361582 0)
(0.621053 0.360227 0)
(0.512075 0.292052 0)
(0.435299 0.269791 0)
(0.426735 0.384288 0)
(0.42397 0.505491 0)
(0.365048 0.531468 0)
(0.212805 0.545166 0)
(0.00286616 0.50326 0)
(0.050944 0.488123 0)
(3 -2.98202e-16 0)
(3 -2.26049e-16 0)
(3 2.94066e-18 0)
(3 3.85927e-16 0)
(3 4.18633e-16 0)
(3 1.57809e-16 0)
(3 -1.06416e-16 0)
(3 -6.15763e-16 0)
(3 -1.7739e-16 0)
(3 -2.23194e-16 0)
(3 -1.34539e-15 0)
(3 -7.75473e-16 0)
(3 -5.46864e-16 0)
(3 -8.44102e-16 0)
(3 -6.08859e-16 0)
(3.00001 -3.45304e-06 0)
(1.2629 0.308986 0)
(0.76337 0.298977 0)
(0.729159 0.356153 0)
(0.694357 0.383167 0)
(0.657435 0.389423 0)
(0.59122 0.305874 0)
(0.514242 0.296532 0)
(0.475629 0.384287 0)
(0.471148 0.519543 0)
(0.440969 0.510596 0)
(0.360671 0.480381 0)
(0.207941 0.355023 0)
(0.0445369 0.521885 0)
(0.0802342 0.646844 0)
(3 2.56011e-16 0)
(3 1.79388e-16 0)
(3 3.23785e-16 0)
(3 2.3452e-16 0)
(3 4.13197e-16 0)
(3 7.00666e-16 0)
(3 1.13051e-17 0)
(3 1.78417e-16 0)
(3 -3.94918e-17 0)
(3 -6.70689e-16 0)
(3 -1.13065e-15 0)
(3 -7.29525e-16 0)
(3 -8.89916e-16 0)
(3 -1.43772e-15 0)
(3 -1.18483e-15 0)
(3.00001 -1.19573e-05 0)
(1.34536 0.337252 0)
(0.77403 0.33521 0)
(0.732384 0.353798 0)
(0.697851 0.365538 0)
(0.636479 0.316157 0)
(0.572767 0.287663 0)
(0.528585 0.315355 0)
(0.538746 0.499193 0)
(0.48288 0.553031 0)
(0.423032 0.529855 0)
(0.30947 0.345337 0)
(0.228231 0.33987 0)
(0.138058 0.516003 0)
(0.10244 0.69608 0)
(3 5.05798e-16 0)
(3 9.83253e-16 0)
(3 7.06442e-16 0)
(3 -1.42917e-18 0)
(3 1.97117e-16 0)
(3 7.81735e-16 0)
(3 4.09242e-16 0)
(3 1.75457e-16 0)
(3 -1.63043e-16 0)
(3 -4.10404e-16 0)
(3 -5.11203e-16 0)
(3 -8.53502e-16 0)
(3 -6.48138e-16 0)
(3 -8.23465e-16 0)
(3 -6.49283e-16 0)
(3 -7.39362e-06 0)
(1.43488 0.344547 0)
(0.7931 0.346961 0)
(0.723198 0.349054 0)
(0.670293 0.306224 0)
(0.615584 0.281811 0)
(0.579393 0.291503 0)
(0.58006 0.42268 0)
(0.559961 0.520503 0)
(0.488862 0.561842 0)
(0.399128 0.478445 0)
(0.282492 0.323465 0)
(0.244255 0.368388 0)
(0.231698 0.517247 0)
(0.126995 0.720277 0)
(3 2.66547e-16 0)
(3 3.66847e-16 0)
(3 4.2157e-16 0)
(3 -7.78737e-17 0)
(3 6.68765e-17 0)
(3 3.81551e-16 0)
(3 2.83489e-16 0)
(3 -1.74035e-16 0)
(3 -1.08778e-16 0)
(3 -2.03604e-16 0)
(3 -1.55049e-17 0)
(3 -5.64203e-16 0)
(3 -4.91767e-16 0)
(3 -3.00637e-16 0)
(3 -3.13056e-16 0)
(3 -6.75663e-07 0)
(1.54192 0.342712 0)
(0.800143 0.337657 0)
(0.705865 0.311115 0)
(0.651312 0.289564 0)
(0.61237 0.284756 0)
(0.603136 0.380734 0)
(0.602031 0.473038 0)
(0.581717 0.49876 0)
(0.501769 0.489043 0)
(0.339682 0.393402 0)
(0.288722 0.34657 0)
(0.267575 0.402581 0)
(0.296447 0.566602 0)
(0.143877 0.636355 0)
(3 1.39775e-16 0)
(3 -3.09075e-18 0)
(3 -9.53575e-17 0)
(3 6.12732e-17 0)
(3 2.78676e-16 0)
(3 3.62781e-16 0)
(3 4.81444e-16 0)
(3 -2.19083e-16 0)
(3 -2.96339e-16 0)
(3 -3.7538e-16 0)
(3 -2.72333e-16 0)
(3 -8.69209e-16 0)
(3 -1.01089e-15 0)
(3 -6.04444e-16 0)
(3 -1.16677e-16 0)
(3 -1.79583e-07 0)
(1.65874 0.333519 0)
(0.804047 0.323083 0)
(0.695502 0.307252 0)
(0.645821 0.315263 0)
(0.635549 0.376777 0)
(0.629403 0.469875 0)
(0.609113 0.496004 0)
(0.566518 0.507516 0)
(0.455061 0.347519 0)
(0.357977 0.390694 0)
(0.330453 0.543949 0)
(0.296434 0.679936 0)
(0.303042 0.712599 0)
(0.124406 0.573406 0)
(3 -8.71309e-18 0)
(3 3.19661e-16 0)
(3 -3.49152e-16 0)
(3 3.56738e-17 0)
(3 4.3441e-16 0)
(3 2.43434e-16 0)
(3 6.83815e-16 0)
(3 3.87565e-16 0)
(3 -2.18672e-16 0)
(3 -6.06816e-16 0)
(3 -7.18088e-16 0)
(3 -2.30532e-16 0)
(3 -2.36961e-16 0)
(3 -5.09601e-16 0)
(3 -7.45817e-17 0)
(3 -2.37015e-07 0)
(1.78668 0.34517 0)
(0.798897 0.326194 0)
(0.694567 0.310482 0)
(0.670448 0.375968 0)
(0.651755 0.465813 0)
(0.631697 0.469843 0)
(0.615391 0.470349 0)
(0.530984 0.365134 0)
(0.442347 0.363433 0)
(0.391533 0.447808 0)
(0.423393 0.744483 0)
(0.317057 0.837686 0)
(0.255426 0.797202 0)
(0.106441 0.617593 0)
(3 -2.52368e-16 0)
(3 -4.01072e-16 0)
(3 -6.79921e-16 0)
(3 -6.0162e-16 0)
(3 -5.60324e-16 0)
(3 5.76022e-17 0)
(3 7.03251e-18 0)
(3 3.66947e-16 0)
(3 -4.27299e-16 0)
(3 -8.32165e-16 0)
(3 -1.04473e-15 0)
(3 9.81024e-17 0)
(3 1.54656e-15 0)
(3 1.00734e-15 0)
(3 -2.8744e-16 0)
(3 -2.59369e-07 0)
(1.91508 0.385805 0)
(0.807954 0.374375 0)
(0.719799 0.411252 0)
(0.694402 0.455514 0)
(0.662156 0.473549 0)
(0.628789 0.487562 0)
(0.583746 0.416855 0)
(0.506477 0.328352 0)
(0.471862 0.353424 0)
(0.474595 0.589766 0)
(0.465297 0.818017 0)
(0.335123 0.896201 0)
(0.208029 0.836841 0)
(0.0943445 0.643432 0)
(3 -3.16773e-17 0)
(3 -1.93303e-16 0)
(3 -1.31258e-16 0)
(3 -5.23441e-17 0)
(3 -6.22464e-16 0)
(3 -1.00463e-16 0)
(3 2.22538e-16 0)
(3 3.66978e-16 0)
(3 -1.60325e-16 0)
(3 -5.1189e-16 0)
(3 -1.18107e-15 0)
(3 6.87836e-16 0)
(3 9.41601e-16 0)
(3 -2.58909e-16 0)
(3 -3.82803e-16 0)
(3 -9.53589e-08 0)
(2.07715 0.42066 0)
(0.837678 0.470285 0)
(0.748051 0.46045 0)
(0.717208 0.467584 0)
(0.683273 0.480198 0)
(0.628865 0.426633 0)
(0.559183 0.364527 0)
(0.511426 0.378443 0)
(0.519905 0.52223 0)
(0.557156 0.684136 0)
(0.531362 0.824175 0)
(0.36018 0.970106 0)
(0.12002 0.858069 0)
(0.087432 0.702514 0)
(3 2.1614e-16 0)
(3 7.05788e-16 0)
(3 6.11908e-16 0)
(3 2.70066e-16 0)
(3 -7.97588e-17 0)
(3 -2.88603e-16 0)
(3 2.98675e-16 0)
(3 3.08737e-16 0)
(3 4.43259e-16 0)
(3 3.20319e-17 0)
(3 -2.62379e-17 0)
(3 4.68472e-16 0)
(3 6.78277e-16 0)
(3 -4.59642e-17 0)
(3 -1.97985e-16 0)
(3 -4.57158e-09 0)
(2.33913 0.420598 0)
(0.89774 0.49685 0)
(0.776827 0.461021 0)
(0.74893 0.442901 0)
(0.70119 0.381357 0)
(0.63696 0.354565 0)
(0.584051 0.389681 0)
(0.587971 0.499408 0)
(0.591128 0.663044 0)
(0.592875 0.693008 0)
(0.588633 0.676168 0)
(0.430769 0.598302 0)
(0.179839 0.872393 0)
(0.191796 1.12112 0)
(3 -5.55169e-17 0)
(3 1.5107e-16 0)
(3 1.5703e-16 0)
(3 7.69176e-18 0)
(3 -1.28871e-16 0)
(3 -2.0498e-16 0)
(3 -1.47858e-17 0)
(3 1.67077e-16 0)
(3 4.79747e-16 0)
(3 7.72322e-17 0)
(3 -1.25879e-16 0)
(3 -1.61351e-16 0)
(3 -5.94057e-17 0)
(3 1.96659e-16 0)
(3 3.00409e-16 0)
(3 -1.56066e-09 0)
(2.8678 0.187682 0)
(1.08209 0.476437 0)
(0.840547 0.433078 0)
(0.787427 0.423738 0)
(0.740101 0.433917 0)
(0.707726 0.469035 0)
(0.688406 0.522773 0)
(0.664337 0.585932 0)
(0.629492 0.60478 0)
(0.585931 0.619879 0)
(0.560866 0.63794 0)
(0.538601 0.739962 0)
(0.610175 0.953686 0)
(0.695616 1.34722 0)
(3 -5.76465e-17 0)
(3 -1.52136e-16 0)
(3 1.32089e-16 0)
(3 2.15194e-16 0)
(3 6.84601e-17 0)
(3 1.83549e-16 0)
(3 3.19967e-16 0)
(3 6.51592e-17 0)
(3 2.91451e-17 0)
(3 2.71275e-16 0)
(3 4.57103e-16 0)
(3 1.1333e-16 0)
(3 -5.50806e-16 0)
(3 -3.77271e-16 0)
(3 -2.13427e-16 0)
(3 -2.10005e-10 0)
(3.03029 0.00663123 0)
(1.35066 0.460333 0)
(0.876353 0.498804 0)
(0.82966 0.517006 0)
(0.790784 0.535828 0)
(0.757585 0.546967 0)
(0.730304 0.55761 0)
(0.705493 0.570653 0)
(0.682789 0.60443 0)
(0.666817 0.666997 0)
(0.692809 0.778479 0)
(0.723685 0.910258 0)
(0.83852 1.0273 0)
(1.09897 1.12611 0)
(3 3.52775e-17 0)
(3 -2.43465e-16 0)
(3 -9.61872e-17 0)
(3 2.32936e-16 0)
(3 5.83722e-16 0)
(3 3.37864e-16 0)
(3 2.28541e-16 0)
(3 -1.46054e-16 0)
(3 -2.85274e-16 0)
(3 -8.97541e-17 0)
(3 -1.04788e-16 0)
(3 -3.80854e-17 0)
(3 4.74384e-16 0)
(3 3.21383e-16 0)
(3 -7.87416e-16 0)
(3 -3.69555e-12 0)
(3.00052 -2.41214e-05 0)
(1.97598 0.485836 0)
(0.933742 0.577051 0)
(0.857495 0.567199 0)
(0.830964 0.573919 0)
(0.803317 0.581901 0)
(0.780211 0.596204 0)
(0.767975 0.624437 0)
(0.769118 0.669608 0)
(0.778402 0.726159 0)
(0.795332 0.802777 0)
(0.848946 0.900164 0)
(0.995836 0.994645 0)
(1.23991 1.04405 0)
(3 -2.43686e-17 0)
(3 -2.01353e-16 0)
(3 -4.08595e-16 0)
(3 -2.69075e-16 0)
(3 -2.55276e-16 0)
(3 -1.71172e-16 0)
(3 -2.25244e-16 0)
(3 -2.53503e-16 0)
(3 -4.73128e-16 0)
(3 -9.18928e-16 0)
(3 -1.00025e-15 0)
(3 9.93718e-17 0)
(3 1.48668e-15 0)
(3 1.39876e-15 0)
(3 -5.21701e-16 0)
(3 -5.87061e-15 0)
(3 -6.83936e-07 0)
(2.93392 0.168196 0)
(1.1721 0.597186 0)
(0.933355 0.578093 0)
(0.906901 0.59541 0)
(0.886778 0.615835 0)
(0.870447 0.636127 0)
(0.860944 0.661829 0)
(0.859304 0.695243 0)
(0.870876 0.737701 0)
(0.903059 0.796133 0)
(0.9815 0.866751 0)
(1.11573 0.927559 0)
(1.3014 0.970224 0)
(3 8.10016e-17 0)
(3 2.56547e-16 0)
(3 1.55332e-16 0)
(3 -9.65275e-17 0)
(3 -3.73387e-16 0)
(3 -2.71302e-16 0)
(3 8.85279e-17 0)
(3 -1.85873e-16 0)
(3 -1.25854e-16 0)
(3 -2.00629e-16 0)
(3 -1.09845e-16 0)
(3 -2.2969e-16 0)
(3 -4.50862e-16 0)
(3 -1.34921e-16 0)
(3 -3.84333e-16 0)
(3 -2.13872e-16 0)
(3 -2.78767e-07 0)
(3.02303 0.00392235 0)
(1.59904 0.571437 0)
(0.985907 0.656663 0)
(0.938566 0.662206 0)
(0.926922 0.681222 0)
(0.920375 0.692045 0)
(0.922827 0.705419 0)
(0.933461 0.731415 0)
(0.958127 0.766889 0)
(1.00364 0.809254 0)
(1.08246 0.856396 0)
(1.19185 0.891695 0)
(1.34456 0.919268 0)
(3 1.38742e-16 0)
(3 3.84339e-16 0)
(3 3.72159e-16 0)
(3 5.25904e-16 0)
(3 6.60983e-16 0)
(3 5.30269e-16 0)
(3 -3.05359e-17 0)
(3 -7.22303e-17 0)
(3 2.69542e-17 0)
(3 6.88615e-17 0)
(3 9.46654e-18 0)
(3 -8.81526e-16 0)
(3 -1.45385e-15 0)
(3 -1.77709e-15 0)
(3 -5.48875e-16 0)
(3 4.27499e-16 0)
(3 -2.63522e-08 0)
(3.0002 1.79807e-05 0)
(2.63299 0.339323 0)
(1.15588 0.698425 0)
(0.99902 0.69472 0)
(0.984383 0.694915 0)
(0.976908 0.708443 0)
(0.985973 0.722709 0)
(1.00483 0.744821 0)
(1.03686 0.770273 0)
(1.0864 0.802561 0)
(1.15683 0.837181 0)
(1.24582 0.86166 0)
(1.37119 0.880428 0)
(3 -1.18765e-16 0)
(3 -1.40194e-16 0)
(3 -2.77918e-16 0)
(3 -4.78987e-17 0)
(3 2.79242e-17 0)
(3 -1.85402e-16 0)
(3 -6.90932e-16 0)
(3 -3.4109e-16 0)
(3 -7.83736e-16 0)
(3 -9.46981e-16 0)
(3 -1.53993e-15 0)
(3 -1.54014e-15 0)
(3 -1.39532e-15 0)
(3 -8.59971e-16 0)
(3 9.2865e-17 0)
(3 8.70771e-16 0)
(3 -1.53039e-10 0)
(3.00001 -2.21208e-06 0)
(3.04161 0.0190363 0)
(1.64386 0.676853 0)
(1.06873 0.746604 0)
(1.04435 0.738102 0)
(1.0373 0.747561 0)
(1.04162 0.761967 0)
(1.06241 0.775593 0)
(1.09715 0.792242 0)
(1.1506 0.812108 0)
(1.21822 0.833348 0)
(1.29402 0.850874 0)
(1.39593 0.863427 0)
(3 -1.11669e-16 0)
(3 -3.57237e-16 0)
(3 -3.62435e-16 0)
(3 -8.05089e-16 0)
(3 -8.47174e-16 0)
(3 -6.31733e-16 0)
(3 -3.68798e-16 0)
(3 -3.55679e-16 0)
(3 -3.1839e-16 0)
(3 -1.85424e-16 0)
(3 -6.95774e-16 0)
(3 -1.1554e-15 0)
(3 -1.03282e-15 0)
(3 2.47368e-17 0)
(3 1.34548e-16 0)
(3 5.89666e-16 0)
(3 -4.5352e-14 0)
(3 -3.64534e-07 0)
(3.00095 0.000303169 0)
(2.7832 0.312314 0)
(1.29286 0.774099 0)
(1.11058 0.761644 0)
(1.11372 0.75717 0)
(1.10993 0.774657 0)
(1.12642 0.789108 0)
(1.15481 0.804641 0)
(1.20349 0.819421 0)
(1.26638 0.832743 0)
(1.33551 0.841612 0)
(1.42185 0.846281 0)
(3 3.29752e-17 0)
(3 1.90743e-17 0)
(3 -1.78371e-17 0)
(3 -3.54249e-16 0)
(3 -3.58042e-16 0)
(3 1.25868e-16 0)
(3 2.16216e-16 0)
(3 2.3906e-16 0)
(3 6.25464e-16 0)
(3 8.1834e-16 0)
(3 4.11426e-16 0)
(3 -2.85422e-17 0)
(3 4.5374e-16 0)
(3 7.2647e-16 0)
(3 5.01468e-16 0)
(3 1.30641e-16 0)
(3 8.40067e-16 0)
(3 -1.67854e-08 0)
(3 2.3867e-07 0)
(3.0282 0.0104555 0)
(1.86398 0.682316 0)
(1.17234 0.805842 0)
(1.15728 0.802734 0)
(1.16475 0.802883 0)
(1.1761 0.81805 0)
(1.20081 0.831863 0)
(1.24233 0.842811 0)
(1.30036 0.84733 0)
(1.36413 0.847892 0)
(1.44227 0.846877 0)
(3 1.08007e-16 0)
(3 1.19604e-16 0)
(3 2.60309e-16 0)
(3 2.35203e-16 0)
(3 -3.29769e-17 0)
(3 1.53416e-16 0)
(3 7.04803e-16 0)
(3 1.21588e-15 0)
(3 1.1842e-15 0)
(3 6.08844e-16 0)
(3 4.7855e-16 0)
(3 1.10424e-15 0)
(3 1.56825e-15 0)
(3 7.98791e-16 0)
(3 4.207e-16 0)
(3 -1.88982e-16 0)
(3 8.99632e-16 0)
(3 -1.86278e-10 0)
(3 -1.56927e-10 0)
(3.00034 0.000171048 0)
(2.91542 0.194251 0)
(1.5234 0.81308 0)
(1.20228 0.824977 0)
(1.21921 0.818449 0)
(1.22661 0.830244 0)
(1.24881 0.83928 0)
(1.28052 0.84739 0)
(1.32917 0.850174 0)
(1.38801 0.850589 0)
(1.45876 0.849645 0)
(3 -2.60597e-17 0)
(3 7.95229e-17 0)
(3 8.092e-17 0)
(3 4.10478e-17 0)
(3 -6.42702e-17 0)
(3 -1.82265e-16 0)
(3 6.40192e-16 0)
(3 9.22111e-16 0)
(3 9.99519e-16 0)
(3 8.42138e-16 0)
(3 7.85274e-16 0)
(3 1.1728e-15 0)
(3 1.07782e-15 0)
(3 9.02275e-16 0)
(3 8.77761e-16 0)
(3 8.89384e-16 0)
(3 2.93744e-16 0)
(3 -2.50108e-13 0)
(3 -3.5816e-11 0)
(3 9.24711e-08 0)
(3.00746 0.00706511 0)
(2.49526 0.523873 0)
(1.35725 0.868517 0)
(1.25707 0.850728 0)
(1.2828 0.847821 0)
(1.29926 0.853456 0)
(1.32233 0.858208 0)
(1.36009 0.859314 0)
(1.4107 0.860067 0)
(1.47233 0.857706 0)
(3 8.82491e-17 0)
(3 -2.92916e-17 0)
(3 -1.66614e-16 0)
(3 -3.00295e-16 0)
(3 -9.04366e-17 0)
(3 3.52466e-16 0)
(3 1.08958e-16 0)
(3 -2.99765e-16 0)
(3 4.43328e-16 0)
(3 -6.07906e-17 0)
(3 -5.20855e-17 0)
(3 -3.08849e-16 0)
(3 1.11464e-15 0)
(3 1.77316e-15 0)
(3 8.90993e-16 0)
(3 7.17531e-17 0)
(3 -3.50822e-16 0)
(3 5.94631e-16 0)
(3 -2.94987e-12 0)
(3 -1.44666e-13 0)
(3.00003 6.58251e-05 0)
(3.02117 0.0429427 0)
(1.95227 0.737957 0)
(1.33189 0.876884 0)
(1.32639 0.878039 0)
(1.3473 0.874761 0)
(1.36626 0.872977 0)
(1.39705 0.870604 0)
(1.43864 0.868635 0)
(1.48816 0.863497 0)
(3 3.98242e-17 0)
(3 -4.63167e-17 0)
(3 9.21855e-17 0)
(3 2.85614e-16 0)
(3 4.92891e-16 0)
(3 2.16243e-16 0)
(3 -3.80922e-16 0)
(3 -6.19149e-16 0)
(3 -8.51257e-17 0)
(3 -8.32983e-17 0)
(3 -3.42585e-16 0)
(3 5.61743e-16 0)
(3 1.00963e-15 0)
(3 9.23788e-16 0)
(3 9.72041e-16 0)
(3 1.0497e-15 0)
(3 9.95613e-16 0)
(3 1.16778e-15 0)
(3 -5.18361e-14 0)
(3 -2.81358e-13 0)
(3 2.56229e-08 0)
(3.0008 0.00115826 0)
(2.89437 0.202982 0)
(1.73121 0.833978 0)
(1.37751 0.901671 0)
(1.39641 0.894595 0)
(1.41473 0.888815 0)
(1.44118 0.883832 0)
(1.47368 0.878332 0)
(1.51132 0.869465 0)
(3 9.45364e-17 0)
(3 1.49238e-16 0)
(3 2.344e-16 0)
(3 3.57918e-16 0)
(3 2.76073e-16 0)
(3 -3.2214e-16 0)
(3 -2.99745e-17 0)
(3 -4.6074e-17 0)
(3 -8.97407e-17 0)
(3 3.89348e-16 0)
(3 6.77232e-16 0)
(3 1.2579e-16 0)
(3 -4.48389e-16 0)
(3 -2.95359e-16 0)
(3 5.48826e-16 0)
(3 9.5963e-16 0)
(3 5.56104e-16 0)
(3 -5.44112e-16 0)
(3 -3.34831e-16 0)
(3 -1.50914e-13 0)
(3 2.63103e-12 0)
(3 1.69655e-06 0)
(3.00246 0.00983074 0)
(2.68802 0.387374 0)
(1.63992 0.888698 0)
(1.42656 0.922873 0)
(1.45583 0.912549 0)
(1.48116 0.906288 0)
(1.50769 0.897127 0)
(1.53668 0.885467 0)
(3 -1.9332e-17 0)
(3 -7.41814e-17 0)
(3 7.89106e-17 0)
(3 2.42512e-16 0)
(3 6.13252e-17 0)
(3 -4.85894e-17 0)
(3 3.29696e-16 0)
(3 2.57717e-16 0)
(3 -2.71567e-16 0)
(3 -2.60179e-16 0)
(3 1.6237e-16 0)
(3 -6.74039e-16 0)
(3 -2.18648e-15 0)
(3 -1.91185e-15 0)
(3 -5.94749e-16 0)
(3 -3.42036e-16 0)
(3 -5.73939e-16 0)
(3 -1.39136e-15 0)
(3 -5.49035e-16 0)
(3 -2.01748e-14 0)
(3 -1.79759e-14 0)
(3 2.92535e-10 0)
(3 7.01979e-05 0)
(3.00038 0.0272205 0)
(2.47021 0.539465 0)
(1.61317 0.921203 0)
(1.47474 0.934586 0)
(1.51288 0.923996 0)
(1.53972 0.913063 0)
(1.56564 0.901416 0)
(3 -1.72229e-16 0)
(3 -9.10409e-17 0)
(3 6.86675e-17 0)
(3 -2.77488e-17 0)
(3 -8.84626e-17 0)
(3 1.35846e-16 0)
(3 2.38882e-16 0)
(3 -1.86098e-16 0)
(3 -3.08637e-16 0)
(3 -1.65718e-16 0)
(3 -4.36829e-16 0)
(3 -1.32269e-15 0)
(3 -9.10981e-16 0)
(3 -7.82742e-16 0)
(3 -1.01443e-15 0)
(3 -3.12032e-16 0)
(3 2.0852e-16 0)
(3 1.68294e-16 0)
(3 7.36336e-16 0)
(3 1.16514e-15 0)
(3 -3.14829e-15 0)
(3 2.43648e-14 0)
(3 3.45312e-08 0)
(3.00001 0.000449589 0)
(2.9844 0.0571796 0)
(2.30485 0.646035 0)
(1.61501 0.943252 0)
(1.52481 0.941614 0)
(1.56221 0.930392 0)
(1.59167 0.919836 0)
(3 7.30987e-19 0)
(3 2.03099e-16 0)
(3 -1.43171e-17 0)
(3 -2.93352e-16 0)
(3 -3.60414e-16 0)
(3 -4.05116e-16 0)
(3 -3.57671e-16 0)
(3 -3.66252e-16 0)
(3 -5.38926e-17 0)
(3 -5.04534e-16 0)
(3 -8.81345e-16 0)
(3 -9.11628e-16 0)
(3 -1.27063e-16 0)
(3 3.29362e-16 0)
(3 -7.37507e-16 0)
(3 -5.03344e-16 0)
(3 7.93155e-16 0)
(3 1.20572e-15 0)
(3 1.17604e-15 0)
(3 1.41424e-15 0)
(3 7.87133e-16 0)
(3 2.18663e-17 0)
(3 6.01543e-12 0)
(3 4.05332e-07 0)
(2.99998 0.00152943 0)
(2.95115 0.101229 0)
(2.20599 0.711247 0)
(1.63745 0.956718 0)
(1.57445 0.949963 0)
(1.6101 0.939449 0)
(3 3.14679e-19 0)
(3 -1.66112e-16 0)
(3 -2.94977e-16 0)
(3 -1.91054e-16 0)
(3 -1.80862e-16 0)
(3 -2.48279e-16 0)
(3 -5.05619e-16 0)
(3 -1.48366e-16 0)
(3 7.36097e-17 0)
(3 -1.36451e-16 0)
(3 2.96111e-16 0)
(3 4.76603e-16 0)
(3 2.13024e-17 0)
(3 -2.54101e-16 0)
(3 -3.00903e-16 0)
(3 7.78642e-17 0)
(3 8.76658e-16 0)
(3 1.1741e-15 0)
(3 6.91953e-16 0)
(3 3.45542e-16 0)
(3 -1.5858e-16 0)
(3 -6.14536e-16 0)
(3 1.32016e-15 0)
(3 1.22354e-10 0)
(3 2.45083e-06 0)
(2.99965 0.00356855 0)
(2.90908 0.149658 0)
(2.16206 0.745762 0)
(1.67756 0.964919 0)
(1.62658 0.959759 0)
(3 -8.15385e-17 0)
(3 -1.48042e-16 0)
(3 1.67257e-16 0)
(3 3.19459e-16 0)
(3 2.88733e-16 0)
(3 2.03414e-16 0)
(3 3.17235e-16 0)
(3 6.51736e-16 0)
(3 8.48143e-16 0)
(3 1.2997e-15 0)
(3 1.69271e-15 0)
(3 1.48492e-15 0)
(3 8.70903e-16 0)
(3 2.16268e-16 0)
(3 -8.80094e-17 0)
(3 2.57356e-17 0)
(3 -1.288e-16 0)
(3 3.73613e-16 0)
(3 2.33737e-17 0)
(3 -4.71789e-16 0)
(3 -9.02439e-16 0)
(3 -5.59833e-16 0)
(3 -3.0791e-16 0)
(3 8.22694e-15 0)
(3 1.04039e-09 0)
(3 9.53884e-06 0)
(2.99883 0.0062451 0)
(2.86888 0.189883 0)
(2.17294 0.767466 0)
(1.70451 0.956576 0)
(3 6.29434e-17 0)
(3 2.61487e-16 0)
(3 4.11601e-16 0)