/*--------------------------------*- C++ -*----------------------------------*\
  =========                 |
  \\      /  F ield         | OpenFOAM: The Open Source CFD Toolbox
   \\    /   O peration     | Website:  https://openfoam.org
    \\  /    A nd           | Version:  6.0
     \\/     M anipulation  |
\*---------------------------------------------------------------------------*/
FoamFile
{
    version     2.0;
    format      ascii;
    class       volScalarField;
    location    "3.000001";
    object      p;
}
// * * * * * * * * * * * * * * * * * * * * * * * * * * * * * * * * * * * * * //

dimensions      [1 -1 -2 0 0 0 0];

internalField   nonuniform List<scalar> 
2700
(
1
1
1
1
1
1
1
1
1
1
1
1
1
1
1
3.74978
9.82472
10.5524
10.9793
11.2398
11.2452
10.9823
10.643
10.6706
11.5157
12.3185
12.2178
11.5899
11.4395
12.2282
1
1
1
1
1
1
1
1
1
1
1
1
1
1
1
3.79871
10.0186
10.6039
10.63
10.7937
11.0469
11.3217
11.4946
11.5846
11.5147
11.4021
11.6329
11.9203
11.8844
11.8463
1
1
1
1
1
1
1
1
1
1
1
1
1
1
1
3.81059
10.1306
10.62
10.513
10.4742
10.5854
11.0645
11.9556
12.3578
11.8052
10.9145
10.9403
11.462
12.1511
11.6952
1
1
1
1
1
1
1
1
1
1
1
1
1
1
1
3.74047
10.0376
10.5639
10.5354
10.5869
10.8937
11.3694
11.6471
11.8098
11.5617
11.2423
11.3792
12.0116
11.8686
11.5567
1
1
1
1
1
1
1
1
1
1
1
1
1
1
1
3.63672
9.8334
10.4516
10.7345
11.122
11.261
11.2375
11.046
10.9596
11.4729
12.0058
12.0752
11.8229
11.441
11.7719
1
1
1
1
1
1
1
1
1
1
1
1
1
1
1
3.54469
9.70205
10.3739
10.8776
11.2834
11.4891
11.2253
10.8385
10.7782
11.2205
12.3874
12.541
11.6911
11.4615
11.6353
1
1
1
1
1
1
1
1
1
1
1
1
1
1
1
3.47911
9.72034
10.6414
10.8637
11.0167
11.0548
11.0718
11.0655
10.9797
11.5405
11.9838
11.9307
11.6632
11.5955
12.2693
1
1
1
1
1
1
1
1
1
1
1
1
1
1
1
3.45761
9.89957
10.7312
10.6806
10.5828
10.5746
10.9459
11.4609
11.8258
11.5903
11.1315
10.9777
11.6903
11.9757
12.3321
1
1
1
1
1
1
1
1
1
1
1
1
1
1
1
3.36626
9.9024
10.7122
10.5094
10.4015
10.3993
10.7676
11.6444
12.2402
11.9087
10.7882
10.7371
11.1167
12.2072
12.2201
1
1
1
1
1
1
1
1
1
1
1
1
1
1
1
3.19404
9.71167
10.3862
10.4852
10.6674
11.0784
11.3437
11.3664
11.3521
11.139
11.1434
11.4244
11.8691
11.915
11.5083
1
1
1
1
1
1
1
1
1
1
1
1
1
1
1
3.02204
9.44989
10.0308
10.4318
11.1748
11.5702
11.6489
11.138
10.3788
10.5025
11.4964
12.2932
12.4783
11.3039
10.8934
1
1
1
1
1
1
1
1
1
1
1
1
1
1
1
2.85663
9.21243
10.1621
10.741
11.2002
11.5205
11.3557
10.7249
10.4693
11.032
12.1896
12.4766
11.7281
11.0518
10.9554
1
1
1
1
1
1
1
1
1
1
1
1
1
1
1
2.70925
9.13348
10.7499
10.8943
10.9028
10.8044
10.7342
10.9562
11.5049
11.9121
11.9233
11.5562
10.9941
11.257
12.0099
1
1
1
1
1
1
1
1
1
1
1
1
1
1
1
2.658
9.33588
10.8958
10.9734
10.7049
10.2152
10.187
10.9464
12.1346
12.4052
11.7093
10.4902
10.406
11.3523
12.4847
1
1
1
1
1
1
1
1
1
1
1
1
1
1
1
2.50012
9.28783
10.6949
10.4943
10.3668
10.2497
10.4515
11.4181
11.9778
11.9947
11.1535
10.6427
10.556
11.5477
12.2897
1
1
1
1
1
1
1
1
1
1
1
1
1
1
1
2.30293
9.00696
10.2655
10.0768
10.3099
10.9363
11.6079
11.5133
11.1947
10.5586
10.7533
11.4425
12.0021
11.8322
11.0812
1
1
1
1
1
1
1
1
1
1
1
1
1
1
1
2.0447
8.50654
9.96426
10.0148
10.5887
11.5424
11.9997
11.817
10.4479
9.66235
10.0607
11.6493
12.8189
11.8434
10.3686
1
1
1
1
1
1
1
1
1
1
1
1
1
1
1
1.83412
8.1301
10.077
10.6711
11.1618
11.3089
11.4056
10.6642
10.3119
10.205
10.8056
12.0577
12.3106
11.1181
10.3789
1
1
1
1
1
1
1
1
1
1
1
1
1
1
1
1.69827
7.9708
10.5811
11.0457
11.1781
10.9488
10.1517
9.96552
10.5244
11.9233
12.3098
11.7619
10.5681
10.8028
11.3936
1
1
1
1
1
1
1
1
1
1
1
1
1
1
1
1.55163
8.20657
10.9234
10.9212
10.9013
10.0899
9.67882
9.87175
11.2988
12.4775
12.9222
11.5976
9.97069
10.5229
12.1116
1
1
1
1
1
1
1
1
1
1
1
1
1
1
1
1.34641
7.93122
10.805
10.552
10.094
10.0599
10.2931
11.3095
11.6862
11.8079
11.4262
10.4992
10.1995
10.7403
12.1815
1
1
1
1
1
1
1
1
1
1
1
1
1
1
1
1.13497
7.45577
10.4918
9.8596
9.64625
10.0231
11.3223
11.9766
11.8108
10.7607
9.46793
9.92919
10.504
11.2438
12.0099
1
1
1
1
1
1
1
1
1
1
1
1
1
1
1
1.04307
6.83224
9.98947
9.65396
9.95039
11.1054
11.6681
11.7664
11.2584
9.76961
9.13404
9.46961
10.8457
11.5392
11.5638
1
1
1
1
1
1
1
1
1
1
1
1
1
1
1
1.01414
6.57051
9.70522
10.2679
11.1055
11.3008
11.2383
10.7604
9.74153
9.90469
9.96419
10.5214
11.91
11.5237
10.3684
1
1
1
1
1
1
1
1
1
1
1
1
1
1
1
1.00207
6.34476
10.1502
10.788
11.1641
11.37
10.8156
9.50051
9.06913
9.23085
11.0296
12.3488
12.1806
11.0199
9.65283
1
1
1
1
1
1
1
1
1
1
1
1
1
1
1
1.00002
6.1834
10.5282
10.5756
10.7308
10.3458
9.6228
9.64146
9.81101
11.2331
11.9997
12.1852
11.8552
9.11012
9.1226
1
1
1
1
1
1
1
1
1
1
1
1
1
1
1
0.999984
5.76537
10.4004
10.4717
10.0076
9.38361
9.16733
9.65426
11.5899
12.212
12.2941
11.4285
9.45243
8.63337
8.66636
1
1
1
1
1
1
1
1
1
1
1
1
1
1
1
0.999995
5.12932
9.67894
9.61786
9.59534
9.47642
10.0162
11.3518
11.6649
11.8033
10.1656
8.32464
8.69731
8.4855
8.26641
1
1
1
1
1
1
1
1
1
1
1
1
1
1
1
1
4.62372
9.41481
9.35058
9.43963
10.4731
11.4563
11.541
11.4477
9.85248
8.18021
7.87772
8.27152
9.64197
11.4375
1
1
1
1
1
1
1
1
1
1
1
1
1
1
1
1
4.24384
9.25401
9.76562
10.419
11.0374
11.2954
11.0219
9.73284
8.69761
8.24855
8.2989
8.60324
10.6815
11.5337
1
1
1
1
1
1
1
1
1
1
1
1
1
1
1
1
3.14541
9.14179
10.189
10.2534
10.214
10.0712
9.92723
9.86104
10.2089
10.6083
10.7488
10.0662
8.94998
6.92362
1
1
1
1
1
1
1
1
1
1
1
1
1
1
1
1
1.54512
7.75408
9.96167
9.877
9.92371
9.97343
10.0407
10.0996
9.98157
9.73511
9.30192
8.64694
7.58101
5.8448
1
1
1
1
1
1
1
1
1
1
1
1
1
1
1
1
1.01994
5.65504
9.55198
9.66186
9.74317
9.78324
9.74266
9.60413
9.37731
9.06759
8.5889
7.98471
7.15097
5.92331
1
1
1
1
1
1
1
1
1
1
1
1
1
1
1
1
0.999918
2.92391
8.72148
9.54058
9.54919
9.52081
9.44175
9.29446
9.08845
8.79219
8.33979
7.70886
6.78012
5.84589
1
1
1
1
1
1
1
1
1
1
1
1
1
1
1
1
0.999987
1.19381
6.84911
9.49164
9.39835
9.32453
9.20301
9.03728
8.79329
8.46398
8.03907
7.43451
6.63151
5.87511
1
1
1
1
1
1
1
1
1
1
1
1
1
1
1
1
0.999999
1.00189
3.84021
8.76578
9.16837
9.04203
8.92724
8.75011
8.50376
8.18307
7.79884
7.268
6.62429
5.98784
1
1
1
1
1
1
1
1
1
1
1
1
1
1
1
1
1
0.999994
1.35807
7.05883
9.09968
8.87771
8.72999
8.53187
8.27576
7.96393
7.58543
7.12948
6.59948
6.02991
1
1
1
1
1
1
1
1
1
1
1
1
1
1
1
1
1
0.999999
1.00711
3.92771
8.40504
8.62015
8.50608
8.31702
8.07082
7.77375
7.41453
7.0015
6.54044
6.04632
1
1
1
1
1
1
1
1
1
1
1
1
1
1
1
1
1
1
0.999998
1.36806
6.3707
8.56932
8.38595
8.17284
7.92441
7.63567
7.29989
6.91826
6.50589
6.07324
1
1
1
1
1
1
1
1
1
1
1
1
1
1
1
1
1
1
0.999999
1.00714
2.84508
7.67021
8.19654
7.9902
7.77502
7.50633
7.20043
6.86514
6.49983
6.11524
1
1
1
1
1
1
1
1
1
1
1
1
1
1
1
1
1
1
1
1.00001
1.15909
4.99041
8.02751
7.90834
7.69849
7.43221
7.1405
6.83589
6.49953
6.15539
1
1
1
1
1
1
1
1
1
1
1
1
1
1
1
1
1
1
1
1
1.00156
1.74368
6.17012
7.80534
7.60594
7.35657
7.08169
6.79589
6.48042
6.17782
1
1
1
1
1
1
1
1
1
1
1
1
1
1
1
1
1
1
1
1
1
1.02791
2.58888
6.82305
7.60889
7.31271
7.07241
6.80126
6.50351
6.22098
1
1
1
1
1
1
1
1
1
1
1
1
1
1
1
1
1
1
1
1
1
1.00015
1.12157
3.78322
7.13038
7.32602
7.06151
6.79194
6.51287
6.24057
1
1
1
1
1
1
1
1
1
1
1
1
1
1
1
1
1
1
1
1
1
1
1.00129
1.37809
4.68593
7.15007
7.06711
6.79015
6.53113
6.26824
1
1
1
1
1
1
1
1
1
1
1
1
1
1
1
1
1
1
1
1
1
1
1
1.00867
1.72457
5.25494
6.94732
6.81483
6.55972
6.30343
1
1
1
1
1
1
1
1
1
1
1
1
1
1
1
1
1
1
1
1
1
1
1
1.00004
1.02799
2.09068
5.52879
6.74354
6.61395
6.35924
1
1
1
1
1
1
1
1
1
1
1
1
1
1
1
1
1
1
1
1
1
1
1
1
1.00018
1.06104
2.40416
5.62453
6.56239
6.44016
1
1
1
1
1
1
1
1
1
1
1
1
1
1
1
1
1
1
1
1
1
1
1
1
1
1.00057
1.10118
2.61516
5.60456
6.3952
1
1
1
1
1
1
1
1
1
1
1
1
1
1
1
1
1
1
1
1
1
1
1
1
1
1
1.00121
1.13673
2.71631
5.60008
1
1
1
1
1
1
1
1
1
1
1
1
1
1
1
1
1
1
1
1
1
1
1
1
1
1
1
1.00208
1.15517
3.09639
1
1
1
1
1
1
1
1
1
1
1
1
1
1
1
1
1
1
1
1
1
1
1
1
1
1
1
1.00001
1.00217
1.25577
1
1
1
1
1
1
1
1
1
1
1
1
1
1
1
1
1
1
1
1
1
1
1
1
1
1
1
1
1.00001
1.00461
1
1
1
1
1
1
1
1
1
1
1
1
1
1
1
1
1
1
1
1
1
1
1
1
1
1
1
1
1
1.00001
1
1
1
1
1
1
1
1
1
1
1
1
1
1
1
1
1
1
1
1
1
1
1
1
1
1
1
1
1
1
1
1
1
1
1
1
1
1
1
1
1
1
1
1
1
1
1
1
1
1
1
1
1
1
1
1
1
1
1
1
1
1
1
1
1
1
1
1
1
1
1
1
1
1
1
1
1
1
1
1
1
1
1
1
1
1
1
1
1
1
1
1
1
1
1
1
1
1
1
1
1
1
1
1
1
1
1
1
1
1
1
1
1
1
1
1
1
1
1
1
1
1
1
1
1
1
1
1
1
1
1
1
1
1
1
1
1
1
1
1
1
1
1
1
1
1
1
1
1
1
1
1
1
1
1
1
1
1
1
1
1
1
1
1
1
1
1
1
1
1
1
1
1
1
1
1
1
1
1
1
0.851783
0.781138
0.950117
1.06371
1.16396
1.20697
1.26321
1.31891
1.30488
1.59083
4.05963
5.68916
5.75896
5.6097
5.35828
5.08622
4.82017
4.5892
4.34347
4.09363
3.85428
3.62403
3.41248
3.2289
3.07536
2.94221
2.81851
2.69107
2.55548
2.32249
2.40142
1.06141
0.986008
1.03645
1.11697
1.18134
1.25756
1.28977
1.29372
1.51099
4.02791
5.74718
5.73354
5.55855
5.30921
5.06162
4.80117
4.54019
4.31189
4.07728
3.86189
3.6541
3.44443
3.2506
3.08392
2.93965
2.80502
2.66515
2.53691
2.32449
3.1493
1.32487
1.02195
1.04004
1.10531
1.19522
1.25408
1.28784
1.29673
1.49314
4.00803
5.82632
5.74544
5.56831
5.31657
5.05358
4.79547
4.53772
4.28682
4.04705
3.83197
3.64093
3.46028
3.28588
3.11379
2.94951
2.79186
2.63781
2.50625
2.30821
3.67697
1.82943
1.23202
1.05563
1.07636
1.14787
1.24272
1.27142
1.28145
1.56514
3.60928
5.99837
5.75351
5.50543
5.28036
5.02724
4.76475
4.50774
4.26342
4.04015
3.83845
3.64923
3.4655
3.28605
3.10826
2.93666
2.77574
2.62607
2.5023
2.3137
4.10115
2.33435
1.48968
1.15139
1.07872
1.11163
1.17989
1.24173
1.2999
1.8256
3.13429
5.55708
5.8432
5.46224
5.24217
5.01194
4.75701
4.49327
4.24228
4.02212
3.82912
3.65237
3.47634
3.292
3.09818
2.90701
2.73461
2.58719
2.47964
2.31156
4.40459
2.74707
1.82045
1.34956
1.13444
1.12088
1.14009
1.19443
1.34929
2.24455
2.9277
4.78209
5.69995
5.46098
5.2197
4.98508
4.73709
4.48302
4.23752
4.01561
3.81502
3.63242
3.45507
3.27368
3.0849
2.89728
2.7254
2.5775
2.47221
2.30707
4.62141
3.05524
2.14781
1.54519
1.25043
1.14329
1.12931
1.1594
1.47591
2.67578
2.92123
3.84152
5.33499
5.42087
5.19157
4.95241
4.70868
4.47095
4.23799
4.01472
3.8045
3.61098
3.42702
3.24688
3.06561
2.88768
2.72231
2.57533
2.46852
2.30186
4.78214
3.33647
2.43296
1.76369
1.43092
1.20123
1.12821
1.15785
1.71356
2.96234
2.9996
3.18384
4.60393
5.28417
5.14999
4.912
4.67561
4.45403
4.23494
4.01205
3.78952
3.58347
3.39621
3.221
3.05082
2.88458
2.72607
2.57777
2.46297
2.28932
4.92209
3.5869
2.68272
1.97922
1.61177
1.31277
1.15348
1.20967
2.04597
3.02869
3.05417
2.98363
3.70494
4.93872
5.11922
4.86261
4.63887
4.42915
4.21844
4.00017
3.77448
3.55996
3.36523
3.19091
3.0307
2.87831
2.72849
2.57934
2.45562
2.27102
5.02947
3.82729
2.89375
2.18973
1.80448
1.44374
1.21843
1.39037
2.43135
2.89757
3.00464
2.89829
3.05998
4.24751
4.94996
4.81145
4.60666
4.39042
4.17896
3.96945
3.75602
3.54454
3.34235
3.16218
3.00417
2.86188
2.72309
2.57816
2.44926
2.25568
5.13377
4.04108
3.0763
2.40331
1.98173
1.57356
1.3185
1.74268
2.88286
2.93001
2.88146
2.78054
2.75657
3.3923
4.5572
4.77579
4.56209
4.34567
4.14051
3.93711
3.73172
3.52705
3.32498
3.13884
2.97703
2.83644
2.70691
2.57191
2.44413
2.24404
5.23002
4.2348
3.22536
2.61708
2.13549
1.69687
1.48939
2.28671
3.1632
3.02985
2.84949
2.72438
2.60479
2.75478
3.81407
4.58652
4.50132
4.29646
4.09746
3.89945
3.69895
3.50101
3.30495
3.11702
2.94882
2.80668
2.68191
2.55594
2.43651
2.2392
5.32862
4.38047
3.36865
2.8237
2.24981
1.83669
1.82854
2.92007
3.29149
3.13445
2.87921
2.68981
2.54281
2.45229
2.92877
4.08806
4.4137
4.2481
4.05721
3.85903
3.66264
3.46871
3.27704
3.0928
2.9248
2.77944
2.65402
2.53395
2.42524
2.23828
5.41375
4.47718
3.51524
3.00104
2.35338
1.98652
2.39914
3.55395
3.42299
3.19317
2.92599
2.69108
2.51633
2.38446
2.41578
3.24922
4.1513
4.21749
4.02086
3.81892
3.62625
3.43577
3.24788
3.07004
2.90781
2.76239
2.63324
2.51349
2.41255
2.23609
5.51928
4.54431
3.68166
3.14707
2.47024
2.1949
3.20794
4.02395
3.66653
3.29654
3.00736
2.73848
2.52348
2.34495
2.23566
2.46855
3.52896
4.06616
3.95535
3.77084
3.58496
3.40294
3.22175
3.04783
2.88707
2.74493
2.6176
2.49616
2.39828
2.22843
5.62597
4.59856
3.8711
3.2595
2.61964
2.59593
4.11024
4.25941
3.87011
3.4148
3.07629
2.79484
2.5565
2.35434
2.2
2.12771
2.68133
3.70133
3.89579
3.72709
3.54221
3.36477
3.19494
3.03213
2.87286
2.72897
2.60192
2.47666
2.37856
2.21457
5.72514
4.68686
4.08346
3.34317
2.77849
3.34586
4.88109
4.48839
4.01349
3.54651
3.17061
2.87308
2.61417
2.38613
2.17745
2.03335
2.11095
2.9517
3.71873
3.67053
3.49185
3.34115
3.19942
3.04494
2.88809
2.73514
2.58986
2.45677
2.35773
2.19612
5.81318
4.83897
4.27341
3.41862
2.99246
4.42419
5.39268
4.77483
4.15811
3.66243
3.26166
2.94353
2.66597
2.42259
2.20076
2.01368
1.92025
2.19768
3.18031
3.53077
3.45351
3.29267
3.12527
2.97812
2.83442
2.68482
2.55545
2.45185
2.35974
2.18692
5.91831
5.0545
4.3796
3.5354
3.52166
5.5707
5.64449
5.00775
4.31451
3.77742
3.35906
3.02348
2.73327
2.47191
2.24009
2.01748
1.86551
1.84281
2.40891
3.28857
3.38881
3.24797
3.0718
2.92944
2.79189
2.65427
2.53313
2.41494
2.3144
2.15553
5.98558
5.30177
4.40446
3.65623
4.56891
6.49907
5.84757
5.15445
4.47041
3.9133
3.47283
3.10955
2.79693
2.51821
2.27432
2.04949
1.85023
1.74456
1.85318
2.6419
3.22002
3.18172
3.02882
2.88677
2.74127
2.62729
2.51638
2.39176
2.2864
2.13378
5.93907
5.50877
4.50269
3.8744
6.05157
7.03743
6.11181
5.29975
4.61389
4.04381
3.57751
3.18622
2.85473
2.56856
2.31868
2.09937
1.8859
1.72819
1.65917
1.97829
2.78551
3.0447
2.9866
2.85508
2.71301
2.59717
2.47816
2.36629
2.26067
2.11402
5.51649
5.32001
4.34154
4.64371
7.50502
7.29606
6.30238
5.42702
4.74126
4.1722
3.68828
3.27059
2.91582
2.61579
2.3564
2.13276
1.92686
1.72231
1.60274
1.60961
2.13961
2.8411
2.93634
2.8222
2.68596
2.56448
2.44896
2.34327
2.23499
2.10492
4.60851
4.99466
4.38905
6.27643
8.52138
7.46063
6.43325
5.55189
4.86302
4.29099
3.7883
3.34409
2.96508
2.65385
2.39195
2.16575
1.96479
1.76033
1.58966
1.50515
1.63737
2.31281
2.78343
2.76952
2.65837
2.5335
2.4184
2.31
2.20845
2.11082
3.07362
4.70464
4.77783
8.2744
9.02513
7.62313
6.56001
5.68487
4.98265
4.39183
3.87099
3.4125
3.01793
2.68966
2.41652
2.187
1.98727
1.80175
1.60729
1.48371
1.43505
1.76698
2.4732
2.67555
2.62438
2.51434
2.39498
2.26792
2.18186
2.18862
2.16939
4.28223
6.15473
9.78137
9.27393
7.76742
6.67214
5.799
5.07935
4.46767
3.93593
3.47517
3.07526
2.73226
2.44283
2.19945
1.99218
1.81744
1.64119
1.46977
1.3853
1.4306
1.93857
2.5074
2.57205
2.48653
2.36513
2.23214
2.16209
2.43168
1.42969
3.65502
7.6002
10.7872
9.43405
7.90032
6.78466
5.89755
5.15415
4.5193
3.97776
3.51859
3.1219
2.77299
2.47141
2.21645
2.00409
1.82989
1.6645
1.48847
1.3684
1.31089
1.48427
2.09742
2.42566
2.41839
2.3225
2.21612
2.24541
2.90522
1.05621
2.7917
8.98005
11.3189
9.61396
7.96128
6.85472
5.96471
5.20675
4.55668
4.00443
3.54118
3.14866
2.80482
2.50144
2.23896
2.01789
1.8349
1.67495
1.51355
1.36463
1.27644
1.26868
1.60792
2.20009
2.33159
2.27975
2.29415
2.63702
3.39486
0.996197
2.23987
10.5596
11.9982
9.72984
8.00942
6.89637
6.00723
5.24592
4.59282
4.03789
3.56831
3.16782
2.82238
2.52103
2.25778
2.03262
1.83957
1.67948
1.53174
1.38523
1.26178
1.21307
1.26631
1.73951
2.17529
2.28376
2.63556
3.41171
3.78241
0.997948
2.36704
11.3817
12.2449
9.75385
8.06614
6.93317
6.03299
5.26813
4.6156
4.0611
3.58795
3.1802
2.82988
2.52659
2.26299
2.04111
1.84335
1.68629
1.56997
1.44204
1.31095
1.20426
1.15473
1.35596
1.87769
2.45638
3.28978
3.78285
3.84348
0.998568
2.47301
12.3557
12.7534
9.7939
8.07292
6.93042
6.03599
5.28071
4.63806
4.08634
3.60489
3.1839
2.82578
2.52666
2.26976
2.0463
1.84998
1.68184
1.54001
1.40982
1.28757
1.15688
1.0855
1.13761
1.67676
2.82948
4.00771
4.22709
3.96287
)
;

boundaryField
{
    inlet
    {
        type            fixedValue;
        value           uniform 1;
    }
    outlet
    {
        type            zeroGradient;
    }
    top
    {
        type            symmetryPlane;
    }
    bottom
    {
        type            symmetryPlane;
    }
    step
    {
        type            zeroGradient;
    }
    defaultFaces
    {
        type            empty;
    }
}


// ************************************************************************* //
