/*--------------------------------*- C++ -*----------------------------------*\
  =========                 |
  \\      /  F ield         | OpenFOAM: The Open Source CFD Toolbox
   \\    /   O peration     | Website:  https://openfoam.org
    \\  /    A nd           | Version:  6.0
     \\/     M anipulation  |
\*---------------------------------------------------------------------------*/
FoamFile
{
    version     2.0;
    format      ascii;
    class       volScalarField;
    location    "3.000001";
    object      rho;
}
// * * * * * * * * * * * * * * * * * * * * * * * * * * * * * * * * * * * * * //

dimensions      [1 -3 0 0 0 0 0];

internalField   nonuniform List<scalar> 
2700
(
1.39997
1.39997
1.39997
1.39997
1.39997
1.39997
1.39997
1.39997
1.39997
1.39997
1.39997
1.39997
1.39997
1.39997
1.39997
2.80362
5.18449
5.44781
5.60643
5.703
5.70446
5.60521
5.47686
5.48405
5.78576
6.06905
6.03459
5.81061
5.7579
6.03966
1.39997
1.39997
1.39997
1.39997
1.39997
1.39997
1.39997
1.39997
1.39997
1.39997
1.39997
1.39997
1.39997
1.39997
1.39997
2.82428
5.2558
5.46721
5.47871
5.54031
5.6324
5.72968
5.78868
5.81636
5.78777
5.74664
5.82756
5.93052
5.91828
5.90709
1.39997
1.39997
1.39997
1.39997
1.39997
1.39997
1.39997
1.39997
1.39997
1.39997
1.39997
1.39997
1.39997
1.39997
1.39997
2.82851
5.29685
5.47322
5.43525
5.42271
5.46429
5.63697
5.9536
6.09288
5.89394
5.57057
5.57927
5.76953
6.01381
5.8537
1.39997
1.39997
1.39997
1.39997
1.39997
1.39997
1.39997
1.39997
1.39997
1.39997
1.39997
1.39997
1.39997
1.39997
1.39997
2.79503
5.26192
5.45221
5.44366
5.46468
5.57732
5.7478
5.8447
5.8996
5.8078
5.69147
5.73918
5.966
5.91484
5.80566
1.39997
1.39997
1.39997
1.39997
1.39997
1.39997
1.39997
1.39997
1.39997
1.39997
1.39997
1.39997
1.39997
1.39997
1.39997
2.74868
5.18684
5.41065
5.51745
5.66111
5.71192
5.70159
5.62848
5.59416
5.77769
5.96741
5.99096
5.90184
5.76441
5.88486
1.39997
1.39997
1.39997
1.39997
1.39997
1.39997
1.39997
1.39997
1.39997
1.39997
1.39997
1.39997
1.39997
1.39997
1.39997
2.70771
5.13952
5.38264
5.57034
5.72017
5.79516
5.69783
5.55342
5.52887
5.6885
6.10385
6.15748
5.85672
5.7737
5.83845
1.39997
1.39997
1.39997
1.39997
1.39997
1.39997
1.39997
1.39997
1.39997
1.39997
1.39997
1.39997
1.39997
1.39997
1.39997
2.6763
5.14884
5.48242
5.5663
5.62383
5.63789
5.6425
5.63753
5.60352
5.80491
5.96287
5.94312
5.84872
5.8233
6.06548
1.39997
1.39997
1.39997
1.39997
1.39997
1.39997
1.39997
1.39997
1.39997
1.39997
1.39997
1.39997
1.39997
1.39997
1.39997
2.66331
5.21954
5.51794
5.50067
5.4657
5.46306
5.59792
5.78236
5.91058
5.82511
5.65922
5.60168
5.86029
5.96224
6.09035
1.39997
1.39997
1.39997
1.39997
1.39997
1.39997
1.39997
1.39997
1.39997
1.39997
1.39997
1.39997
1.39997
1.39997
1.39997
2.62248
5.22669
5.51364
5.43885
5.40004
5.39969
5.53446
5.84929
6.05938
5.9419
5.53496
5.51541
5.65635
6.04532
6.05295
1.39997
1.39997
1.39997
1.39997
1.39997
1.39997
1.39997
1.39997
1.39997
1.39997
1.39997
1.39997
1.39997
1.39997
1.39997
2.54423
5.16428
5.39563
5.43132
5.50026
5.65025
5.745
5.75125
5.74359
5.6655
5.66646
5.76698
5.92684
5.94308
5.80046
1.39997
1.39997
1.39997
1.39997
1.39997
1.39997
1.39997
1.39997
1.39997
1.39997
1.39997
1.39997
1.39997
1.39997
1.39997
2.46374
5.07104
5.26536
5.41379
5.68705
5.83081
5.85742
5.67005
5.38871
5.43483
5.79602
6.07851
6.14633
5.72597
5.57995
1.39997
1.39997
1.39997
1.39997
1.39997
1.39997
1.39997
1.39997
1.39997
1.39997
1.39997
1.39997
1.39997
1.39997
1.39997
2.38476
4.9835
5.31639
5.53036
5.6983
5.81439
5.75382
5.52066
5.42398
5.63001
6.04508
6.14488
5.88063
5.63655
5.60432
1.39997
1.39997
1.39997
1.39997
1.39997
1.39997
1.39997
1.39997
1.39997
1.39997
1.39997
1.39997
1.39997
1.39997
1.39997
2.30948
4.95581
5.53813
5.58989
5.59302
5.55649
5.52897
5.60779
5.80544
5.95063
5.95318
5.82058
5.6177
5.71227
5.9858
1.39997
1.39997
1.39997
1.39997
1.39997
1.39997
1.39997
1.39997
1.39997
1.39997
1.39997
1.39997
1.39997
1.39997
1.39997
2.28228
5.04117
5.59603
5.6225
5.52217
5.3396
5.32861
5.60811
6.03301
6.12909
5.88149
5.43392
5.40469
5.75052
6.15707
1.39997
1.39997
1.39997
1.39997
1.39997
1.39997
1.39997
1.39997
1.39997
1.39997
1.39997
1.39997
1.39997
1.39997
1.39997
2.2063
5.03582
5.52427
5.44741
5.39809
5.35427
5.42959
5.78079
5.97893
5.98605
5.68231
5.49214
5.46275
5.82245
6.09167
1.39997
1.39997
1.39997
1.39997
1.39997
1.39997
1.39997
1.39997
1.39997
1.39997
1.39997
1.39997
1.39997
1.39997
1.39997
2.10896
4.94121
5.3668
5.29228
5.37963
5.61183
5.85489
5.81836
5.7029
5.46736
5.53856
5.78687
5.98932
5.92548
5.65943
1.39997
1.39997
1.39997
1.39997
1.39997
1.39997
1.39997
1.39997
1.39997
1.39997
1.39997
1.39997
1.39997
1.39997
1.39997
1.97586
4.75128
5.25466
5.27048
5.48667
5.83541
5.99832
5.93253
5.42866
5.13414
5.28557
5.86392
6.27906
5.93271
5.39968
1.39997
1.39997
1.39997
1.39997
1.39997
1.39997
1.39997
1.39997
1.39997
1.39997
1.39997
1.39997
1.39997
1.39997
1.39997
1.87087
4.61192
5.3019
5.52078
5.69987
5.75399
5.78922
5.5143
5.38045
5.34125
5.5632
6.01224
6.10538
5.67293
5.40596
1.39997
1.39997
1.39997
1.39997
1.39997
1.39997
1.39997
1.39997
1.39997
1.39997
1.39997
1.39997
1.39997
1.39997
1.39997
1.80461
4.5611
5.49871
5.66862
5.71219
5.62844
5.33054
5.25832
5.46635
5.96933
6.11093
5.9124
5.47371
5.55997
5.77793
1.39997
1.39997
1.39997
1.39997
1.39997
1.39997
1.39997
1.39997
1.39997
1.39997
1.39997
1.39997
1.39997
1.39997
1.39997
1.73172
4.70015
5.63933
5.63182
5.61899
5.31243
5.15612
5.22814
5.75331
6.1767
6.33436
5.86006
5.25647
5.46095
6.03941
1.39997
1.39997
1.39997
1.39997
1.39997
1.39997
1.39997
1.39997
1.39997
1.39997
1.39997
1.39997
1.39997
1.39997
1.39997
1.63135
4.63676
5.61566
5.51036
5.32632
5.30707
5.3945
5.76372
5.89696
5.94266
5.80494
5.4603
5.34621
5.54477
6.06746
1.39997
1.39997
1.39997
1.39997
1.39997
1.39997
1.39997
1.39997
1.39997
1.39997
1.39997
1.39997
1.39997
1.39997
1.39997
1.49465
4.44496
5.51035
5.25646
5.16589
5.30354
5.77767
6.01056
5.94868
5.56532
5.07887
5.25223
5.46403
5.73214
6.01234
1.39997
1.39997
1.39997
1.39997
1.39997
1.39997
1.39997
1.39997
1.39997
1.39997
1.39997
1.39997
1.39997
1.39997
1.39997
1.43319
4.16254
5.31905
5.18284
5.2893
5.71169
5.91004
5.94109
5.75412
5.19618
4.95631
5.08217
5.5932
5.84166
5.85774
1.39997
1.39997
1.39997
1.39997
1.39997
1.39997
1.39997
1.39997
1.39997
1.39997
1.39997
1.39997
1.39997
1.39997
1.39997
1.41207
4.03892
5.20494
5.41772
5.72769
5.79123
5.76577
5.58384
5.19277
5.25245
5.28206
5.48823
5.98142
5.83971
5.42046
1.39997
1.39997
1.39997
1.39997
1.39997
1.39997
1.39997
1.39997
1.39997
1.39997
1.39997
1.39997
1.39997
1.39997
1.39997
1.40198
3.92619
5.35442
5.60913
5.75269
5.82693
5.61765
5.11109
4.94074
5.00679
5.67775
6.1553
6.08685
5.66674
5.15672
1.39997
1.39997
1.39997
1.39997
1.39997
1.39997
1.39997
1.39997
1.39997
1.39997
1.39997
1.39997
1.39997
1.39997
1.39997
1.39999
3.8543
5.47959
5.51756
5.58848
5.45116
5.17128
5.17092
5.23759
5.75878
6.03595
6.10502
5.98747
4.94591
4.95915
1.39997
1.39997
1.39997
1.39997
1.39997
1.39997
1.39997
1.39997
1.39997
1.39997
1.39997
1.39997
1.39997
1.39997
1.39997
1.39995
3.68211
5.41602
5.46017
5.30747
5.08172
5.00184
5.18986
5.90151
6.12438
6.15633
5.8514
5.08761
4.76328
4.787
1.39997
1.39997
1.39997
1.39997
1.39997
1.39997
1.39997
1.39997
1.39997
1.39997
1.39997
1.39997
1.39997
1.39997
1.39997
1.39996
3.40697
5.12325
5.1266
5.14248
5.11217
5.32649
5.82268
5.93521
5.98702
5.37762
4.66465
4.79891
4.7104
4.65661
1.39997
1.39997
1.39997
1.39997
1.39997
1.39997
1.39997
1.39997
1.39997
1.39997
1.39997
1.39997
1.39997
1.39997
1.39997
1.39997
3.18403
5.0176
5.01126
5.06965
5.47655
5.85273
5.8878
5.85845
5.2518
4.59882
4.47979
4.62681
5.15109
5.8275
1.39997
1.39997
1.39997
1.39997
1.39997
1.39997
1.39997
1.39997
1.39997
1.39997
1.39997
1.39997
1.39997
1.39997
1.39997
1.39997
3.02161
4.95528
5.16037
5.42178
5.67272
5.77903
5.67985
5.19417
4.78636
4.6065
4.62146
4.73821
5.52467
5.84644
1.39997
1.39997
1.39997
1.39997
1.39997
1.39997
1.39997
1.39997
1.39997
1.39997
1.39997
1.39997
1.39997
1.39997
1.39997
1.39997
2.54328
4.98887
5.3452
5.36782
5.35384
5.30294
5.2519
5.22219
5.34343
5.47676
5.51462
5.26286
4.81729
3.81523
1.39997
1.39997
1.39997
1.39997
1.39997
1.39997
1.39997
1.39997
1.39997
1.39997
1.39997
1.39997
1.39997
1.39997
1.39997
1.39997
1.75054
4.60219
5.33621
5.2658
5.26266
5.27083
5.29268
5.311
5.25869
5.1533
4.97606
4.72065
4.28482
3.4823
1.39997
1.39997
1.39997
1.39997
1.39997
1.39997
1.39997
1.39997
1.39997
1.39997
1.39997
1.39997
1.39997
1.39997
1.39997
1.39997
1.41543
3.70355
5.21755
5.22105
5.22549
5.2203
5.1924
5.12953
5.03522
4.90815
4.7145
4.47152
4.12477
3.56602
1.39997
1.39997
1.39997
1.39997
1.39997
1.39997
1.39997
1.39997
1.39997
1.39997
1.39997
1.39997
1.39997
1.39997
1.39997
1.39997
1.39987
2.47897
4.97132
5.22901
5.19907
5.16151
5.10946
5.03609
4.9405
4.8128
4.62571
4.36604
3.97705
3.56467
1.39997
1.39997
1.39997
1.39997
1.39997
1.39997
1.39997
1.39997
1.39997
1.39997
1.39997
1.39997
1.39997
1.39997
1.39997
1.39997
1.39995
1.54433
4.25236
5.2314
5.18094
5.13073
5.05866
4.97052
4.85241
4.70416
4.52021
4.26365
3.92181
3.58617
1.39997
1.39997
1.39997
1.39997
1.39997
1.39997
1.39997
1.39997
1.39997
1.39997
1.39997
1.39997
1.39997
1.39997
1.39997
1.39997
1.39997
1.40146
2.92726
4.9868
5.11001
5.05335
4.98855
4.8958
4.7744
4.62332
4.44811
4.21383
3.93206
3.64834
1.39997
1.39997
1.39997
1.39997
1.39997
1.39997
1.39997
1.39997
1.39997
1.39997
1.39997
1.39997
1.39997
1.39997
1.39997
1.39997
1.39997
1.39996
1.65308
4.38078
5.11625
5.01654
4.94003
4.84202
4.71857
4.57046
4.39366
4.18439
3.9443
3.68469
1.39997
1.39997
1.39997
1.39997
1.39997
1.39997
1.39997
1.39997
1.39997
1.39997
1.39997
1.39997
1.39997
1.39997
1.39997
1.39997
1.39997
1.39997
1.40571
2.99655
4.89964
4.92497
4.87174
4.78253
4.66637
4.52637
4.35789
4.16498
3.95108
3.71956
1.39997
1.39997
1.39997
1.39997
1.39997
1.39997
1.39997
1.39997
1.39997
1.39997
1.39997
1.39997
1.39997
1.39997
1.39997
1.39997
1.39997
1.39997
1.39996
1.66089
4.12693
4.9495
4.86052
4.75566
4.6362
4.49959
4.34223
4.16396
3.96963
3.76318
1.39997
1.39997
1.39997
1.39997
1.39997
1.39997
1.39997
1.39997
1.39997
1.39997
1.39997
1.39997
1.39997
1.39997
1.39997
1.39997
1.39997
1.39997
1.39997
1.40582
2.50746
4.71099
4.81748
4.71777
4.60907
4.47779
4.33162
4.1722
3.9985
3.81351
1.39997
1.39997
1.39997
1.39997
1.39997
1.39997
1.39997
1.39997
1.39997
1.39997
1.39997
1.39997
1.39997
1.39997
1.39997
1.39997
1.39997
1.39997
1.39997
1.39998
1.52256
3.55216
4.79115
4.72628
4.6184
4.4853
4.3416
4.19285
4.03019
3.86254
1.39997
1.39997
1.39997
1.39997
1.39997
1.39997
1.39997
1.39997
1.39997
1.39997
1.39997
1.39997
1.39997
1.39997
1.39997
1.39997
1.39997
1.39997
1.39997
1.39997
1.4013
1.90213
4.11111
4.72943
4.62809
4.49969
4.35937
4.21482
4.05748
3.90566
1.39997
1.39997
1.39997
1.39997
1.39997
1.39997
1.39997
1.39997
1.39997
1.39997
1.39997
1.39997
1.39997
1.39997
1.39997
1.39997
1.39997
1.39997
1.39997
1.39997
1.39997
1.42292
2.40162
4.44159
4.67862
4.53419
4.40525
4.26252
4.10879
3.96268
1.39997
1.39997
1.39997
1.39997
1.39997
1.39997
1.39997
1.39997
1.39997
1.39997
1.39997
1.39997
1.39997
1.39997
1.39997
1.39997
1.39997
1.39997
1.39997
1.39997
1.39997
1.40011
1.49619
3.03276
4.57421
4.57168
4.4428
4.30367
4.15764
4.01349
1.39997
1.39997
1.39997
1.39997
1.39997
1.39997
1.39997
1.39997
1.39997
1.39997
1.39997
1.39997
1.39997
1.39997
1.39997
1.39997
1.39997
1.39997
1.39997
1.39997
1.39997
1.39997
1.40113
1.67631
3.50743
4.55031
4.49801
4.35077
4.21176
4.07019
1.39997
1.39997
1.39997
1.39997
1.39997
1.39997
1.39997
1.39997
1.39997
1.39997
1.39997
1.39997
1.39997
1.39997
1.39997
1.39997
1.39997
1.39997
1.39997
1.39997
1.39997
1.39997
1.39997
1.4074
1.90707
3.78287
4.48769
4.41249
4.27471
4.13403
1.39997
1.39997
1.39997
1.39997
1.39997
1.39997
1.39997
1.39997
1.39997
1.39997
1.39997
1.39997
1.39997
1.39997
1.39997
1.39997
1.39997
1.39997
1.39997
1.39997
1.39997
1.39997
1.39997
1.4
1.42355
2.13637
3.93373
4.42327
4.34964
4.2106
1.39997
1.39997
1.39997
1.39997
1.39997
1.39997
1.39997
1.39997
1.39997
1.39997
1.39997
1.39997
1.39997
1.39997
1.39997
1.39997
1.39997
1.39997
1.39997
1.39997
1.39997
1.39997
1.39997
1.39997
1.40014
1.45054
2.32868
3.99856
4.36779
4.29796
1.39997
1.39997
1.39997
1.39997
1.39997
1.39997
1.39997
1.39997
1.39997
1.39997
1.39997
1.39997
1.39997
1.39997
1.39997
1.39997
1.39997
1.39997
1.39997
1.39997
1.39997
1.39997
1.39997
1.39997
1.39997
1.40051
1.48235
2.45929
4.00895
4.31623
1.39997
1.39997
1.39997
1.39997
1.39997
1.39997
1.39997
1.39997
1.39997
1.39997
1.39997
1.39997
1.39997
1.39997
1.39997
1.39997
1.39997
1.39997
1.39997
1.39997
1.39997
1.39997
1.39997
1.39997
1.39997
1.39997
1.40109
1.51007
2.53223
4.00738
1.39997
1.39997
1.39997
1.39997
1.39997
1.39997
1.39997
1.39997
1.39997
1.39997
1.39997
1.39997
1.39997
1.39997
1.39997
1.39997
1.39997
1.39997
1.39997
1.39997
1.39997
1.39997
1.39997
1.39997
1.39997
1.39997
1.39997
1.40189
1.52514
2.70032
1.39997
1.39997
1.39997
1.39997
1.39997
1.39997
1.39997
1.39997
1.39997
1.39997
1.39997
1.39997
1.39997
1.39997
1.39997
1.39997
1.39997
1.39997
1.39997
1.39997
1.39997
1.39997
1.39997
1.39997
1.39997
1.39997
1.39997
1.39998
1.40193
1.59282
1.39997
1.39997
1.39997
1.39997
1.39997
1.39997
1.39997
1.39997
1.39997
1.39997
1.39997
1.39997
1.39997
1.39997
1.39997
1.39997
1.39997
1.39997
1.39997
1.39997
1.39997
1.39997
1.39997
1.39997
1.39997
1.39997
1.39997
1.39997
1.39998
1.40395
1.39997
1.39997
1.39997
1.39997
1.39997
1.39997
1.39997
1.39997
1.39997
1.39997
1.39997
1.39997
1.39997
1.39997
1.39997
1.39997
1.39997
1.39997
1.39997
1.39997
1.39997
1.39997
1.39997
1.39997
1.39997
1.39997
1.39997
1.39997
1.39997
1.39997
1.39997
1.39997
1.39997
1.39997
1.39997
1.39997
1.39997
1.39997
1.39997
1.39997
1.39997
1.39997
1.39997
1.39997
1.39997
1.39997
1.39997
1.39997
1.39997
1.39997
1.39997
1.39997
1.39997
1.39997
1.39997
1.39997
1.39997
1.39997
1.39997
1.39997
1.39997
1.39997
1.39997
1.39997
1.39997
1.39997
1.39997
1.39997
1.39997
1.39997
1.39997
1.39997
1.39997
1.39997
1.39997
1.39997
1.39997
1.39997
1.39997
1.39997
1.39997
1.39997
1.39997
1.39997
1.39997
1.39997
1.39997
1.39997
1.39997
1.39997
1.39997
1.39997
1.39997
1.39997
1.39997
1.39997
1.39997
1.39997
1.39997
1.39997
1.39997
1.39997
1.39997
1.39997
1.39997
1.39997
1.39997
1.39997
1.39997
1.39997
1.39997
1.39997
1.39997
1.39997
1.39997
1.39997
1.39997
1.39997
1.39997
1.39997
1.39997
1.39997
1.39997
1.39997
1.39997
1.39997
1.39997
1.39997
1.39997
1.39997
1.39997
1.39997
1.39997
1.39997
1.39997
1.39997
1.39997
1.39997
1.39997
1.39997
1.39997
1.39997
1.39997
1.39997
1.39997
1.39997
1.39997
1.39997
1.39997
1.39997
1.39997
1.39997
1.39997
1.39997
1.39997
1.39997
1.39997
1.39997
1.39997
1.39997
1.39997
1.39997
1.39997
1.39997
1.39997
1.39997
1.39997
1.39997
1.39997
1.39997
1.39997
1.39997
1.39997
1.39997
1.39997
1.39997
1.39997
1.39997
1.39997
1.39997
1.39997
1.39997
1.39997
1.39997
1.39997
1.39997
1.39997
1.39997
1.39997
1.39997
1.39997
1.39997
1.39997
1.39997
1.39997
1.39997
1.39997
1.39997
1.39997
1.39997
1.39997
1.39997
1.39997
1.39997
1.39997
1.39997
1.39997
1.39997
1.39997
1.39997
0.738861
0.658769
0.758468
0.832431
0.89749
0.93276
0.971334
1.00652
0.999954
1.12613
2.15276
2.7941
2.87028
2.86126
2.81664
2.75642
2.6825
2.60316
2.50356
2.39509
2.29
2.19085
2.10264
2.0289
1.96855
1.91509
1.86217
1.80355
1.73791
1.62066
1.6448
0.853452
0.814063
0.843783
0.892938
0.937106
0.98861
1.00972
1.01167
1.1191
2.18871
2.87182
2.91344
2.89241
2.83919
2.77986
2.70328
2.60935
2.51432
2.40917
2.31072
2.21816
2.12864
2.04881
1.98141
1.92211
1.86353
1.79817
1.73482
1.62634
2.17471
1.09685
0.891253
0.899938
0.938902
0.994983
1.04052
1.06095
1.06292
1.17643
2.30547
3.06405
3.06343
3.02658
2.95121
2.86641
2.77783
2.67827
2.56862
2.45467
2.34892
2.2565
2.17343
2.09715
2.02362
1.95237
1.88045
1.80558
1.73813
1.63381
2.52693
1.48272
1.08679
0.961632
0.977608
1.02739
1.09543
1.1139
1.1171
1.28491
2.3202
3.32418
3.24391
3.15705
3.07161
2.97123
2.86527
2.75678
2.64448
2.53314
2.42833
2.33045
2.2384
2.15233
2.06975
1.98972
1.91169
1.83518
1.76913
1.66544
2.77144
1.82961
1.30337
1.06808
1.01797
1.04567
1.09793
1.14128
1.17808
1.49059
2.20263
3.28663
3.39998
3.24725
3.15455
3.0543
2.9425
2.8248
2.7075
2.59831
2.49814
2.40463
2.31249
2.21864
2.122
2.02644
1.93804
1.8593
1.79893
1.70126
2.92995
2.08527
1.54163
1.23441
1.07734
1.07824
1.0951
1.1348
1.2388
1.75144
2.11924
3.00989
3.40389
3.30047
3.19536
3.09104
2.98002
2.86496
2.75081
2.64396
2.54396
2.45022
2.35786
2.26335
2.16527
2.06726
1.97567
1.89422
1.83357
1.7352
3.04152
2.26044
1.74959
1.37787
1.17745
1.1062
1.10017
1.12146
1.33344
1.98403
2.12024
2.58943
3.27778
3.30806
3.2075
3.10126
2.99235
2.88487
2.77742
2.67205
2.57032
2.47402
2.38019
2.28644
2.19071
2.09549
2.00534
1.9231
1.86139
1.76214
3.13044
2.4132
1.91835
1.52195
1.30895
1.15472
1.10407
1.12452
1.47731
2.13292
2.16798
2.27643
2.9588
3.26619
3.20721
3.1018
2.99622
2.89575
2.79463
2.6899
2.58327
2.48198
2.38715
2.2961
2.20583
2.11587
2.02852
1.94521
1.87937
1.77685
3.21644
2.55081
2.06323
1.65734
1.42937
1.23452
1.12402
1.16286
1.65819
2.16861
2.20243
2.18777
2.55347
3.1325
3.21665
3.10153
3.00031
2.90361
2.8049
2.70157
2.59309
2.4874
2.38835
2.29714
2.2114
2.12826
2.04517
1.96123
1.89056
1.78223
3.29103
2.6862
2.18707
1.78807
1.55374
1.32435
1.17058
1.28479
1.86676
2.11815
2.19937
2.15627
2.25406
2.84542
3.17234
3.10768
3.012
2.90936
2.80784
2.70675
2.60247
2.49687
2.39313
2.2979
2.21204
2.1333
2.05557
1.97351
1.89969
1.78612
3.36571
2.81081
2.29733
1.92003
1.66744
1.41364
1.24087
1.50083
2.11752
2.15878
2.14783
2.10711
2.11588
2.4557
3.02639
3.1277
3.02437
2.91719
2.81601
2.71533
2.6123
2.50787
2.40253
2.30285
2.21375
2.13459
2.0608
1.9833
1.90933
1.79098
3.43778
2.92711
2.39116
2.05154
1.76675
1.4992
1.3577
1.80637
2.28329
2.22498
2.1431
2.09224
2.04544
2.13969
2.69821
3.08198
3.03276
2.92556
2.82471
2.72433
2.62109
2.51763
2.41338
2.31114
2.21722
2.13591
2.06335
1.98954
1.91912
1.80041
3.51375
3.02294
2.4838
2.17879
1.84314
1.59445
1.57991
2.15363
2.36794
2.2972
2.17679
2.08916
2.02303
1.99031
2.26487
2.87751
3.0256
2.93623
2.83615
2.73304
2.62947
2.52591
2.4222
2.32043
2.22519
2.14079
2.06657
1.99467
1.929
1.8139
3.58724
3.09527
2.57938
2.29008
1.91488
1.69113
1.91638
2.50628
2.45074
2.34655
2.22118
2.1076
2.02488
1.96413
1.999
2.47007
2.93687
2.95021
2.84862
2.74117
2.637
2.53337
2.43035
2.33108
2.238
2.15253
2.07524
2.00235
1.93986
1.82843
3.67453
3.1552
2.68709
2.38543
1.99695
1.82347
2.33998
2.76456
2.5972
2.42269
2.28609
2.15453
2.04799
1.95653
1.90925
2.05417
2.64253
2.90629
2.84387
2.74254
2.63953
2.53862
2.43825
2.3406
2.24794
2.16377
2.08694
2.01242
1.95067
1.84094
3.76666
3.21208
2.80846
2.46413
2.09894
2.06934
2.79642
2.90498
2.72661
2.50991
2.3464
2.20714
2.08574
1.97951
1.89856
1.86625
2.19409
2.74623
2.83569
2.74287
2.63809
2.53787
2.44294
2.35104
2.25905
2.17371
2.0971
2.02033
1.95787
1.84993
3.85943
3.28979
2.94488
2.53036
2.20084
2.4874
3.21012
3.03809
2.82535
2.60538
2.42188
2.27245
2.1376
2.01428
1.89559
1.81532
1.86679
2.3575
2.76641
2.73297
2.62863
2.5429
2.46253
2.37445
2.28358
2.19345
2.10649
2.02485
1.96159
1.85475
3.94931
3.40307
3.07535
2.59536
2.33491
3.0204
3.48725
3.2119
2.92965
2.6941
2.4957
2.33246
2.18415
2.04892
1.9204
1.8082
1.7553
1.92933
2.49371
2.6715
2.62483
2.53304
2.43678
2.35072
2.26632
2.17807
2.09978
2.03442
1.97528
1.86269
4.04753
3.55362
3.1641
2.68316
2.65003
3.57565
3.64104
3.36243
3.04176
2.78245
2.57228
2.39668
2.23844
2.09015
1.95411
1.81761
1.72456
1.71337
2.06254
2.5546
2.60108
2.52108
2.4185
2.33402
2.25264
2.17118
2.09764
2.0237
1.95965
1.85539
4.12077
3.73209
3.21878
2.77106
3.20784
4.05845
3.7765
3.47024
3.15248
2.88033
2.65515
2.46135
2.28808
2.12829
1.98377
1.84611
1.71852
1.65304
1.72534
2.20248
2.52315
2.49664
2.40346
2.31872
2.2325
2.1643
2.09699
2.02008
1.95355
1.85252
4.12048
3.88096
3.3205
2.91788
3.91518
4.35472
3.94537
3.57931
3.25497
2.97185
2.72947
2.51791
2.33222
2.16707
2.0185
1.88452
1.7482
1.64667
1.60306
1.81151
2.29532
2.42986
2.39106
2.31078
2.22529
2.15511
2.08284
2.01361
1.94688
1.84987
3.883
3.78644
3.25844
3.37431
4.6092
4.52207
4.07934
3.6745
3.34424
3.05713
2.80315
2.57633
2.37736
2.20401
2.04956
1.91238
1.78196
1.64693
1.56856
1.57672
1.91983
2.33073
2.37268
2.30311
2.21936
2.14455
2.07372
2.00796
1.93918
1.8535
3.3356
3.61763
3.28727
4.18582
5.11296
4.64137
4.17432
3.75955
3.42297
3.13265
2.86868
2.62772
2.41564
2.2359
2.07992
1.94106
1.81401
1.67958
1.56431
1.51059
1.60293
2.03304
2.30362
2.28563
2.21422
2.13631
2.06478
1.99626
1.9316
1.86563
2.53126
3.43694
3.48377
5.05457
5.35084
4.73937
4.25448
3.84028
3.49611
3.19775
2.9257
2.67764
2.45702
2.26725
2.1042
1.96292
1.83632
1.71572
1.58376
1.50057
1.46916
1.69668
2.13886
2.24423
2.20875
2.13792
2.06194
1.97965
1.9269
1.92251
2.20502
3.26083
4.16176
5.67864
5.46502
4.81523
4.31946
3.90876
3.55823
3.25063
2.97431
2.72623
2.50284
2.3044
2.13125
1.98079
1.84864
1.73454
1.6159
1.49506
1.4376
1.47099
1.81463
2.16265
2.19022
2.13484
2.05607
1.97015
1.92538
2.08036
1.80054
3.05219
4.87514
6.09559
5.5393
4.88436
4.38517
3.97205
3.61268
3.29454
3.01352
2.76656
2.54506
2.34284
2.16142
2.00268
1.86627
1.75131
1.63931
1.51447
1.42905
1.38812
1.51357
1.92036
2.11826
2.10586
2.04193
1.97412
1.98827
2.36476
1.45346
2.59681
5.4897
6.31875
5.63114
4.93189
4.44097
4.02889
3.66377
3.33777
3.04958
2.79852
2.57772
2.3767
2.19235
2.02721
1.88381
1.76187
1.65229
1.53814
1.42947
1.3646
1.36031
1.60197
1.98861
2.06227
2.02819
2.03387
2.23961
2.66984
1.39569
2.20815
6.02937
6.61841
5.71421
4.98844
4.49508
4.08233
3.71304
3.3824
3.0896
2.83195
2.60368
2.39915
2.21401
2.04677
1.89951
1.76973
1.65931
1.55497
1.44803
1.35537
1.31959
1.3588
1.69041
1.97036
2.04006
2.25652
2.7039
2.92318
1.39779
2.29255
6.2982
6.77746
5.77395
5.0529
4.54427
4.1214
3.74599
3.41188
3.11626
2.85403
2.61936
2.41025
2.22278
2.0544
1.90842
1.77458
1.66566
1.58382
1.49162
1.3938
1.31301
1.27484
1.42613
1.78414
2.15546
2.64669
2.93395
2.98753
1.39852
2.40425
6.71253
6.99868
5.82315
5.07571
4.5564
4.13293
3.76015
3.42968
3.13462
2.86709
2.62411
2.40974
2.22451
2.06019
1.91289
1.77984
1.66293
1.56225
1.46786
1.37669
1.27638
1.2203
1.26131
1.6522
2.39555
3.03951
3.18698
3.05912
)
;

boundaryField
{
    inlet
    {
        type            calculated;
        value           uniform 1.39997;
    }
    outlet
    {
        type            calculated;
        value           nonuniform List<scalar> 
30
(
1.62118
1.62651
1.63369
1.66515
1.70051
1.73441
1.76151
1.77649
1.78223
1.78632
1.79127
1.80063
1.81394
1.82831
1.84082
1.84988
1.8548
1.86304
1.85519
1.85235
1.84974
1.85348
1.86592
1.92322
2.08231
2.36748
2.67181
2.92414
2.98891
3.06066
)
;
    }
    top
    {
        type            symmetryPlane;
    }
    bottom
    {
        type            symmetryPlane;
    }
    step
    {
        type            calculated;
        value           nonuniform List<scalar> 
60
(
6.03966
5.90709
5.8537
5.80566
5.88486
5.83845
6.06548
6.09035
6.05295
5.80046
5.57995
5.60432
5.9858
6.15707
6.09167
5.65943
5.39968
5.40596
5.77793
6.03941
6.06746
6.01234
5.85774
5.42046
5.15672
4.95915
4.787
4.65661
5.8275
5.84644
0.738861
0.658769
0.758468
0.832431
0.89749
0.93276
0.971334
1.00652
0.999954
1.12613
2.15276
2.7941
2.87028
2.86126
2.81664
2.75642
2.6825
2.60316
2.50356
2.39509
2.29
2.19085
2.10264
2.0289
1.96855
1.91509
1.86217
1.80355
1.73791
1.62066
)
;
    }
    defaultFaces
    {
        type            empty;
    }
}


// ************************************************************************* //
