/*--------------------------------*- C++ -*----------------------------------*\
  =========                 |
  \\      /  F ield         | OpenFOAM: The Open Source CFD Toolbox
   \\    /   O peration     | Website:  https://openfoam.org
    \\  /    A nd           | Version:  6.0
     \\/     M anipulation  |
\*---------------------------------------------------------------------------*/
FoamFile
{
    version     2.0;
    format      ascii;
    class       volScalarField;
    location    "3.000001";
    object      T;
}
// * * * * * * * * * * * * * * * * * * * * * * * * * * * * * * * * * * * * * //

dimensions      [0 0 0 1 0 0 0];

internalField   nonuniform List<scalar> 
2700
(
1
1
1
1
1
1
1
1
1
1
1
1
1
1
1
1.87243
2.65297
2.71174
2.74161
2.75914
2.75975
2.74296
2.72051
2.724
2.78643
2.84155
2.83441
2.7924
2.7814
2.83444
1
1
1
1
1
1
1
1
1
1
1
1
1
1
1
1.88298
2.66862
2.71529
2.71628
2.72743
2.74577
2.7663
2.77992
2.78836
2.78523
2.77773
2.7946
2.81393
2.81125
2.80755
1
1
1
1
1
1
1
1
1
1
1
1
1
1
1
1.88605
2.67754
2.71644
2.70785
2.7041
2.71201
2.74792
2.81133
2.83946
2.80406
2.74299
2.74519
2.78125
2.82869
2.79702
1
1
1
1
1
1
1
1
1
1
1
1
1
1
1
1.87352
2.67058
2.71249
2.70943
2.71221
2.73445
2.7692
2.78981
2.80244
2.78694
2.76535
2.77574
2.81861
2.80916
2.78677
1
1
1
1
1
1
1
1
1
1
1
1
1
1
1
1.85227
2.65411
2.70427
2.72371
2.75042
2.76004
2.75925
2.74747
2.7427
2.77994
2.81658
2.82172
2.80451
2.7786
2.80045
1
1
1
1
1
1
1
1
1
1
1
1
1
1
1
1.83271
2.64277
2.69815
2.73381
2.76153
2.77549
2.75808
2.7323
2.72915
2.76141
2.84115
2.85134
2.79459
2.77912
2.78997
1
1
1
1
1
1
1
1
1
1
1
1
1
1
1
1.81992
2.64296
2.71733
2.73232
2.74244
2.74506
2.74705
2.74789
2.74314
2.78322
2.81356
2.81041
2.79175
2.78765
2.83187
1
1
1
1
1
1
1
1
1
1
1
1
1
1
1
1.81749
2.65523
2.72264
2.71832
2.71065
2.70986
2.73742
2.77481
2.80103
2.78554
2.75369
2.74355
2.7927
2.81196
2.83474
1
1
1
1
1
1
1
1
1
1
1
1
1
1
1
1.79703
2.65236
2.71993
2.70515
2.6966
2.69622
2.72371
2.78697
2.82799
2.8058
2.72868
2.72539
2.75142
2.82692
2.82634
1
1
1
1
1
1
1
1
1
1
1
1
1
1
1
1.75753
2.63271
2.69484
2.70264
2.71516
2.7449
2.76429
2.76682
2.76702
2.75249
2.75311
2.77335
2.80358
2.80672
2.77758
1
1
1
1
1
1
1
1
1
1
1
1
1
1
1
1.71722
2.60885
2.66701
2.69761
2.75087
2.77799
2.78419
2.75005
2.69638
2.70535
2.77684
2.8313
2.84222
2.76373
2.73309
1
1
1
1
1
1
1
1
1
1
1
1
1
1
1
1.67698
2.58797
2.67599
2.719
2.75169
2.77387
2.76297
2.7197
2.7022
2.74325
2.82297
2.8425
2.79203
2.74498
2.73669
1
1
1
1
1
1
1
1
1
1
1
1
1
1
1
1.6423
2.58012
2.71743
2.72844
2.72905
2.7222
2.71796
2.73519
2.77437
2.8025
2.80391
2.7795
2.73981
2.75888
2.80889
1
1
1
1
1
1
1
1
1
1
1
1
1
1
1
1.63044
2.59264
2.72581
2.73232
2.71389
2.67828
2.6764
2.73258
2.81585
2.83352
2.78715
2.70266
2.69546
2.76373
2.83872
1
1
1
1
1
1
1
1
1
1
1
1
1
1
1
1.58641
2.58204
2.71033
2.69701
2.68858
2.67997
2.69483
2.7652
2.8046
2.80523
2.74794
2.71287
2.70525
2.77656
2.82438
1
1
1
1
1
1
1
1
1
1
1
1
1
1
1
1.52873
2.5519
2.67783
2.66561
2.68299
2.72825
2.77559
2.77024
2.74812
2.70363
2.71809
2.76819
2.80543
2.7955
2.74114
1
1
1
1
1
1
1
1
1
1
1
1
1
1
1
1.44874
2.50646
2.65472
2.66017
2.7018
2.76913
2.80066
2.78859
2.69434
2.63471
2.66474
2.7812
2.85808
2.79473
2.68826
1
1
1
1
1
1
1
1
1
1
1
1
1
1
1
1.37247
2.46793
2.66084
2.70601
2.74148
2.7515
2.75814
2.70742
2.68312
2.67477
2.7192
2.80768
2.82284
2.74374
2.68781
1
1
1
1
1
1
1
1
1
1
1
1
1
1
1
1.31747
2.44653
2.69394
2.72793
2.73957
2.7233
2.66616
2.65321
2.69537
2.79633
2.82009
2.78504
2.70291
2.72009
2.76062
1
1
1
1
1
1
1
1
1
1
1
1
1
1
1
1.25438
2.44438
2.71174
2.7148
2.71605
2.65897
2.62796
2.64342
2.74937
2.82805
2.85596
2.77068
2.65552
2.69764
2.80754
1
1
1
1
1
1
1
1
1
1
1
1
1
1
1
1.15544
2.39466
2.69365
2.68084
2.6531
2.65374
2.67124
2.74701
2.77435
2.78171
2.75564
2.69189
2.67086
2.71176
2.81068
1
1
1
1
1
1
1
1
1
1
1
1
1
1
1
1.06308
2.34824
2.66556
2.62593
2.61416
2.64579
2.74346
2.78957
2.77957
2.70687
2.60979
2.6466
2.69129
2.74608
2.79649
1
1
1
1
1
1
1
1
1
1
1
1
1
1
1
1.01889
2.29786
2.62922
2.60769
2.63367
2.72201
2.76393
2.77266
2.73916
2.63215
2.58002
2.60856
2.71466
2.7654
2.76368
1
1
1
1
1
1
1
1
1
1
1
1
1
1
1
1.00545
2.27747
2.6104
2.65328
2.71442
2.73184
2.72873
2.69782
2.62632
2.63996
2.64093
2.68385
2.78756
2.7626
2.67791
1
1
1
1
1
1
1
1
1
1
1
1
1
1
1
1.00063
2.26236
2.65387
2.69254
2.71688
2.73174
2.69535
2.60227
2.56976
2.58107
2.71958
2.80862
2.80152
2.72247
2.62059
1
1
1
1
1
1
1
1
1
1
1
1
1
1
1
1
2.24595
2.68983
2.68335
2.68817
2.65702
2.60508
2.61032
2.62241
2.73079
2.7832
2.79424
2.77193
2.57867
2.57531
1
1
1
1
1
1
1
1
1
1
1
1
1
1
1
0.999996
2.19204
2.68836
2.68492
2.63972
2.5851
2.56585
2.60424
2.74939
2.79153
2.79571
2.73431
2.60104
2.53742
2.5345
1
1
1
1
1
1
1
1
1
1
1
1
1
1
1
0.999999
2.10771
2.64485
2.62644
2.6122
2.59512
2.63258
2.72935
2.75146
2.76002
2.64643
2.49842
2.53724
2.52196
2.48522
1
1
1
1
1
1
1
1
1
1
1
1
1
1
1
1
2.03298
2.62684
2.61222
2.60673
2.67725
2.74033
2.74417
2.73561
2.62637
2.49021
2.46185
2.50277
2.6205
2.74768
1
1
1
1
1
1
1
1
1
1
1
1
1
1
1
1
1.96625
2.61445
2.64934
2.69032
2.72391
2.73631
2.71668
2.62326
2.54398
2.50683
2.51397
2.54195
2.70674
2.76183
1
1
1
1
1
1
1
1
1
1
1
1
1
1
1
1
1.73142
2.56535
2.66861
2.67416
2.67085
2.65879
2.64624
2.64355
2.67472
2.7117
2.72874
2.67772
2.60098
2.54057
1
1
1
1
1
1
1
1
1
1
1
1
1
1
1
1
1.23569
2.35876
2.61347
2.62591
2.6399
2.64901
2.65587
2.66223
2.6573
2.64469
2.61701
2.56436
2.47692
2.34975
1
1
1
1
1
1
1
1
1
1
1
1
1
1
1
1
1.0088
2.13765
2.56298
2.59072
2.61031
2.62365
2.6268
2.62119
2.60722
2.58638
2.55047
2.4999
2.42707
2.32541
1
1
1
1
1
1
1
1
1
1
1
1
1
1
1
1
0.999986
1.65124
2.45605
2.55431
2.57134
2.58235
2.587
2.58374
2.57536
2.55751
2.52403
2.47185
2.38668
2.29589
1
1
1
1
1
1
1
1
1
1
1
1
1
1
1
1
0.999997
1.08221
2.25488
2.54004
2.53958
2.54428
2.54691
2.54539
2.53695
2.5189
2.48981
2.44112
2.36725
2.29352
1
1
1
1
1
1
1
1
1
1
1
1
1
1
1
1
1
1.00082
1.83659
2.46086
2.51182
2.50498
2.50531
2.50212
2.49351
2.47788
2.45456
2.41466
2.35851
2.2977
1
1
1
1
1
1
1
1
1
1
1
1
1
1
1
1
1
0.999999
1.15013
2.2558
2.48996
2.47751
2.47401
2.46681
2.45536
2.43941
2.41697
2.38531
2.34238
2.29102
1
1
1
1
1
1
1
1
1
1
1
1
1
1
1
1
1
1
1.00299
1.835
2.40156
2.45036
2.44435
2.43461
2.42135
2.40436
2.38191
2.35341
2.31744
2.27572
1
1
1
1
1
1
1
1
1
1
1
1
1
1
1
1
1
1
1
1.15314
2.16112
2.42384
2.41539
2.40591
2.39289
2.3757
2.35354
2.32599
2.29443
2.25935
1
1
1
1
1
1
1
1
1
1
1
1
1
1
1
1
1
1
1
1.00295
1.58847
2.27936
2.38193
2.37104
2.3616
2.34683
2.32716
2.30358
2.27574
2.24495
1
1
1
1
1
1
1
1
1
1
1
1
1
1
1
1
1
1
1
1
1.06576
1.96681
2.34563
2.34253
2.33364
2.31977
2.30249
2.28247
2.25774
2.23101
1
1
1
1
1
1
1
1
1
1
1
1
1
1
1
1
1
1
1
1
1.00061
1.28335
2.10113
2.31048
2.30075
2.28882
2.27421
2.25728
2.23596
2.21442
1
1
1
1
1
1
1
1
1
1
1
1
1
1
1
1
1
1
1
1
1
1.01133
1.50913
2.15059
2.27679
2.25786
2.24758
2.23378
2.21591
2.1978
1
1
1
1
1
1
1
1
1
1
1
1
1
1
1
1
1
1
1
1
1
1.00005
1.04944
1.74639
2.1823
2.24342
2.22515
2.2094
2.19303
2.17681
1
1
1
1
1
1
1
1
1
1
1
1
1
1
1
1
1
1
1
1
1
1
1.00046
1.15091
1.87036
2.19982
2.19958
2.1849
2.17092
2.156
1
1
1
1
1
1
1
1
1
1
1
1
1
1
1
1
1
1
1
1
1
1
1
1.00334
1.266
1.94476
2.16727
2.16217
2.14831
2.13463
1
1
1
1
1
1
1
1
1
1
1
1
1
1
1
1
1
1
1
1
1
1
1
1.00001
1.01097
1.37003
1.96763
2.13434
2.12876
2.11436
1
1
1
1
1
1
1
1
1
1
1
1
1
1
1
1
1
1
1
1
1
1
1
1
1.00006
1.02405
1.44535
1.96925
2.10338
2.09775
1
1
1
1
1
1
1
1
1
1
1
1
1
1
1
1
1
1
1
1
1
1
1
1
1
1.00019
1.03998
1.4887
1.95717
2.07429
1
1
1
1
1
1
1
1
1
1
1
1
1
1
1
1
1
1
1
1
1
1
1
1
1
1
1.00041
1.05385
1.50174
1.95638
1
1
1
1
1
1
1
1
1
1
1
1
1
1
1
1
1
1
1
1
1
1
1
1
1
1
1
1.00071
1.06036
1.60531
1
1
1
1
1
1
1
1
1
1
1
1
1
1
1
1
1
1
1
1
1
1
1
1
1
1
1
1
1.00076
1.10373
1
1
1
1
1
1
1
1
1
1
1
1
1
1
1
1
1
1
1
1
1
1
1
1
1
1
1
1
1
1.00176
1
1
1
1
1
1
1
1
1
1
1
1
1
1
1
1
1
1
1
1
1
1
1
1
1
1
1
1
1
1
1
1
1
1
1
1
1
1
1
1
1
1
1
1
1
1
1
1
1
1
1
1
1
1
1
1
1
1
1
1
1
1
1
1
1
1
1
1
1
1
1
1
1
1
1
1
1
1
1
1
1
1
1
1
1
1
1
1
1
1
1
1
1
1
1
1
1
1
1
1
1
1
1
1
1
1
1
1
1
1
1
1
1
1
1
1
1
1
1
1
1
1
1
1
1
1
1
1
1
1
1
1
1
1
1
1
1
1
1
1
1
1
1
1
1
1
1
1
1
1
1
1
1
1
1
1
1
1
1
1
1
1
1
1
1
1
1
1
1
1
1
1
1
1
1
1
1
1
1
1
1
1
1
1
1
1
1
1
1
1
1
1
1
1
1
1
1
1
1
1
1
1
1
1
1
1
1
1
1
1
1.61393
1.66002
1.75371
1.78892
1.81563
1.81153
1.82064
1.83446
1.82687
1.97765
2.64003
2.85053
2.80892
2.74473
2.66325
2.58326
2.5156
2.46805
2.42883
2.39279
2.35628
2.31578
2.27207
2.22799
2.1871
2.15081
2.11893
2.08888
2.05856
2.00623
2.04396
1.74109
1.69567
1.71963
1.7512
1.76484
1.78083
1.78827
1.79027
1.89023
2.57638
2.80166
2.75509
2.69042
2.6179
2.54909
2.48642
2.43591
2.40085
2.36931
2.33976
2.30625
2.26535
2.22116
2.17895
2.14109
2.10727
2.07496
2.04724
2.00094
2.02736
1.69099
1.60527
1.61791
1.6481
1.68171
1.6873
1.69937
1.70792
1.77685
2.43383
2.66205
2.62563
2.57567
2.52202
2.4682
2.41682
2.37193
2.33643
2.30815
2.28387
2.25889
2.22887
2.19351
2.15416
2.11498
2.0785
2.04524
2.01865
1.97785
2.03712
1.72733
1.58705
1.53681
1.54139
1.56414
1.5882
1.59794
1.60593
1.7053
2.17778
2.52619
2.48303
2.44134
2.40666
2.36871
2.32805
2.28916
2.25702
2.23284
2.21293
2.1922
2.16744
2.13739
2.10241
2.06624
2.03273
2.0033
1.98015
1.9449
2.07166
1.78618
1.60009
1.50917
1.48352
1.48827
1.50447
1.52318
1.54473
1.71461
1.99212
2.36709
2.40598
2.35491
2.32644
2.29727
2.26326
2.22686
2.19355
2.16712
2.14586
2.1264
2.10456
2.07726
2.04399
2.00831
1.97538
1.94804
1.92971
1.90219
2.10457
1.84428
1.65318
1.53056
1.47417
1.45533
1.45748
1.47354
1.52482
1.79413
1.93404
2.22426
2.3443
2.3164
2.28689
2.2578
2.22541
2.19064
2.1566
2.12625
2.09945
2.07544
2.05143
2.0249
1.99456
1.96207
1.93123
1.90497
1.88758
1.86135
2.12717
1.89221
1.71862
1.56997
1.48674
1.44691
1.43704
1.44733
1.54954
1.88809
1.92885
2.07691
2.27862
2.29411
2.26595
2.23562
2.20295
2.16966
2.13618
2.10343
2.07219
2.04333
2.01568
1.98804
1.95907
1.92922
1.9005
1.87478
1.8566
1.82876
2.13863
1.93558
1.77552
1.62234
1.53041
1.45636
1.43058
1.44146
1.62385
1.94436
1.93698
1.95801
2.17837
2.26493
2.24801
2.21699
2.18466
2.15333
2.12149
2.08809
2.05368
2.02126
1.99175
1.96389
1.93625
1.90858
1.88138
1.85522
1.8347
1.80374
2.14236
1.96861
1.82031
1.67186
1.57862
1.48871
1.43666
1.45631
1.72736
1.95521
1.94137
1.90924
2.03128
2.2072
2.22802
2.19489
2.16453
2.13551
2.10549
2.07291
2.03778
2.00363
1.97258
1.94467
1.91864
1.89335
1.86772
1.84119
1.8184
1.78393
2.13948
1.99467
1.85232
1.71445
1.62589
1.52618
1.4572
1.51501
1.82338
1.91511
1.91255
1.88173
1.90051
2.08981
2.18444
2.1675
2.14116
2.11265
2.0836
2.05305
2.02051
1.98739
1.95526
1.92652
1.9013
1.8781
1.85458
1.82889
1.80497
1.76801
2.13539
2.01273
1.87467
1.75235
1.66385
1.55834
1.48756
1.62557
1.90596
1.90011
1.87815
1.8474
1.82388
1.93391
2.10811
2.13766
2.11178
2.0855
2.05844
2.02989
1.99988
1.96891
1.93749
1.90819
1.88267
1.86028
1.83889
1.81546
1.7921
1.75412
2.12982
2.02541
1.88837
1.78589
1.69216
1.58455
1.53576
1.77224
1.93948
1.90639
1.86142
1.82295
1.78281
1.80242
1.97894
2.0834
2.07788
2.05599
2.03076
2.00384
1.97567
1.94679
1.91716
1.88813
1.86191
1.83962
1.81966
1.79853
1.7774
1.74116
2.12306
2.02866
1.89871
1.81436
1.70886
1.61266
1.62028
1.8982
1.94598
1.91021
1.85172
1.80247
1.75967
1.72493
1.81034
1.98893
2.04225
2.02546
2.0027
1.97674
1.95005
1.92251
1.89405
1.86595
1.84013
1.81762
1.79793
1.77847
1.76011
1.72751
2.11279
2.025
1.90791
1.83459
1.72056
1.6445
1.75264
1.98518
1.95536
1.90507
1.8442
1.78754
1.73975
1.69957
1.69186
1.84158
1.97887
2.00133
1.97607
1.9504
1.92516
1.89865
1.8709
1.84376
1.81897
1.79661
1.77641
1.75733
1.7411
1.71211
2.1028
2.01632
1.91813
1.84696
1.73178
1.68513
1.91925
2.03772
1.97637
1.90493
1.84166
1.77941
1.72501
1.6779
1.63931
1.68238
1.86958
1.95869
1.94712
1.92488
1.90141
1.87661
1.84983
1.82298
1.798
1.77598
1.75594
1.73649
1.72121
1.69465
2.09103
2.00426
1.92968
1.85185
1.74727
1.75622
2.0577
2.05269
1.98709
1.9047
1.83545
1.77275
1.71595
1.66506
1.62224
1.5961
1.71086
1.88686
1.92333
1.90232
1.87976
1.85612
1.83092
1.80554
1.78036
1.75758
1.73698
1.71618
1.70079
1.67592
2.07674
1.99449
1.94124
1.84967
1.76742
1.88313
2.1287
2.06828
1.9887
1.90568
1.83277
1.76999
1.71209
1.65841
1.60814
1.56811
1.58307
1.75283
1.8819
1.88023
1.85971
1.83944
1.81889
1.79529
1.77057
1.7457
1.72121
1.6986
1.68269
1.65763
2.06068
1.99067
1.94536
1.84405
1.79422
2.05064
2.16491
2.0812
1.987
1.90315
1.82964
1.76674
1.70879
1.65529
1.60435
1.55906
1.53153
1.59469
1.78542
1.85026
1.84195
1.8198
1.79552
1.77362
1.7509
1.72568
1.70377
1.68722
1.67245
1.64366
2.04704
1.99125
1.93778
1.84464
1.86044
2.18109
2.17029
2.08501
1.98575
1.90058
1.82818
1.7661
1.70944
1.65567
1.60485
1.55391
1.51439
1.50573
1.63507
1.8022
1.82395
1.80362
1.77813
1.75711
1.7351
1.71147
1.69061
1.67063
1.6534
1.62644
2.03351
1.98878
1.91566
1.84717
1.99397
2.24186
2.16772
2.07942
1.98524
1.90204
1.8311
1.76865
1.71131
1.65646
1.60501
1.55419
1.50726
1.47747
1.5037
1.67928
1.78663
1.78413
1.76423
1.74294
1.71902
1.69945
1.67995
1.65755
1.6385
1.61252
2.01785
1.98717
1.8984
1.8589
2.16389
2.26242
2.1687
2.07288
1.98444
1.90494
1.83494
1.77156
1.71362
1.65934
1.60816
1.55958
1.51024
1.46928
1.44897
1.52886
1.69895
1.75421
1.74866
1.72973
1.7068
1.68713
1.66568
1.64517
1.6256
1.59988
1.98891
1.96698
1.86531
1.92663
2.27953
2.25876
2.16288
2.06767
1.98479
1.9106
1.84202
1.77723
1.71706
1.66153
1.60956
1.5613
1.51381
1.46405
1.43048
1.42918
1.56023
1.70652
1.73255
1.7155
1.6943
1.6741
1.65329
1.63375
1.61353
1.58987
1.93422
1.93286
1.86919
2.09918
2.33322
2.25034
2.15756
2.0674
1.98894
1.91762
1.84876
1.78163
1.71839
1.66167
1.61
1.56203
1.51633
1.46728
1.42266
1.39492
1.43005
1.59262
1.69156
1.69636
1.68079
1.66025
1.63973
1.61999
1.60062
1.58396
1.69993
1.91634
1.91999
2.29177
2.36129
2.25181
2.15862
2.07241
1.99523
1.92274
1.8523
1.78418
1.71957
1.66079
1.60776
1.55979
1.51505
1.47016
1.42076
1.38424
1.36747
1.45797
1.61881
1.66903
1.66341
1.64646
1.62609
1.60383
1.5852
1.59375
1.37734
1.83849
2.07038
2.41142
2.37569
2.25828
2.16249
2.07698
1.99844
1.92412
1.85259
1.78456
1.72015
1.65991
1.60464
1.55451
1.50866
1.46688
1.42188
1.37628
1.34904
1.36153
1.49559
1.62314
1.64403
1.63059
1.61041
1.58614
1.57208
1.63639
1.11162
1.67647
2.18251
2.47749
2.3843
2.26441
2.16601
2.07862
1.99731
1.92041
1.84792
1.78052
1.71727
1.65701
1.60076
1.5494
1.50336
1.46279
1.42148
1.37593
1.34055
1.32208
1.37286
1.52905
1.60313
1.60774
1.59233
1.57158
1.58103
1.71993
1.01734
1.50503
2.29007
2.50779
2.39014
2.25989
2.16088
2.07263
1.98956
1.91122
1.83831
1.77149
1.71005
1.65215
1.59734
1.5462
1.49962
1.458
1.41917
1.3776
1.33647
1.30953
1.30566
1.40517
1.54885
1.5828
1.57361
1.57913
1.64839
1.78014
0.99925
1.42008
2.45186
2.53794
2.38379
2.24778
2.14784
2.06009
1.97793
1.90096
1.82966
1.76399
1.7033
1.64693
1.59411
1.5443
1.49808
1.45522
1.41698
1.37905
1.33925
1.3033
1.28695
1.30467
1.44063
1.54557
1.56721
1.63513
1.76645
1.81147
0.999505
1.44546
2.52994
2.52934
2.36495
2.23482
2.13593
2.0493
1.96883
1.89388
1.82444
1.75997
1.69972
1.64371
1.59132
1.54211
1.49731
1.45422
1.41731
1.38772
1.35343
1.31675
1.28401
1.26807
1.33109
1.47338
1.59542
1.74013
1.80503
1.80107
0.999602
1.44
2.57691
2.5511
2.35459
2.22665
2.1294
2.0446
1.9661
1.89322
1.82502
1.76023
1.69862
1.64167
1.59012
1.54238
1.4976
1.45514
1.41589
1.38004
1.34462
1.30934
1.26889
1.24532
1.26267
1.42077
1.65356
1.84591
1.85686
1.81356
)
;

boundaryField
{
    inlet
    {
        type            fixedValue;
        value           uniform 1;
    }
    outlet
    {
        type            inletOutlet;
        inletValue      uniform 1;
        value           nonuniform List<scalar> 
30
(
2.00559
2.00073
1.978
1.94524
1.90303
1.86221
1.82942
1.8041
1.78393
1.76781
1.75383
1.74095
1.72747
1.71221
1.69476
1.67596
1.65759
1.64335
1.62661
1.61267
1.59999
1.58988
1.58371
1.59316
1.63485
1.71796
1.77883
1.81088
1.80024
1.81265
)
;
    }
    top
    {
        type            symmetryPlane;
    }
    bottom
    {
        type            symmetryPlane;
    }
    step
    {
        type            zeroGradient;
    }
    defaultFaces
    {
        type            empty;
    }
}


// ************************************************************************* //
