/*--------------------------------*- C++ -*----------------------------------*\
  =========                 |
  \\      /  F ield         | OpenFOAM: The Open Source CFD Toolbox
   \\    /   O peration     | Website:  https://openfoam.org
    \\  /    A nd           | Version:  6.0
     \\/     M anipulation  |
\*---------------------------------------------------------------------------*/
FoamFile
{
    version     2.0;
    format      ascii;
    class       volScalarField;
    location    "2.5";
    object      p;
}
// * * * * * * * * * * * * * * * * * * * * * * * * * * * * * * * * * * * * * //

dimensions      [1 -1 -2 0 0 0 0];

internalField   nonuniform List<scalar> 
4800
(
1
1
1
1
1
1
1
1
1
1
1.00001
1.00001
1.00002
1.00005
1.0001
1.00021
1.00044
1.0009
1.00185
1.00381
1.00783
1.01611
1.03318
1.06854
1.14251
1.30028
1.65136
2.51268
5.22951
19.1346
18.5692
17.3649
16.0024
15.449
15.4505
9.87221
17.8755
15.4316
12.42
11.7528
1
1
1
1
1
1
1
1
1
1
1.00001
1.00001
1.00002
1.00005
1.0001
1.00021
1.00044
1.0009
1.00185
1.00381
1.00783
1.01611
1.03318
1.06853
1.14247
1.30018
1.65103
2.51161
5.22417
19.0728
18.5151
17.3477
16.036
15.3784
15.3427
9.22462
18.917
14.5895
12.4715
12.3259
1
1
1
1
1
1
1
1
1
1
1.00001
1.00001
1.00002
1.00005
1.0001
1.00021
1.00044
1.0009
1.00185
1.00381
1.00783
1.01611
1.03317
1.06851
1.14241
1.29999
1.65048
2.5098
5.21506
18.9564
18.4057
17.2838
16.0393
15.3225
14.915
9.19752
18.9731
13.9806
12.2515
12.3532
1
1
1
1
1
1
1
1
1
1
1.00001
1.00001
1.00002
1.00005
1.0001
1.00021
1.00044
1.0009
1.00185
1.00381
1.00782
1.01609
1.03315
1.06847
1.14232
1.29977
1.64987
2.5079
5.20533
18.8237
18.2617
17.1198
16.0483
15.3286
13.942
9.5878
18.5889
14.7558
12.5565
12.4005
1
1
1
1
1
1
1
1
1
1
1.00001
1.00001
1.00002
1.00005
1.0001
1.00021
1.00044
1.0009
1.00185
1.0038
1.00781
1.01607
1.03311
1.0684
1.14218
1.29949
1.64925
2.50617
5.19752
18.7246
18.1387
16.9196
15.7253
15.3616
14.5614
9.30602
17.4147
15.8016
13.5062
12.4327
1
1
1
1
1
1
1
1
1
1
1.00001
1.00001
1.00002
1.00005
1.0001
1.00021
1.00044
1.0009
1.00184
1.00379
1.00779
1.01603
1.03304
1.06827
1.14196
1.2991
1.64851
2.50448
5.19141
18.6698
18.0527
16.7609
15.4738
14.8317
14.4079
9.4056
15.1798
15.9256
12.9452
12.5414
1
1
1
1
1
1
1
1
1
1
1.00001
1.00001
1.00002
1.00005
1.0001
1.00021
1.00043
1.00089
1.00184
1.00377
1.00776
1.01598
1.03293
1.06807
1.14159
1.29843
1.64727
2.50194
5.18422
18.6464
17.9946
16.5985
15.3548
14.412
13.7361
10.5554
16.2701
15.9166
13.3433
12.9694
1
1
1
1
1
1
1
1
1
1
1.00001
1.00001
1.00002
1.00005
1.0001
1.00021
1.00043
1.00089
1.00183
1.00376
1.00773
1.01591
1.03279
1.0678
1.14107
1.29741
1.64526
2.49763
5.17186
18.6175
17.9289
16.4128
15.2969
14.2708
13.4559
11.7294
14.681
13.3973
13.6762
13.4502
1
1
1
1
1
1
1
1
1
1
1.00001
1.00001
1.00002
1.00005
1.0001
1.00021
1.00043
1.00089
1.00182
1.00374
1.0077
1.01584
1.03265
1.0675
1.14044
1.29611
1.64253
2.49134
5.15205
18.5514
17.8041
16.2402
15.2476
14.2419
13.4539
12.3872
12.8993
13.0775
13.7871
13.6233
1
1
1
1
1
1
1
1
1
1
1.00001
1.00001
1.00002
1.00005
1.0001
1.00021
1.00043
1.00088
1.00182
1.00373
1.00767
1.01577
1.0325
1.06719
1.13977
1.29466
1.63928
2.48336
5.12466
18.4143
17.6511
16.0911
15.1957
14.2107
13.4981
12.8313
12.9571
12.8299
13.7052
13.8222
1
1
1
1
1
1
1
1
1
1
1.00001
1.00001
1.00002
1.00005
1.0001
1.00021
1.00043
1.00088
1.00181
1.00372
1.00764
1.01572
1.03238
1.0669
1.13914
1.29322
1.63589
2.4745
5.09136
18.1715
17.4954
16.0093
15.0707
14.0506
13.5967
13.0891
12.9599
12.855
14.0026
13.8026
1
1
1
1
1
1
1
1
1
1
1.00001
1.00001
1.00002
1.00005
1.0001
1.00021
1.00043
1.00088
1.0018
1.00371
1.00762
1.01567
1.03227
1.06667
1.13861
1.292
1.63289
2.46628
5.05829
17.8622
17.2648
16.0412
14.7462
13.9434
13.5576
13.2613
13.0746
13.2315
14.238
13.7586
1
1
1
1
1
1
1
1
1
1
1.00001
1.00001
1.00002
1.00005
1.0001
1.00021
1.00043
1.00088
1.0018
1.0037
1.0076
1.01563
1.03218
1.06648
1.13819
1.29103
1.63053
2.45974
5.03149
17.5708
16.9912
15.8435
14.5265
13.8514
13.5066
13.3206
13.2713
13.4022
14.1026
13.8007
1
1
1
1
1
1
1
1
1
1
1.00001
1.00001
1.00002
1.00005
1.0001
1.00021
1.00043
1.00087
1.0018
1.00369
1.00758
1.01559
1.0321
1.0663
1.13781
1.29021
1.62861
2.45469
5.01182
17.3331
16.7437
15.5284
14.4676
13.9901
13.5604
13.3804
13.6579
13.2789
13.7611
13.8391
1
1
1
1
1
1
1
1
1
1
1.00001
1.00001
1.00002
1.00005
1.0001
1.00021
1.00043
1.00087
1.0018
1.00369
1.00757
1.01556
1.03204
1.06617
1.1375
1.28951
1.62696
2.45051
4.99643
17.1276
16.5228
15.2538
14.6593
14.0903
13.1219
13.0795
13.6785
13.3262
13.7216
13.8523
1
1
1
1
1
1
1
1
1
1
1.00001
1.00001
1.00002
1.00005
1.0001
1.00021
1.00043
1.00088
1.0018
1.00369
1.00757
1.01556
1.03202
1.0661
1.13733
1.28905
1.62578
2.44738
4.98446
16.9277
16.3273
15.0322
14.3858
13.3608
12.8564
12.8334
13.4882
13.6378
13.6412
13.9615
1
1
1
1
1
1
1
1
1
1
1.00001
1.00001
1.00002
1.00005
1.0001
1.00021
1.00043
1.00088
1.0018
1.00369
1.00758
1.01557
1.03203
1.06612
1.13732
1.28895
1.62534
2.44594
4.9777
16.7364
16.1533
14.8799
13.9316
13.0894
12.8167
13.1115
13.0267
13.6447
13.7359
13.9306
1
1
1
1
1
1
1
1
1
1
1.00001
1.00001
1.00002
1.00005
1.0001
1.00021
1.00043
1.00088
1.0018
1.0037
1.00759
1.01559
1.03208
1.06619
1.13745
1.28916
1.62565
2.44642
4.97749
16.5664
16.0016
14.7529
13.7114
13.0673
13.1147
12.9803
12.6543
13.6557
13.7151
13.7886
1
1
1
1
1
1
1
1
1
1
1.00001
1.00001
1.00002
1.00005
1.0001
1.00021
1.00043
1.00088
1.00181
1.00371
1.0076
1.01562
1.03214
1.06631
1.13769
1.28963
1.62659
2.44862
4.98361
16.4248
15.8718
14.6301
13.5304
13.3177
12.8161
12.4379
12.5988
13.6083
13.1738
13.7958
1
1
1
1
1
1
1
1
1
1
1.00001
1.00001
1.00002
1.00005
1.0001
1.00021
1.00043
1.00088
1.00181
1.00371
1.00762
1.01565
1.0322
1.06644
1.13795
1.2902
1.62785
2.45188
4.99433
16.3095
15.7533
14.5027
13.4226
12.8256
12.3989
12.4587
12.958
12.9575
13.0316
13.7781
1
1
1
1
1
1
1
1
1
1
1.00001
1.00001
1.00002
1.00005
1.0001
1.00021
1.00043
1.00088
1.00181
1.00372
1.00764
1.01568
1.03226
1.06656
1.13821
1.29073
1.62903
2.45504
5.00491
16.2007
15.637
14.3727
13.3351
12.3312
12.3874
12.5677
12.5968
12.4824
13.1318
13.6132
1
1
1
1
1
1
1
1
1
1
1.00001
1.00001
1.00002
1.00005
1.0001
1.00021
1.00043
1.00089
1.00182
1.00373
1.00765
1.01572
1.03232
1.06668
1.13844
1.2912
1.63004
2.4577
5.01285
16.079
15.5207
14.2519
13.225
12.1806
12.1854
12.1447
12.1059
12.2317
13.141
13.0544
1
1
1
1
1
1
1
1
1
1
1.00001
1.00001
1.00002
1.00005
1.0001
1.00021
1.00043
1.00089
1.00182
1.00374
1.00767
1.01575
1.03238
1.0668
1.13866
1.29164
1.63097
2.45995
5.01784
15.9345
15.3935
14.1528
13.0681
12.2098
12.0714
12.0504
11.91
12.0978
13.0553
12.4772
1
1
1
1
1
1
1
1
1
1
1.00001
1.00001
1.00002
1.00005
1.0001
1.00021
1.00043
1.00089
1.00183
1.00374
1.00768
1.01578
1.03245
1.06693
1.13892
1.29213
1.63193
2.46203
5.02052
15.7661
15.2458
14.0725
12.8875
12.5543
12.0391
11.9964
11.8231
12.0267
12.3064
12.1039
1
1
1
1
1
1
1
1
1
1
1.00001
1.00001
1.00002
1.00005
1.0001
1.00021
1.00044
1.00089
1.00183
1.00375
1.0077
1.01581
1.03252
1.06707
1.1392
1.29271
1.63311
2.46453
5.02343
15.5852
15.0905
13.9808
12.7303
12.4995
12.0739
12.4293
12.0442
12.155
11.8637
11.8237
1
1
1
1
1
1
1
1
1
1
1.00001
1.00001
1.00002
1.00005
1.0001
1.00021
1.00044
1.0009
1.00184
1.00377
1.00773
1.01586
1.0326
1.06724
1.13953
1.29337
1.63454
2.46772
5.02809
15.4065
14.9391
13.8465
12.6148
11.9888
12.1139
12.5211
12.2825
12.5291
11.7588
11.5863
1
1
1
1
1
1
1
1
1
1
1.00001
1.00001
1.00002
1.00005
1.0001
1.00021
1.00044
1.0009
1.00184
1.00378
1.00775
1.01592
1.03272
1.06745
1.13992
1.29411
1.63601
2.47093
5.03262
15.2278
14.7841
13.6767
12.5245
11.8138
11.9037
12.2315
11.5674
12.427
11.97
11.442
1
1
1
1
1
1
1
1
1
1
1.00001
1.00001
1.00002
1.00005
1.0001
1.00021
1.00044
1.0009
1.00184
1.00377
1.00775
1.01594
1.03279
1.06765
1.14036
1.29499
1.63771
2.47426
5.03591
15.0361
14.6052
13.5139
12.4385
11.6932
11.7099
12.1234
11.3964
11.4962
11.861
11.2778
1
1
1
1
1
1
1
1
1
1
1.00001
1.00001
1.00002
1.00005
1.0001
1.00021
1.00043
1.00089
1.00183
1.00376
1.00773
1.0159
1.03274
1.06764
1.14055
1.29568
1.63941
2.47777
5.03998
14.8625
14.3977
13.3676
12.3271
11.553
11.6041
12.0611
11.4201
11.3068
11.1894
11.1636
1
1
1
1
1
1
1
1
1
1
1.00001
1.00001
1.00002
1.00005
1.0001
1.00021
1.00043
1.00089
1.00182
1.00375
1.0077
1.01582
1.03258
1.06733
1.14007
1.29525
1.63983
2.48045
5.04559
14.7559
14.2407
13.1623
12.1996
11.4136
11.4847
11.9562
11.5186
11.3291
11.0177
11.1079
1
1
1
1
1
1
1
1
1
1
1.00001
1.00001
1.00002
1.00005
1.0001
1.00021
1.00043
1.00088
1.00181
1.00372
1.00765
1.01574
1.03239
1.0669
1.13907
1.29314
1.63626
2.47698
5.04865
14.7459
14.2542
12.8532
12.0934
11.2955
11.3381
11.7933
11.5022
11.4013
11.0099
11.1235
1
1
1
1
1
1
1
1
1
1
1.00001
1.00001
1.00002
1.00005
1.0001
1.00021
1.00043
1.00088
1.0018
1.0037
1.0076
1.01563
1.03218
1.06645
1.13805
1.2906
1.62963
2.45989
5.00947
14.8039
14.2185
12.6426
11.9849
11.2361
11.226
11.4369
11.4086
10.975
11.2377
11.3181
1
1
1
1
1
1
1
1
1
1
1.00001
1.00001
1.00002
1.00005
1.0001
1.00021
1.00042
1.00087
1.00178
1.00366
1.00753
1.0155
1.03192
1.06592
1.13695
1.28818
1.62355
2.44094
4.91963
14.1918
13.7176
12.6065
11.8164
11.277
11.1148
11.044
11.1172
10.6797
11.0463
10.6334
1
1
1
1
1
1
1
1
1
1
1.00001
1.00001
1.00002
1.00005
1.0001
1.0002
1.00042
1.00086
1.00176
1.00362
1.00745
1.01533
1.03159
1.06526
1.13563
1.28541
1.61728
2.42397
4.84959
13.6343
13.4229
12.4655
11.5227
11.3105
10.6971
10.7442
11.022
10.4969
10.37
10.2184
1
1
1
1
1
1
1
1
1
1
1.00001
1.00001
1.00002
1.00005
1.0001
1.0002
1.00041
1.00085
1.00174
1.00358
1.00736
1.01513
1.03118
1.06443
1.13394
1.28191
1.6096
2.40457
4.78071
13.2471
13.0818
12.4698
11.1433
10.901
10.4622
10.5037
10.8362
10.4623
10.218
10.188
1
1
1
1
1
1
1
1
1
1
1.00001
1.00001
1.00002
1.00005
1.0001
1.0002
1.00041
1.00083
1.00171
1.00352
1.00724
1.01489
1.03069
1.0634
1.1318
1.2774
1.59973
2.3803
4.70143
12.9031
12.7046
12.2799
10.7404
10.6362
10.2645
10.2705
10.3189
10.6158
10.0834
10.345
1
1
1
1
1
1
1
1
1
1
1.00001
1.00001
1.00002
1.00005
1.00009
1.00019
1.0004
1.00082
1.00168
1.00345
1.0071
1.0146
1.03007
1.06211
1.12908
1.27161
1.58696
2.34918
4.60534
12.5822
12.366
11.7097
10.594
10.4029
10.0036
9.98448
9.97992
10.7468
9.96362
10.4395
1
1
1
1
1
1
1
1
1
1
1.00001
1.00001
1.00002
1.00004
1.00009
1.00019
1.00039
1.0008
1.00164
1.00336
1.00691
1.01422
1.02929
1.0605
1.12572
1.26445
1.57101
2.30988
4.48612
12.2687
12.0638
11.475
10.5648
10.215
9.9279
9.86413
9.78538
10.1505
9.94941
9.92346
1
1
1
1
1
1
1
1
1
1
1
1.00001
1.00002
1.00004
1.00009
1.00018
1.00037
1.00077
1.00158
1.00325
1.00667
1.01373
1.02829
1.05845
1.12144
1.25529
1.55049
2.25888
4.33078
11.9396
11.7625
11.2363
10.7003
10.0615
9.88101
9.83762
9.75189
9.54575
9.69772
8.96136
1
1
1
1
1
1
1
1
1
1
1
1.00001
1.00002
1.00004
1.00008
1.00017
1.00036
1.00073
1.00151
1.0031
1.00637
1.01311
1.02702
1.05582
1.11594
1.24354
1.52427
2.19422
4.14193
11.6917
11.4867
10.9302
10.8445
9.79748
9.59322
9.57961
9.75615
8.8905
8.65276
7.83555
1
1
1
1
1
1
1
1
1
1
1
1.00001
1.00002
1.00003
1.00007
1.00015
1.0003
1.00062
1.00127
1.00261
1.00536
1.01102
1.02265
1.04668
1.09663
1.20182
1.42982
1.95324
3.3953
10.9967
10.9135
10.6072
9.97555
9.765
9.2586
8.96991
8.61725
8.29623
7.71751
6.13051
1
1
1
1
1
1
1
1
1
1
1
1.00001
1.00001
1.00003
1.00005
1.00011
1.00022
1.00045
1.00093
1.0019
1.0039
1.00801
1.01645
1.03384
1.06983
1.14507
1.30552
1.66244
2.56574
4.79962
10.374
10.2669
9.9231
9.43125
8.99146
8.55909
7.94931
7.587
6.91045
5.30645
1
1
1
1
1
1
1
1
1
1
1
1
1.00001
1.00002
1.00003
1.00007
1.00014
1.00029
1.00059
1.0012
1.00246
1.00505
1.01035
1.02125
1.04371
1.09024
1.18787
1.39787
1.88822
3.15445
10.0376
9.97919
9.78096
9.3943
8.70579
8.43613
7.90262
7.33151
6.60313
5.48814
1
1
1
1
1
1
1
1
1
1
1
1
1.00001
1.00001
1.00002
1.00005
1.0001
1.0002
1.00042
1.00086
1.00176
1.00361
1.00741
1.01521
1.03128
1.0645
1.13382
1.2811
1.60768
2.41082
4.38476
9.37415
9.36699
9.24902
8.70998
8.36956
8.07212
7.33978
6.52272
5.85544
1
1
1
1
1
1
1
1
1
1
1
1
1
1.00001
1.00001
1.00003
1.00006
1.00012
1.00025
1.00052
1.00106
1.00218
1.00447
1.00915
1.01876
1.03851
1.0793
1.16449
1.34644
1.76191
2.81408
8.73928
8.75767
8.8484
8.62804
8.54764
8.16974
7.09178
6.37824
5.99421
1
1
1
1
1
1
1
1
1
1
1
1
1
1
1.00001
1.00002
1.00004
1.00008
1.00017
1.00035
1.00071
1.00146
1.00299
1.00613
1.01257
1.02578
1.053
1.10946
1.2283
1.4874
2.10539
3.58729
7.38161
8.21141
8.25675
8.10109
7.39334
6.6702
6.01152
5.71263
1
1
1
1
1
1
1
1
1
1
1
1
1
1
1.00001
1.00001
1.00003
1.00005
1.0001
1.00021
1.00043
1.00087
1.00178
1.00364
1.00747
1.01534
1.03148
1.06473
1.13369
1.27861
1.59687
2.32213
4.24154
8.03228
7.94618
7.69128
7.3302
6.62475
6.17946
6.08506
1
1
1
1
1
1
1
1
1
1
1
1
1
1
1
1.00001
1.00002
1.00004
1.00007
1.00015
1.0003
1.00062
1.00128
1.00262
1.00537
1.01103
1.0227
1.04681
1.09687
1.2019
1.42819
1.94524
3.30922
7.4176
7.52886
7.48116
7.36756
6.98764
6.47147
5.34798
1
1
1
1
1
1
1
1
1
1
1
1
1
1
1
1.00001
1.00001
1.00003
1.00006
1.00012
1.00025
1.00052
1.00106
1.00219
1.0045
1.00922
1.01887
1.03872
1.08011
1.16798
1.35889
1.79002
2.87438
6.04491
7.45122
7.37871
7.24032
6.9835
6.13294
5.32884
1
1
1
1
1
1
1
1
1
1
1
1
1
1
1
1
1.00001
1.00002
1.00004
1.00009
1.00017
1.00034
1.00068
1.00137
1.00277
1.00567
1.01166
1.02399
1.04932
1.10194
1.2151
1.4728
2.11286
3.70826
7.12164
7.06708
6.92967
6.68274
6.05317
5.71076
1
1
1
1
1
1
1
1
1
1
1
1
1
1
1
1
1.00001
1.00002
1.00003
1.00006
1.00012
1.00025
1.0005
1.00099
1.00198
1.00392
1.00786
1.01603
1.03327
1.06971
1.14753
1.31591
1.69577
2.63968
5.38077
6.22691
6.09681
5.97721
5.95096
5.72263
1
1
1
1
1
1
1
1
1
1
1
1
1
1
1
1
1.00001
1.00001
1.00003
1.00005
1.00012
1.00024
1.00051
1.00104
1.00211
1.00423
1.00841
1.01651
1.03182
1.06182
1.12432
1.25934
1.56619
2.31417
4.27415
5.46934
5.98273
5.94065
5.86777
5.63216
1
1
1
1
1
1
1
1
1
1
1
1
1
1
1
1
1
1
1.00001
1.00002
1.00003
1.00007
1.00015
1.00033
1.00072
1.0016
1.00359
1.00807
1.01794
1.03898
1.08285
1.17417
1.35779
1.74326
2.36033
3.99682
5.82961
5.71373
5.6233
5.44152
1
1
1
1
1
1
1
1
1
1
1
1
1
1
1
1
1
1
1
1
1.00001
1.00002
1.00004
1.00009
1.00018
1.00039
1.00084
1.00181
1.00384
1.00804
1.01664
1.03418
1.07038
1.14678
1.31203
1.68519
2.60125
4.89439
4.89845
4.88005
1
1
1
1
1
1
1
1
1
1
1
1
1
1
1
1
1
1
1
1
1.00001
1.00001
1.00003
1.00005
1.00011
1.00022
1.00045
1.00098
1.00219
1.00495
1.01109
1.02443
1.05284
1.11266
1.2391
1.51436
2.17092
4.1797
4.24392
4.35606
1
1
1
1
1
1
1
1
1
1
1
1
1
1
1
1
1
1
1
1
1.00001
1.00002
1.00003
1.00006
1.00012
1.00023
1.00044
1.00084
1.00164
1.0031
1.00614
1.01277
1.02736
1.0584
1.12326
1.25861
1.54243
2.1436
3.56016
3.96945
1
1
1
1
1
1
1
1
1
1
1
1
1
1
1
1
1
1
1
1
1
1
1.00001
1.00001
1.00003
1.00005
1.00011
1.00024
1.00049
1.00098
1.00197
1.00393
1.00796
1.01653
1.03531
1.07704
1.16895
1.36941
1.81034
2.95721
1
1
1
1
1
1
1
1
1
1
1
1
1
1
1
1
1
1
1
1
1
1
1
1
1
1.00001
1.00002
1.00004
1.00008
1.00016
1.00032
1.00064
1.00128
1.0025
1.00486
1.00911
1.01739
1.03418
1.06904
1.14485
1
1
1
1
1
1
1
1
1
1
1
1
1
1
1
1
1
1
1
1
1
1
1
1
1
1.00001
1.00001
1.00002
1.00004
1.00009
1.00018
1.00036
1.00073
1.00149
1.00303
1.00618
1.01263
1.02583
1.05287
1.10864
1
1
1
1
1
1
1
1
1
1
1
1
1
1
1
1
1
1
1
1
1
1
1
1
1
1
1.00001
1.00002
1.00004
1.00007
1.00015
1.00029
1.0006
1.00121
1.00246
1.00505
1.01039
1.02139
1.04407
1.09102
1
1
1
1
1
1
1
1
1
1
1
1
1
1
1
1
1
1
1
1
1
1
1
1
1
1
1.00001
1.00001
1.00002
1.00005
1.0001
1.0002
1.00041
1.00082
1.00165
1.00329
1.00653
1.01309
1.02659
1.05447
1
1
1
1
1
1
1
1
1
1
1
1
1
1
1
1
1
1
1
1
1
1
1
1
1
1
1
1.00001
1.00002
1.00003
1.00007
1.00015
1.0003
1.00062
1.00128
1.00264
1.00542
1.01111
1.02275
1.04671
1
1
1
1
1
1
1
1
1
1
1
1
1
1
1
1
1
1
1
1
1
1
1
1
1
1
1
1.00001
1.00001
1.00003
1.00006
1.00012
1.00026
1.00053
1.0011
1.00227
1.00469
1.00968
1.01988
1.04066
1
1
1
1
1
1
1
1
1
1
1
1
1
1
1
1
1
1
1
1
1
1
1
1
1
1
1
1
1.00001
1.00002
1.00004
1.00008
1.00018
1.00036
1.00075
1.00154
1.00315
1.00645
1.01327
1.02742
1
1
1
1
1
1
1
1
1
1
1
1
1
1
1
1
1
1
1
1
1
1
1
1
1
1
1
1
1.00001
1.00002
1.00003
1.00007
1.00014
1.00029
1.00059
1.00123
1.00254
1.00529
1.01102
1.02288
1
1
1
1
1
1
1
1
1
1
1
1
1
1
1
1
1
1
1
1
1
1
1
1
1
1
1
1
1.00001
1.00001
1.00003
1.00006
1.00013
1.00026
1.00052
1.00107
1.00218
1.00448
1.00922
1.01905
1
1
1
1
1
1
1
1
1
1
1
1
1
1
1
1
1
1
1
1
1
1
1
1
1
1
1
1
1.00001
1.00001
1.00002
1.00005
1.00009
1.00019
1.00039
1.00078
1.00156
1.00313
1.00623
1.01221
1
1
1
1
1
1
1
1
1
1
1
1
1
1
1
1
1
1
1
1
1
1
1
1
1
1
1
1
1
1.00001
1.00002
1.00004
1.00008
1.00016
1.00033
1.00068
1.00138
1.00281
1.00576
1.01181
1
1
1
1
1
1
1
1
1
1
1
1
1
1
1
1
1
1
1
1
1
1
1
1
1
1
1
1
1
1
1.00001
1.00001
1.00003
1.00007
1.00014
1.0003
1.00064
1.00132
1.00272
1.0056
1
1
1
1
1
1
1
1
1
1
1
1
1
1
1
1
1
1
1
1
1
1
1
1
1
1
1
1
1
1
1
1.00001
1.00002
1.00005
1.0001
1.00023
1.00049
1.00104
1.00219
1.00456
1
1
1
1
1
1
1
1
1
1
1
1
1
1
1
1
1
1
1
1
1
1
1
1
1
1
1
1
1
1
1
1.00001
1.00001
1.00003
1.00006
1.00012
1.00024
1.00049
1.00099
1.00202
1
1
1
1
1
1
1
1
1
1
1
1
1
1
1
1
1
1
1
1
1
1
1
1
1
1
1
1
1
1
1
1.00001
1.00002
1.00003
1.00006
1.00013
1.00025
1.00051
1.00102
1.00206
1
1
1
1
1
1
1
1
1
1
1
1
1
1
1
1
1
1
1
1
1
1
1
1
1
1
1
1
1
1
1
1.00001
1.00001
1.00003
1.00006
1.00012
1.00024
1.00048
1.00096
1.00195
1
1
1
1
1
1
1
1
1
1
1
1
1
1
1
1
1
1
1
1
1
1
1
1
1
1
1
1
1
1
1
1.00001
1.00001
1.00003
1.00006
1.00011
1.00023
1.00046
1.00093
1.00188
1
1
1
1
1
1
1
1
1
1
1
1
1
1
1
1
1
1
1
1
1
1
1
1
1
1
1
1
1
1
1
1.00001
1.00001
1.00003
1.00006
1.00012
1.00024
1.00048
1.00098
1.00198
1
1
1
1
1
1
1
1
1
1
1
1
1
1
1
1
1
1
1
1
1
1
1
1
1
1
1
1
1
1
1
1.00001
1.00001
1.00002
1.00005
1.0001
1.00019
1.00039
1.00079
1.00159
1
1
1
1
1
1
1
1
1
1
1
1
1
1
1
1
1
1
1
1
1
1
1
1
1
1
1
1
1
1
1
1.00001
1.00001
1.00002
1.00004
1.00009
1.00017
1.00035
1.00071
1.00143
1
1
1
1
1
1
1
1
1
1
1
1
1
1
1
1
1
1
1
1
1
1
1
1
1
1
1
1
1
1
1
1.00001
1.00001
1.00002
1.00004
1.00009
1.00018
1.00036
1.00073
1.00147
1
1
1
1
1
1
1
1
1
1
1
1
1
1
1
1
1
1
1
1
1
1
1
1
1
1
1
1
1
1
1
1.00001
1.00001
1.00002
1.00005
1.0001
1.00021
1.00042
1.00085
1.00173
1
1
1
1
1
1
1
1
1
1
1
1
1
1
1
1
1
1
1
1
1
1
1
1
1
1
1
1
1
1
1
1.00001
1.00001
1.00003
1.00006
1.00012
1.00024
1.00049
1.00099
1.00202
3.19708
2.3326
1.90118
1.83147
1.71248
1.45746
1.47969
1.52748
1.62319
1.76271
1.80294
1.86922
1.84631
1.70952
1.69896
1.62321
1.6373
1.83692
1.80572
1.70972
1.70718
1.81744
1.86388
1.77908
1.86888
1.80419
1.85344
1.89059
1.88497
1.93087
1.94605
2.47065
2.36094
2.30469
2.49718
2.33096
2.27949
2.57242
2.98147
2.94054
3.33436
2.4561
1.97307
1.59489
0.870027
1.42525
1.56976
1.67501
1.71846
1.73892
1.70852
1.68092
1.88222
1.71334
1.63765
1.74801
1.79584
1.76653
1.79253
1.742
1.72224
1.80129
1.74694
1.82822
1.8352
1.82968
2.0222
2.15782
1.9227
1.80735
2.13254
2.13955
2.24022
2.22639
2.27786
2.21068
2.32574
2.77577
2.84774
3.14575
3.7701
2.74752
2.21287
2.18318
2.13745
2.02913
1.87074
1.73742
1.72498
1.70681
1.76835
1.74939
1.73489
1.77689
1.72811
1.70063
1.7219
1.73354
1.7434
1.74888
1.71888
1.74961
1.79336
1.76973
1.86047
1.88447
1.76808
1.77794
1.88809
1.89693
1.95212
2.21132
2.21088
2.30129
2.48289
2.43877
2.40863
2.49036
2.48413
2.42476
4.26155
3.3561
2.78959
2.37142
2.13066
1.99535
1.86712
1.74703
1.73336
1.72853
1.77041
1.71813
1.76203
1.78619
1.70764
1.71312
1.69982
1.68532
1.80338
1.75325
1.74383
1.78589
1.86963
1.82781
1.82441
1.76535
1.79901
2.06225
2.03974
2.25575
2.33491
2.47769
2.41098
2.41664
2.35948
2.15328
2.06102
2.57312
2.98667
3.34572
4.74376
3.87932
3.09623
2.53936
2.21196
2.01325
1.81157
1.75856
1.76218
1.80073
1.76514
1.74951
1.76527
1.72171
1.72946
1.7163
1.71126
1.80106
1.82791
1.75893
1.85633
1.77347
1.8028
1.8415
1.92149
1.96801
1.82417
2.00197
2.18849
2.22419
2.12536
2.27202
2.30112
2.54594
3.02178
2.91396
3.1021
3.03809
2.99775
4.1559
4.81203
3.90904
3.2446
2.76566
2.35845
1.98789
1.85047
1.86285
1.87222
1.83935
1.78312
1.75458
1.73263
1.74668
1.75979
1.75461
1.76858
1.76339
1.81411
1.74798
1.75158
1.81576
1.85753
1.68977
1.93445
1.96085
1.93171
1.97541
1.82376
1.93096
2.35841
2.40271
2.14293
2.34737
2.39455
2.77037
2.83582
2.96676
3.0082
3.31044
4.74712
3.97042
3.35681
2.89884
2.49344
2.08841
1.99383
1.94296
1.90963
1.84728
1.82257
1.78274
1.70691
1.69957
1.83332
1.80733
1.76387
1.76749
1.79658
1.73562
1.86767
1.89234
1.75122
1.87192
2.00168
1.88825
2.01235
2.04532
1.9308
1.94312
1.97043
2.30405
2.59092
2.25272
2.20775
2.39023
2.93128
3.22019
2.67573
2.69526
4.63031
3.96908
3.4699
3.04256
2.5721
2.19195
2.04636
1.99626
1.91231
1.82326
1.79255
1.7718
1.78405
1.84038
1.82972
1.80645
1.75884
1.76005
1.78378
1.92807
1.82407
1.85265
1.92368
1.95162
1.97692
1.86048
1.91689
2.11415
2.06017
1.98338
2.0318
2.10202
2.72361
2.37191
2.2732
2.44253
2.88667
2.87084
2.50702
2.46209
4.68423
3.95236
3.53891
3.15721
2.61055
2.232
2.07099
2.00413
1.87833
1.82117
1.80777
1.87621
1.8802
1.80417
1.7876
1.80029
1.83192
1.8337
1.82068
1.91291
1.80511
1.90973
1.98213
1.96684
1.96661
1.8609
1.96702
1.99704
2.08029
2.04906
2.01776
2.02358
2.36196
3.10568
2.42763
2.44524
2.73468
3.02853
2.99726
2.98821
4.73054
3.90047
3.56537
3.21753
2.72171
2.24648
2.08466
2.02223
1.96988
1.93739
1.91844
1.84849
1.80431
1.7758
1.78662
1.84921
1.85555
1.84633
1.90587
1.85438
1.90326
1.96594
1.97715
1.93934
1.94109
1.96729
2.19398
2.13963
2.07253
2.09382
2.55545
2.64656
2.48188
2.29672
2.71919
2.90775
2.76136
2.50357
2.90461
3.40348
4.42018
3.91111
3.55787
3.23786
2.81895
2.34667
2.26135
2.14565
2.04218
1.9673
1.86086
1.83379
1.77095
1.77312
1.89081
1.8697
1.85724
1.87414
1.81244
1.88331
1.95644
1.9636
1.92105
1.89803
1.94643
1.88556
2.01062
1.95777
1.89551
2.03345
2.49774
2.71698
2.52223
2.71514
2.64686
2.61103
2.84399
2.89795
2.67938
2.78071
4.33674
3.93628
3.54158
3.24732
2.89999
2.54486
2.38631
2.17291
2.00581
1.87434
1.84404
1.8422
1.86668
1.88327
1.88458
1.83879
1.81319
1.8343
1.86602
1.9489
1.91623
1.86953
1.93939
1.90755
1.93168
2.0519
2.46402
2.11863
2.08086
2.33013
2.47489
2.30603
2.37534
2.32883
2.4883
2.44516
2.35236
2.65277
3.16981
2.66129
4.33098
3.95221
3.53738
3.25379
2.85039
2.71545
2.40707
2.18349
1.98072
1.92716
1.92551
1.90453
1.86853
1.82568
1.79369
1.82093
1.86285
1.87904
1.88181
1.95359
1.8823
1.84779
2.1103
2.08651
2.05593
2.09828
2.12837
2.15868
2.1941
2.39285
2.34958
2.16488
2.21677
2.672
2.43864
2.37668
2.37891
2.29298
2.49022
2.7777
4.33483
4.02273
3.5594
3.23938
2.8858
2.6644
2.41628
2.19973
2.05927
2.00522
1.96418
1.86462
1.84234
1.81587
1.85892
1.90693
1.8857
1.89933
1.86707
1.89504
1.94988
1.94477
1.84997
1.93505
2.1562
1.9518
2.01931
1.95558
2.19927
2.25098
2.26411
2.37478
2.44838
2.55804
2.5597
2.57748
2.71254
2.73267
2.52937
3.22241
4.24275
3.87658
3.72837
3.26618
2.90186
2.65476
2.35868
2.17549
2.1583
2.13113
1.96648
1.87064
1.87152
1.93858
1.9576
1.89819
1.91083
1.96937
1.89425
1.85543
1.87512
2.09359
1.96384
2.12808
2.11534
2.03634
2.16903
2.04717
2.12707
2.69951
2.40651
2.31802
2.49651
2.64659
2.60508
2.23745
2.31169
3.11973
2.80955
2.89021
3.86908
3.73192
3.65669
3.43604
2.8963
2.63902
2.31588
2.19346
2.09789
2.10132
2.24805
2.04435
1.95971
1.92067
1.8841
1.98029
2.02389
1.96817
1.92641
1.84472
1.95561
1.98272
1.99883
1.95076
2.11095
2.12376
2.15658
2.08649
2.306
2.63179
2.83378
2.33821
2.40711
2.9585
3.15619
2.81891
2.50125
2.58475
2.52618
2.95308
3.87553
3.74428
3.68036
3.36275
2.95637
2.73745
2.33518
2.24466
2.22072
2.22261
2.17352
2.4
2.11164
1.94159
1.91864
2.05389
2.00521
1.9861
1.93011
1.92671
2.02601
2.00144
2.0154
2.01566
2.22404
2.17313
2.17352
1.90788
1.91646
2.17883
2.61216
2.59342
2.56381
2.61835
2.54308
2.53575
3.03477
2.50916
2.5313
3.24696
1.65763
3.65835
3.61369
3.22366
3.02599
2.71677
2.5381
2.51477
2.60565
2.33251
2.20082
2.42372
2.15359
1.9541
2.04085
2.0677
2.02498
2.03952
1.92316
1.93828
2.32615
2.13302
1.93624
2.09878
2.24698
2.15578
2.16576
1.98191
1.98701
2.08039
2.91731
2.45657
2.53429
3.04481
2.75431
2.42343
2.49836
3.30858
3.45134
3.43976
1.4577
3.30352
3.23312
3.13288
3.04787
2.77398
2.6932
2.5915
2.46987
2.399
2.47548
2.21232
2.10406
2.18141
2.23631
2.031
1.91387
1.99754
2.1772
2.10589
2.36782
2.04652
1.93451
2.3224
2.32637
2.08867
2.20372
2.29017
2.53152
2.65832
2.57604
2.51949
2.6216
2.79538
2.92378
2.80636
2.84938
3.31196
3.11651
2.85317
1.38219
2.99719
3.15703
3.10446
3.02531
2.90372
2.71443
2.57657
2.54128
2.63225
2.34122
2.15187
2.19132
2.47395
2.17963
2.03931
2.00884
2.12123
2.3755
2.26103
2.43675
2.02967
1.98253
2.35639
2.31479
2.22359
2.30752
2.33913
2.54597
2.38819
2.36202
2.35083
2.63728
2.94869
3.31372
3.33097
2.8246
2.89482
2.94671
3.41935
1.21413
1.74597
2.961
2.95144
2.97493
2.8775
2.78252
2.60624
2.68525
2.52426
2.33397
2.25435
2.39324
2.47583
2.12664
2.23372
2.33981
2.30171
2.36362
2.37112
2.30643
2.14329
2.1387
2.20323
2.42739
2.39308
2.38033
2.4126
2.4085
2.44311
2.3913
2.39247
2.35704
2.54173
3.2271
3.08708
3.16035
2.73619
2.8903
3.76243
1.17821
1.65154
2.95189
2.95924
2.92966
2.90979
2.88132
2.85839
2.68965
2.51042
2.48714
2.55878
2.68401
2.2705
2.3522
2.54617
2.40908
2.34263
2.56476
2.32449
2.19965
2.38555
2.39994
2.27434
2.43701
2.47317
2.36816
2.26128
2.27048
2.5146
2.46417
2.51169
2.24411
2.37058
2.81658
2.89179
2.96921
3.08331
3.17653
3.47893
1.15183
1.5589
2.96895
3.00829
2.96847
2.92255
2.91481
2.90332
2.71282
2.70641
2.82006
2.77995
2.40957
2.43691
2.62298
2.52829
2.43452
2.70293
2.35756
2.22259
2.2711
2.7138
2.4469
2.25898
2.51157
2.48799
2.45566
2.48221
2.31335
2.41634
2.77529
3.02743
2.29786
2.38269
2.50059
2.62141
2.87348
3.20947
3.30589
3.7226
1.10286
1.35968
1.88431
3.01646
2.97966
2.94595
2.97181
2.91495
2.98238
2.99583
2.74625
2.52698
2.57899
2.78783
2.63277
2.59013
2.79067
2.35451
2.25231
2.41949
2.9212
2.81475
2.27476
2.53633
2.6885
2.54054
2.57887
2.30196
2.29915
2.33406
2.9194
3.14044
2.61575
2.64822
2.62001
2.69347
2.82647
3.37784
3.82396
3.58934
1.08568
1.29738
1.76229
2.89634
3.02494
3.02358
3.00836
3.0251
3.06858
2.95682
2.69957
2.78753
2.91059
2.85236
2.91905
2.82883
2.46036
2.464
2.73238
2.93006
2.89954
2.572
2.79999
2.6091
2.66989
2.5927
2.40277
2.44336
3.09093
3.18191
3.01827
2.77006
2.90568
3.12231
3.56501
3.52072
3.49759
3.11416
3.2915
3.67234
1.07094
1.24468
1.6382
2.73977
3.03224
3.02715
3.01927
3.03704
2.97535
2.913
2.95115
3.02062
3.00854
3.0823
3.03272
2.63294
2.67321
2.86437
3.07087
2.97097
2.57726
2.98891
2.67219
2.52067
2.84327
2.50466
2.44252
2.73322
3.52026
3.13386
2.45207
2.45003
2.77742
3.05006
3.10498
2.73051
2.81666
3.10732
3.46084
3.68271
1.04302
1.14861
1.38651
1.8914
3.01412
3.01257
3.03339
3.01997
3.02325
3.1665
3.2326
3.19887
3.10657
3.09953
2.8886
2.98645
3.1462
3.02401
2.77746
2.75188
3.11034
2.84376
2.59146
2.97641
2.76022
2.4821
2.46437
2.60544
3.54654
3.43891
2.79391
2.93673
3.02027
2.98036
3.09578
2.93888
2.81966
2.89572
3.32242
4.2367
1.04323
1.14729
1.36958
1.86437
2.98223
2.96864
2.99251
3.04982
3.14713
3.16503
3.17062
3.1151
3.06363
2.9892
3.09603
3.18987
3.11546
2.95014
2.91284
2.9592
3.10262
2.85515
2.93133
2.78934
2.53676
2.67783
3.03868
3.46028
3.63122
3.11287
3.05923
3.04778
2.98124
2.821
2.80126
3.02878
3.22076
3.197
4.0921
3.97098
1.0203
1.06753
1.16441
1.37376
1.81797
2.81683
2.85894
3.03015
3.19767
3.35618
3.33577
3.273
3.27168
3.29176
3.36605
3.28643
3.38719
3.09944
2.93746
3.22797
3.02787
2.83598
2.79052
3.06945
3.62936
3.27596
2.87702
3.24558
3.30357
2.82575
2.99216
2.9625
2.9006
3.13916
3.40502
2.85703
3.19271
3.48434
3.68835
4.30129
1.01664
1.05552
1.12367
1.26249
1.55658
2.38431
2.60066
3.12159
3.64011
3.64791
3.65265
3.60369
3.59234
3.59079
3.46389
3.45537
3.28303
3.10417
3.22992
2.96752
2.82049
2.76515
2.9629
3.80093
3.1077
2.96938
3.47782
3.09733
2.90597
3.1278
3.28952
3.15651
3.06649
3.13523
3.33508
3.43239
3.13082
2.967
3.08863
4.23644
1.00731
1.02448
1.05857
1.12537
1.26394
1.5618
2.22512
3.43924
3.47993
3.54634
3.63108
3.64541
3.64292
3.54384
3.51545
3.5408
3.4461
3.11768
2.92678
2.84739
2.79031
3.22541
3.75123
2.8597
2.8261
3.44732
3.35719
2.93269
3.07719
3.65546
3.61145
3.38452
3.2229
3.32442
3.79471
2.9593
2.92104
2.95104
3.16266
4.42563
1.00665
1.02085
1.04859
1.10542
1.22589
1.48702
2.052
3.25913
3.60713
3.64361
3.7041
3.70032
3.62045
3.68699
3.45676
3.39417
3.34536
3.15909
3.08684
3.23198
3.93002
3.54059
2.83214
2.80033
3.40677
3.5293
3.01548
3.15937
3.99294
3.93955
3.47804
3.47941
3.34533
3.27576
3.5482
3.7386
2.73575
2.78517
3.86148
3.77465
1.00665
1.02135
1.05015
1.10827
1.23124
1.4899
2.02641
3.18413
3.83088
3.82009
3.79309
3.74297
3.66869
3.51395
3.4191
3.40337
3.72031
3.74014
3.62693
3.48504
3.32397
3.26971
3.19919
3.48427
3.96881
3.16534
3.06061
3.58935
4.13878
3.83924
3.82237
3.41872
2.99352
2.8993
3.00838
3.9387
3.9905
3.13938
3.43933
3.76959
1.00639
1.02058
1.05011
1.10942
1.23036
1.48163
2.01386
3.09039
3.84836
3.83408
3.80275
3.76121
3.74467
3.73614
3.70388
3.83596
3.90593
3.45426
3.36045
3.60111
3.69123
3.55463
3.51771
3.75592
3.58369
3.33769
3.73985
3.92976
3.44095
3.42656
3.46834
3.5054
3.79088
3.16756
3.06524
3.14054
4.36581
3.58831
3.39711
3.33947
1.00641
1.02082
1.04388
1.09114
1.18613
1.38205
1.79895
2.72564
4.11186
4.10526
4.06194
3.93519
3.87988
3.88715
3.84012
3.59981
3.52125
3.58069
3.58312
3.67595
3.83321
3.59003
3.59385
3.72735
3.56289
3.43574
3.45763
3.73995
3.69697
3.46712
3.04335
2.96255
3.43695
4.01482
4.23057
3.76295
3.76103
3.3962
3.39434
3.3124
1.00553
1.01811
1.03877
1.07988
1.15712
1.30248
1.61352
2.26387
3.72582
4.00756
4.01331
4.0593
3.93771
3.74843
3.68579
3.61491
3.64483
3.81154
3.72507
3.63456
3.86476
3.56515
3.35836
3.4149
3.58986
3.31603
3.26878
3.50757
3.17517
3.18777
3.36698
3.45742
3.47168
3.36307
3.32868
3.75462
4.30529
3.42583
3.34027
3.90218
1.00507
1.01613
1.03608
1.07371
1.14804
1.2973
1.5993
2.23642
3.53195
3.91057
3.9308
3.9978
3.90757
3.77707
3.79783
3.82837
3.88141
3.93807
3.72775
3.73365
3.84666
3.47366
3.475
3.56925
3.27496
3.36613
3.66441
3.17071
3.04497
3.4909
4.03721
3.32239
3.28148
3.63995
3.49209
3.1611
3.44024
3.49295
3.52909
4.31892
1.00505
1.01653
1.03638
1.0737
1.14503
1.29579
1.59502
2.23137
3.59249
3.94299
4.01676
4.12908
4.12637
3.93932
3.84563
3.79888
3.75665
3.72354
3.80786
3.67082
3.5597
3.81494
3.26796
3.10407
3.63347
3.34004
2.9028
2.97756
3.90523
3.35969
2.95764