/*--------------------------------*- C++ -*----------------------------------*\
  =========                 |
  \\      /  F ield         | OpenFOAM: The Open Source CFD Toolbox
   \\    /   O peration     | Website:  https://openfoam.org
    \\  /    A nd           | Version:  6.0
     \\/     M anipulation  |
\*---------------------------------------------------------------------------*/
FoamFile
{
    version     2.0;
    format      ascii;
    class       surfaceScalarField;
    location    "2.5";
    object      phi;
}
// * * * * * * * * * * * * * * * * * * * * * * * * * * * * * * * * * * * * * //

dimensions      [1 0 -1 0 0 0 0];

internalField   nonuniform List<scalar> 
9440
(
0.00209995
-2.89907e-16
0.00209995
-1.41461e-15
0.00209995
-3.35602e-15
0.00209995
-6.22957e-15
0.00209995
-9.60269e-15
0.00209995
-1.01763e-14
0.00209995
4.13394e-15
0.00209995
6.84399e-14
0.00209995
2.73783e-13
0.00209995
8.40257e-13
0.00209995
2.27377e-12
0.00209995
5.69089e-12
0.00209995
1.34707e-11
0.00209995
3.05237e-11
0.00209995
6.66914e-11
0.00209994
1.4117e-10
0.00209994
2.90513e-10
0.00209992
5.83014e-10
0.0020999
1.14501e-09
0.00209985
2.21139e-09
0.00209976
4.23106e-09
0.00209959
8.10891e-09
0.00209927
1.5812e-08
0.00209863
3.19974e-08
0.00209739
6.86737e-08
0.00209505
1.59547e-07
0.00209077
4.08741e-07
0.00208808
1.18497e-06
0.0020603
5.01458e-06
0.00170965
0.000115003
0.00140322
0.000210594
0.00116679
0.00035671
0.000760638
0.000742925
-0.000818223
0.00178563
-0.00183138
0.00190167
0.000910184
-0.00131496
0.00715366
-0.00718705
-0.00418788
0.0127097
-0.0041786
0.00101075
-0.00318311
0.00209995
-3.66535e-16
0.00209995
-1.76171e-15
0.00209995
-4.05901e-15
0.00209995
-7.15829e-15
0.00209995
-9.72342e-15
0.00209995
-4.888e-15
0.00209995
3.072e-14
0.00209995
1.6341e-13
0.00209995
5.63941e-13
0.00209995
1.64569e-12
0.00209995
4.36492e-12
0.00209995
1.08541e-11
0.00209995
2.57234e-11
0.00209995
5.86731e-11
0.00209995
1.2963e-10
0.00209994
2.78679e-10
0.00209994
5.85014e-10
0.00209992
1.20294e-09
0.0020999
2.43071e-09
0.00209985
4.84552e-09
0.00209975
9.57976e-09
0.00209958
1.89231e-08
0.00209927
3.77337e-08
0.00209867
7.70143e-08
0.00209755
1.63759e-07
0.00209548
3.70604e-07
0.00209169
9.1539e-07
0.00208945
2.56115e-06
0.00206283
1.04089e-05
0.0017015
0.000237423
0.00139385
0.00041187
0.00112153
0.000704728
0.000709036
0.00144161
0.00017457
0.00254523
-0.0013154
0.00389297
0.000990478
-0.00314602
-0.0124585
0.00529178
-0.0028896
0.00433786
-0.0028417
0.00188582
-0.00457562
0.00209995
-2.28247e-16
0.00209995
-1.04134e-15
0.00209995
-2.15014e-15
0.00209995
-2.96971e-15
0.00209995
-9.5442e-16
0.00209995
1.40025e-14
0.00209995
7.38776e-14
0.00209995
2.67405e-13
0.00209995
8.22835e-13
0.00209995
2.29858e-12
0.00209995
6.0099e-12
0.00209995
1.49592e-11
0.00209995
3.5818e-11
0.00209995
8.30674e-11
0.00209995
1.87498e-10
0.00209994
4.1342e-10
0.00209994
8.93138e-10
0.00209992
1.89556e-09
0.00209989
3.96245e-09
0.00209984
8.18033e-09
0.00209974
1.6731e-08
0.00209956
3.40394e-08
0.00209925
6.92917e-08
0.00209869
1.42396e-07
0.00209771
2.99587e-07
0.00209601
6.58993e-07
0.00209296
1.5606e-06
0.00209158
4.15903e-06
0.00206797
1.57022e-05
0.00174176
0.000341214
0.00144883
0.000577194
0.00115331
0.000976166
0.000881283
0.00190032
0.000676552
0.00303707
-0.00102233
0.00543502
0.00149769
-0.00342603
-0.00378035
0.0114608
2.35973e-05
0.00230703
0.000298299
0.00212411
-0.00379361
0.00209995
2.18712e-17
0.00209995
1.83934e-16
0.00209995
7.84428e-16
0.00209995
2.73154e-15
0.00209995
9.33709e-15
0.00209995
3.23478e-14
0.00209995
1.0757e-13
0.00209995
3.33752e-13
0.00209995
9.6753e-13
0.00209995
2.65008e-12
0.00209995
6.93494e-12
0.00209995
1.74889e-11
0.00209995
4.2765e-11
0.00209995
1.0183e-10
0.00209995
2.36819e-10
0.00209994
5.39067e-10
0.00209993
1.20303e-09
0.00209992
2.63605e-09
0.00209989
5.6795e-09
0.00209982
1.20532e-08
0.00209972
2.52533e-08
0.00209952
5.2402e-08
0.00209918
1.08212e-07
0.0020986
2.2407e-07
0.00209764
4.7098e-07
0.00209611
1.02449e-06
0.00209359
2.3729e-06
0.00209307
6.12184e-06
0.00207262
2.17315e-05
0.00181465
0.000434807
0.00157231
0.000700272
0.00126934
0.00110609
0.00114035
0.00195269
0.0022265
0.0024351
0.00672245
0.00158776
0.00277153
0.00175642
-0.00542034
0.020912
0.00117842
-0.00288186
0.000829308
0.00342368
-0.00296303
0.00209995
1.86487e-16
0.00209995
9.16364e-16
0.00209995
2.26608e-15
0.00209995
5.20903e-15
0.00209995
1.35925e-14
0.00209995
4.04786e-14
0.00209995
1.24377e-13
0.00209995
3.69713e-13
0.00209995
1.04657e-12
0.00209995
2.83249e-12
0.00209995
7.38772e-12
0.00209995
1.86994e-11
0.00209995
4.61675e-11
0.00209995
1.11566e-10
0.00209995
2.64482e-10
0.00209994
6.15957e-10
0.00209994
1.41054e-09
0.00209992
3.17806e-09
0.00209988
7.04841e-09
0.00209981
1.53964e-08
0.00209969
3.31548e-08
0.00209946
7.05044e-08
0.00209906
1.48538e-07
0.00209837
3.11939e-07
0.00209724
6.60254e-07
0.00209551
1.43491e-06
0.00209286
3.29525e-06
0.00209248
8.37996e-06
0.00207307
2.89824e-05
0.00187054
0.00054069
0.00165373
0.000839038
0.00132642
0.00126592
0.00107297
0.00182346
0.000145912
0.00316025
-0.000804757
0.00237156
0.0015292
0.000306081
0.00585663
0.0109587
-0.00316629
0.00532911
-0.000301834
4.26832e-05
-0.00340509
0.00209995
1.88512e-16
0.00209995
7.21708e-16
0.00209995
1.01778e-15
0.00209995
1.43387e-15
0.00209995
5.324e-15
0.00209995
2.54798e-14
0.00209995
1.00665e-13
0.00209995
3.36899e-13
0.00209995
1.00906e-12
0.00209995
2.80682e-12
0.00209995
7.42035e-12
0.00209995
1.89151e-11
0.00209995
4.6915e-11
0.00209995
1.13882e-10
0.00209995
2.71556e-10
0.00209995
6.37646e-10
0.00209994
1.47662e-09
0.00209992
3.3753e-09
0.00209988
7.61929e-09
0.00209981
1.69902e-08
0.00209967
3.74392e-08
0.0020994
8.16006e-08
0.00209889
1.76294e-07
0.002098
3.79314e-07
0.00209648
8.20381e-07
0.00209409
1.81355e-06
0.00209056
4.21273e-06
0.00208937
1.07884e-05
0.00206837
3.76127e-05
0.00189496
0.000674185
0.00168587
0.00100952
0.00131996
0.00146257
0.00110097
0.00196596
0.00092652
0.00282965
-0.000505227
0.00378422
0.00152814
-0.000814515
0.00300209
0.00802585
-5.21998e-05
0.00833864
0.000413718
-0.000766708
-0.00296586
0.00209995
-1.25608e-18
0.00209995
-5.81285e-16
0.00209995
-3.51485e-15
0.00209995
-1.00513e-14
0.00209995
-1.91866e-14
0.00209995
-2.20431e-14
0.00209995
1.32462e-14
0.00209995
1.80154e-13
0.00209995
7.29704e-13
0.00209995
2.30391e-12
0.00209995
6.49376e-12
0.00209995
1.71532e-11
0.00209995
4.3454e-11
0.00209995
1.06909e-10
0.00209995
2.57355e-10
0.00209995
6.08981e-10
0.00209994
1.42079e-09
0.00209992
3.27471e-09
0.00209989
7.46643e-09
0.00209982
1.68562e-08
0.00209967
3.771e-08
0.00209938
8.3683e-08
0.0020988
1.84553e-07
0.00209769
4.06111e-07
0.00209569
8.98994e-07
0.00209233
2.03272e-06
0.00208717
4.82217e-06
0.00208408
1.25985e-05
0.00206
4.52108e-05
0.00189175
0.000817054
0.0016969
0.0011896
0.00131009
0.0016403
0.00116179
0.0021487
0.0011752
0.00285683
0.00106956
0.00353452
0.00054786
0.000556351
0.000497263
0.0103601
0.00174918
0.00383945
0.00190818
-0.000193501
-0.000983181
0.00209995
-3.59051e-16
0.00209995
-2.88002e-15
0.00209995
-1.11018e-14
0.00209995
-2.89612e-14
0.00209995
-6.02667e-14
0.00209995
-1.0528e-13
0.00209995
-1.49675e-13
0.00209995
-1.33895e-13
0.00209995
1.26376e-13
0.00209995
1.1384e-12
0.00209995
4.21278e-12
0.00209995
1.26057e-11
0.00209995
3.41978e-11
0.00209995
8.77123e-11
0.00209995
2.17019e-10
0.00209995
5.23782e-10
0.00209994
1.24138e-09
0.00209993
2.90091e-09
0.0020999
6.70123e-09
0.00209983
1.53282e-08
0.0020997
3.47622e-08
0.00209941
7.82746e-08
0.00209881
1.75395e-07
0.00209761
3.92764e-07
0.00209527
8.86134e-07
0.00209105
2.04442e-06
0.00208411
4.95438e-06
0.00207828
1.32437e-05
0.00205075
4.92983e-05
0.00187218
0.000942013
0.00165443
0.00133963
0.00131402
0.00178708
0.00119118
0.00234922
0.00120971
0.00304282
0.00141772
0.00360421
0.000174023
0.00234174
0.00110088
0.0032842
0.00205919
0.00143466
0.00188138
0.000721473
0.000723165
0.00209995
-9.76131e-16
0.00209995
-6.56144e-15
0.00209995
-2.24836e-14
0.00209995
-5.64866e-14
0.00209995
-1.19801e-13
0.00209995
-2.27531e-13
0.00209995
-3.94841e-13
0.00209995
-6.20444e-13
0.00209995
-8.35249e-13
0.00209995
-7.61816e-13
0.00209995
4.44639e-13
0.00209995
5.07629e-12
0.00209995
1.89747e-11
0.00209995
5.64667e-11
0.00209995
1.51824e-10
0.00209995
3.85678e-10
0.00209994
9.45599e-10
0.00209993
2.26446e-09
0.00209991
5.33515e-09
0.00209985
1.24234e-08
0.00209973
2.86779e-08
0.00209947
6.5775e-08
0.00209891
1.50268e-07
0.00209774
3.43357e-07
0.00209534
7.90824e-07
0.00209071
1.86281e-06
0.00208258
4.61277e-06
0.00207405
1.26102e-05
0.00204349
4.87613e-05
0.00182528
0.00102753
0.00158461
0.00144628
0.00134144
0.00191393
0.00122059
0.00254489
0.00120199
0.00331142
0.00135317
0.0037177
0.00105387
0.00315594
0.0014973
0.00276367
0.0017055
0.00120543
0.00109612
0.00132354
0.00185237
0.00209995
-1.8512e-15
0.00209995
-1.15277e-14
0.00209995
-3.71778e-14
0.00209995
-9.16429e-14
0.00209995
-1.96749e-13
0.00209995
-3.89429e-13
0.00209995
-7.29241e-13
0.00209995
-1.30403e-12
0.00209995
-2.22211e-12
0.00209995
-3.5581e-12
0.00209995
-5.16709e-12
0.00209995
-6.1568e-12
0.00209995
-3.51557e-12
0.00209995
1.12792e-11
0.00209995
6.03902e-11
0.00209995
1.9873e-10
0.00209995
5.58365e-10
0.00209994
1.45106e-09
0.00209992
3.60438e-09
0.00209987
8.70526e-09
0.00209978
2.06531e-08
0.00209956
4.84631e-08
0.00209909
1.13081e-07
0.00209805
2.63862e-07
0.00209586
6.20819e-07
0.00209141
1.49413e-06
0.00208311
3.78471e-06
0.00207294
1.05744e-05
0.00204194
4.26005e-05
0.00173942
0.00106064
0.0015599
0.00153354
0.00138939
0.00204534
0.00124028
0.00276492
0.00119677
0.00343843
0.00124176
0.00409865
0.00139768
0.00356635
0.00125987
0.00283282
0.00122729
0.00108863
0.000912623
0.00242394
0.00285747
0.00209995
-2.67797e-15
0.00209995
-1.61494e-14
0.00209995
-5.07914e-14
0.00209995
-1.25002e-13
0.00209995
-2.73035e-13
0.00209995
-5.58934e-13
0.00209995
-1.10004e-12
0.00209995
-2.10462e-12
0.00209995
-3.92728e-12
0.00209995
-7.13913e-12
0.00209995
-1.25847e-11
0.00209995
-2.13279e-11
0.00209995
-3.42102e-11
0.00209995
-5.03032e-11
0.00209995
-6.25001e-11
0.00209995
-4.60663e-11
0.00209995
6.95955e-11
0.00209994
4.68487e-10
0.00209992
1.60676e-09
0.00209989
4.5826e-09
0.00209981
1.19966e-08
0.00209964
2.99633e-08
0.00209927
7.28822e-08
0.00209845
1.75088e-07
0.00209667
4.20948e-07
0.00209293
1.03039e-06
0.00208564
2.6526e-06
0.00207566
7.48663e-06
0.0020488
3.12947e-05
0.00168919
0.00102953
0.00149779
0.00158954
0.00145863
0.00225099
0.00123615
0.00271205
0.00119933
0.00352845
0.00117156
0.00436934
0.00130529
0.00372042
0.00134659
0.00271522
0.00124806
0.001455
0.000780128
0.00377828
0.00355451
0.00209995
-3.2083e-15
0.00209995
-1.90688e-14
0.00209995
-5.93219e-14
0.00209995
-1.46369e-13
0.00209995
-3.2423e-13
0.00209995
-6.80118e-13
0.00209995
-1.38492e-12
0.00209995
-2.76713e-12
0.00209995
-5.44484e-12
0.00209995
-1.05539e-11
0.00209995
-2.01257e-11
0.00209995
-3.76715e-11
0.00209995
-6.89941e-11
0.00209995
-1.23075e-10
0.00209995
-2.12374e-10
0.00209995
-3.50528e-10
0.00209995
-5.42083e-10
0.00209994
-7.50952e-10
0.00209993
-8.15718e-10
0.0020999
-2.37101e-10
0.00209984
2.33578e-09
0.0020997
1.03238e-08
0.0020994
3.20981e-08
0.00209876
8.78995e-08
0.00209739
2.27264e-07
0.00209452
5.77303e-07
0.00208886
1.51377e-06
0.00208053
4.22488e-06
0.00206095
1.83904e-05
0.00173245
0.00097519
0.00144897
0.00159988
0.00147344
0.00239596
0.0012345
0.00271967
0.00122191
0.00368265
0.00117277
0.0043946
0.00107914
0.00404456
0.000919987
0.00342688
0.00158935
0.00156192
0.000529108
0.0051016
0.00421891
0.00209995
-3.26959e-15
0.00209995
-1.94797e-14
0.00209995
-6.08536e-14
0.00209995
-1.51456e-13
0.00209995
-3.40223e-13
0.00209995
-7.27729e-13
0.00209995
-1.51857e-12
0.00209995
-3.12276e-12
0.00209995
-6.35066e-12
0.00209995
-1.27836e-11
0.00209995
-2.54674e-11
0.00209995
-5.01827e-11
0.00209995
-9.77109e-11
0.00209995
-1.87737e-10
0.00209995
-3.55261e-10
0.00209995
-6.60422e-10
0.00209995
-1.20191e-09
0.00209995
-2.13124e-09
0.00209994
-3.65675e-09
0.00209991
-6.00508e-09
0.00209986
-9.2582e-09
0.00209974
-1.28726e-08
0.00209949
-1.445e-08
0.00209896
-6.83263e-09
0.00209784
2.85343e-08
0.00209557
1.37572e-07
0.00209129
4.56169e-07
0.00208483
1.27342e-06
0.00207261
6.89813e-06
0.00181935
0.000943082
0.00154652
0.0016123
0.00140783
0.00217606
0.00125874
0.00283489
0.00124244
0.00393332
0.00117846
0.00475967
0.00102538
0.00445007
0.00170053
0.00307513
0.00179615
0.00205465
0.000131069
0.00621429
0.00469041
0.00209995
-3.01401e-15
0.00209995
-1.81684e-14
0.00209995
-5.73544e-14
0.00209995
-1.43833e-13
0.00209995
-3.26426e-13
0.00209995
-7.08863e-13
0.00209995
-1.50845e-12
0.00209995
-3.17281e-12
0.00209995
-6.61172e-12
0.00209995
-1.36551e-11
0.00209995
-2.79526e-11
0.00209995
-5.67252e-11
0.00209995
-1.14147e-10
0.00209995
-2.27794e-10
0.00209995
-4.50747e-10
0.00209995
-8.83862e-10
0.00209995
-1.71575e-09
0.00209995
-3.29235e-09
0.00209995
-6.23329e-09
0.00209994
-1.1618e-08
0.00209991
-2.12676e-08
0.00209982
-3.81578e-08
0.00209963
-6.70492e-08
0.00209919
-1.15741e-07
0.00209825
-1.98757e-07
0.00209635
-3.50492e-07
0.00209286
-6.56838e-07
0.00208755
-1.61119e-06
0.00208123
-3.38895e-06
0.00189488
0.000940121
0.00164652
0.00164725
0.00136482
0.00219262
0.00130322
0.00326332
0.00126176
0.00488955
0.00111985
0.00467254
0.000705883
0.00480883
-9.2638e-05
0.00411473
-0.00147657
0.0034508
-0.000414509
0.00493957
0.00451334
0.00209995
-2.85277e-15
0.00209995
-1.72081e-14
0.00209995
-5.39223e-14
0.00209995
-1.33115e-13
0.00209995
-2.98081e-13
0.00209995
-6.43811e-13
0.00209995
-1.37588e-12
0.00209995
-2.93209e-12
0.00209995
-6.23192e-12
0.00209995
-1.31826e-11
0.00209995
-2.76954e-11
0.00209995
-5.77136e-11
0.00209995
-1.1924e-10
0.00209995
-2.44308e-10
0.00209995
-4.96705e-10
0.00209996
-1.00279e-09
0.00209996
-2.01144e-09
0.00209996
-4.00926e-09
0.00209996
-7.93919e-09
0.00209997
-1.56096e-08
0.00209996
-3.04523e-08
0.00209993
-5.89363e-08
0.00209984
-1.13307e-07
0.00209957
-2.1745e-07
0.00209893
-4.21476e-07
0.00209751
-8.44164e-07
0.00209478
-1.79615e-06
0.0020901
-4.5253e-06
0.00208795
-1.36275e-05
0.00193656
0.000950512
0.00172897
0.0016974
0.00141827
0.00223601
0.0013916
0.0036601
0.00124644
0.00434794
0.00107193
0.00418096
0.000819425
0.00449299
0.000677253
0.00445504
0.000442394
0.00389437
-0.000626941
0.00594247
0.00424727
0.00209995
-3.44982e-15
0.00209995
-1.98935e-14
0.00209995
-5.89681e-14
0.00209995
-1.3775e-13
0.00209995
-2.92678e-13
0.00209995
-6.03295e-13
0.00209995
-1.24313e-12
0.00209995
-2.59021e-12
0.00209995
-5.46498e-12
0.00209995
-1.16347e-11
0.00209995
-2.48647e-11
0.00209995
-5.30789e-11
0.00209995
-1.12744e-10
0.00209995
-2.37698e-10
0.00209996
-4.96831e-10
0.00209996
-1.02941e-09
0.00209996
-2.11552e-09
0.00209996
-4.31625e-09
0.00209997
-8.75219e-09
0.00209999
-1.76557e-08
0.00210001
-3.54679e-08
0.00210004
-7.10417e-08
0.00210006
-1.42208e-07
0.00210003
-2.85898e-07
0.00209983
-5.83125e-07
0.00209915
-1.22902e-06
0.00209753
-2.74135e-06
0.00209373
-7.0658e-06
0.00209494
-2.31347e-05
0.00195794
0.000967523
0.00177757
0.00176352
0.00155156
0.00232658
0.00138711
0.00298068
0.00122609
0.00378125
0.00108371
0.00430459
0.00128278
0.00479022
0.000878142
0.00408705
8.70592e-05
0.00473528
0.000211549
0.00605466
0.00469182
0.00209995
-4.76024e-15
0.00209995
-2.59903e-14
0.00209995
-7.2345e-14
0.00209995
-1.6067e-13
0.00209995
-3.25363e-13
0.00209995
-6.37057e-13
0.00209995
-1.24312e-12
0.00209995
-2.45784e-12
0.00209995
-4.96299e-12
0.00209995
-1.02487e-11
0.00209995
-2.15667e-11
0.00209995
-4.59576e-11
0.00209995
-9.84987e-11
0.00209995
-2.11096e-10
0.00209996
-4.50511e-10
0.00209996
-9.55088e-10
0.00209996
-2.00935e-09
0.00209997
-4.19531e-09
0.00209998
-8.69933e-09
0.0021
-1.79357e-08
0.00210004
-3.68206e-08
0.00210011
-7.54102e-08
0.00210023
-1.54537e-07
0.0021004
-3.1858e-07
0.00210061
-6.6724e-07
0.00210075
-1.44445e-06
0.00210053
-3.30855e-06
0.00209809
-8.70556e-06
0.00210211
-3.00596e-05
0.00197991
0.000999776
0.00180725
0.00185379
0.00162211
0.00245159
0.00136394
0.00300798
0.00125593
0.00392043
0.00119379
0.00493358
0.00152929
0.00556747
0.000813663
0.00400456
0.000177219
0.00530047
0.000739377
0.00626569
0.00531318
0.00209995
-5.20015e-15
0.00209995
-2.77222e-14
0.00209995
-7.54537e-14
0.00209995
-1.67404e-13
0.00209995
-3.42476e-13
0.00209995
-6.77046e-13
0.00209995
-1.32012e-12
0.00209995
-2.56786e-12
0.00209995
-5.0271e-12
0.00209995
-9.97839e-12
0.00209995
-2.01793e-11
0.00209995
-4.16207e-11
0.00209995
-8.73098e-11
0.00209995
-1.85291e-10
0.00209996
-3.95426e-10
0.00209996
-8.44129e-10
0.00209996
-1.79583e-09
0.00209997
-3.79977e-09
0.00209999
-7.9922e-09
0.00210001
-1.67218e-08
0.00210007
-3.48552e-08
0.00210017
-7.2545e-08
0.00210034
-1.51268e-07
0.00210065
-3.17723e-07
0.00210118
-6.78659e-07
0.00210197
-1.49848e-06
0.00210298
-3.49944e-06
0.00210212
-9.36867e-06
0.00210856
-3.32413e-05
0.00200631
0.00105456
0.00183898
0.00197015
0.00165172
0.002594
0.0013764
0.00310796
0.00132089
0.00459917
0.00136696
0.00550951
0.00119771
0.00439253
0.000924488
0.00395173
0.000151071
0.00618297
0.000724462
0.00526376
0.00637292
0.00209995
-3.57626e-15
0.00209995
-1.91217e-14
0.00209995
-5.30611e-14
0.00209995
-1.24855e-13
0.00209995
-2.78478e-13
0.00209995
-6.04153e-13
0.00209995
-1.27735e-12
0.00209995
-2.63181e-12
0.00209995
-5.30434e-12
0.00209995
-1.05391e-11
0.00209995
-2.08525e-11
0.00209995
-4.15091e-11
0.00209995
-8.37907e-11
0.00209995
-1.72141e-10
0.00209996
-3.59521e-10
0.00209996
-7.59872e-10
0.00209996
-1.61575e-09
0.00209997
-3.43791e-09
0.00209999
-7.29244e-09
0.00210002
-1.53936e-08
0.00210008
-3.23426e-08
0.00210019
-6.77692e-08
0.0021004
-1.42158e-07
0.00210078
-3.0041e-07
0.00210147
-6.46146e-07
0.00210265
-1.43841e-06
0.00210451
-3.39292e-06
0.00210504
-9.19373e-06
0.00211346
-3.27272e-05
0.00203722
0.00113734
0.00186776
0.00211768
0.0016617
0.00275629
0.00145614
0.00325326
0.00136092
0.00491107
0.00116821
0.00442067
0.00105642
0.00429838
0.00124703
0.00464407
0.000383245
0.00599698
0.000676314
0.00487396
0.00754263
0.00209995
-8.51594e-16
0.00209995
-4.61935e-15
0.00209995
-1.39969e-14
0.00209995
-4.16589e-14
0.00209995
-1.24156e-13
0.00209995
-3.48292e-13
0.00209995
-8.99959e-13
0.00209995
-2.15341e-12
0.00209995
-4.8347e-12
0.00209995
-1.03303e-11
0.00209995
-2.13021e-11
0.00209995
-4.29819e-11
0.00209995
-8.6002e-11
0.00209995
-1.72671e-10
0.00209995
-3.50846e-10
0.00209996
-7.24213e-10
0.00209996
-1.51726e-09
0.00209997
-3.21228e-09
0.00209999
-6.83413e-09
0.00210002
-1.45369e-08
0.00210009
-3.08148e-08
0.00210021
-6.50447e-08
0.00210044
-1.37016e-07
0.00210086
-2.89711e-07
0.00210161
-6.21526e-07
0.00210292
-1.37708e-06
0.00210509
-3.23248e-06
0.00210636
-8.71189e-06
0.00211697
-2.97899e-05
0.00206406
0.0012417
0.00188665
0.00229078
0.00166392
0.00293364
0.00152767
0.00344286
0.00122215
0.00382486
0.00113312
0.00448822
0.00117104
0.00484822
0.00116764
0.00501114
0.000645062
0.00536001
0.000423282
0.00561417
0.0085341
0.00209995
9.00974e-16
0.00209995
5.50127e-15
0.00209995
1.70157e-14
0.00209995
3.66153e-14
0.00209995
5.32337e-14
0.00209995
2.16862e-14
0.00209995
-1.86428e-13
0.00209995
-8.85373e-13
0.00209995
-2.7763e-12
0.00209995
-7.32642e-12
0.00209995
-1.748e-11
0.00209995
-3.90246e-11
0.00209995
-8.33319e-11
0.00209995
-1.73101e-10
0.00209996
-3.54739e-10
0.00209996
-7.25343e-10
0.00209996
-1.49136e-09
0.00209997
-3.09498e-09
0.00209999
-6.4828e-09
0.00210002
-1.36702e-08
0.0021001
-2.89164e-08
0.00210024
-6.11818e-08
0.00210051
-1.29395e-07
0.00210099
-2.7441e-07
0.00210184
-5.88749e-07
0.00210328
-1.29997e-06
0.00210562
-3.04053e-06
0.00210687
-8.03517e-06
0.00211707
-2.41944e-05
0.00205372
0.00136122
0.00188829
0.00247147
0.00166988
0.00311934
0.00150073
0.00363513
0.00120533
0.00385862
0.00121556
0.00451421
0.00116644
0.00440984
0.000861209
0.00396366
0.000642836
0.00514252
0.000154135
0.0070885
0.00875527
0.00209995
1.00327e-15
0.00209995
7.45967e-15
0.00209995
2.83756e-14
0.00209995
7.87372e-14
0.00209995
1.80072e-13
0.00209995
3.56922e-13
0.00209995
6.14737e-13
0.00209995
8.70224e-13
0.00209995
7.78526e-13
0.00209995
-6.43402e-13
0.00209995
-5.77429e-12
0.00209995
-1.98489e-11
0.00209995
-5.37565e-11
0.00209995
-1.29537e-10
0.00209996
-2.91608e-10
0.00209996
-6.30474e-10
0.00209996
-1.33372e-09
0.00209997
-2.796e-09
0.00209999
-5.85533e-09
0.00210002
-1.22965e-08
0.0021001
-2.59166e-08
0.00210026
-5.47753e-08
0.00210057
-1.1601e-07
0.00210114
-2.46578e-07
0.00210216
-5.29249e-07
0.00210383
-1.16338e-06
0.00210635
-2.69223e-06
0.00210744
-6.89076e-06
0.00211501
-1.68693e-05
0.00201667
0.00149147
0.0018666
0.00265338
0.00168525
0.00331789
0.00144147
0.00380734
0.00125211
0.00403211
0.00113683
0.00423052
0.0010685
0.00387879
0.00062701
0.00400129
0.000580023
0.00509159
-2.58366e-05
0.00861561
0.00805063
0.00209995
9.82356e-16
0.00209995
8.4179e-15
0.00209995
3.5129e-14
0.00209995
1.03859e-13
0.00209995
2.58573e-13
0.00209995
5.83513e-13
0.00209995
1.22771e-12
0.00209995
2.42308e-12
0.00209995
4.45846e-12
0.00209995
7.51842e-12
0.00209995
1.12021e-11
0.00209995
1.3384e-11
0.00209995
7.82816e-12
0.00209996
-2.05128e-11
0.00209996
-1.04657e-10
0.00209996
-3.13964e-10
0.00209996
-7.92625e-10
0.00209997
-1.84307e-09
0.00209999
-4.1092e-09
0.00210003
-8.97818e-09
0.00210011
-1.94544e-08
0.00210028
-4.2045e-08
0.00210063
-9.08226e-08
0.00210131
-1.96336e-07
0.00210253
-4.26197e-07
0.00210458
-9.37547e-07
0.00210751
-2.13865e-06
0.00210883
-5.24297e-06
0.0021151
-8.62415e-06
0.00199605
0.00162501
0.0018362
0.0028273
0.00169922
0.00353888
0.00138543
0.00395368
0.00124294
0.0049307
0.00104917
0.00435912
0.00106595
0.00354551
0.000470558
0.00443157
0.00051079
0.00511973
-8.48584e-05
0.0096064
0.00791926
0.00209995
2.21849e-15
0.00209995
1.54931e-14
0.00209995
5.58643e-14
0.00209995
1.51542e-13
0.00209995
3.60133e-13
0.00209995
8.02319e-13
0.00209995
1.72491e-12
0.00209995
3.613e-12
0.00209995
7.3727e-12
0.00209995
1.45892e-11
0.00209995
2.7804e-11
0.00209995
5.06104e-11
0.00209995
8.70961e-11
0.00209995
1.39732e-10
0.00209996
2.0414e-10
0.00209996
2.5797e-10
0.00209997
2.38253e-10
0.00209998
-5.67989e-12
0.0021
-8.14491e-10
0.00210004
-2.94835e-09
0.00210013
-8.10715e-09
0.00210031
-2.01031e-08
0.00210069
-4.74663e-08
0.00210145
-1.09144e-07
0.00210292
-2.46895e-07
0.00210547
-5.53047e-07
0.00210924
-1.24844e-06
0.00211142
-2.88453e-06
0.00211711
6.72284e-07
0.00199149
0.00175346
0.0018236
0.00300189
0.00169527
0.0037845
0.00139035
0.00410096
0.00121505
0.00567882
0.000895209
0.00466936
0.00101587
0.00386683
0.00047933
0.00539688
-0.000604553
0.00647003
-0.000164245
0.00851025
0.00785157
0.00209995
4.16276e-15
0.00209995
2.61839e-14
0.00209995
8.59782e-14
0.00209995
2.19341e-13
0.00209995
4.9944e-13
0.00209995
1.07961e-12
0.00209995
2.28002e-12
0.00209995
4.76194e-12
0.00209995
9.86937e-12
0.00209995
2.02762e-11
0.00209995
4.11602e-11
0.00209995
8.22151e-11
0.00209995
1.6085e-10
0.00209995
3.06771e-10
0.00209996
5.67652e-10
0.00209996
1.01464e-09
0.00209996
1.74526e-09
0.00209998
2.88022e-09
0.0021
4.54914e-09
0.00210005
6.85474e-09
0.00210015
9.78633e-09
0.00210035
1.30046e-08
0.00210076
1.53386e-08
0.00210157
1.38503e-08
0.00210316
3.25157e-09
0.00210608
-1.83337e-08
0.00211065
-1.94762e-08
0.00211422
2.86163e-07
0.00211948
1.23201e-05
0.00201448
0.00186971
0.00182225
0.00321627
0.0016671
0.00401139
0.00143131
0.00427609
0.00109542
0.00502094
0.000765755
0.00524107
0.000170846
0.00496719
0.000394101
0.00646953
-0.000429952
0.0085715
-0.000197701
0.00882302
0.00761225
0.00209995
6.11923e-15
0.00209995
3.68891e-14
0.00209995
1.16161e-13
0.00209995
2.88302e-13
0.00209995
6.44014e-13
0.00209995
1.37154e-12
0.00209995
2.86255e-12
0.00209995
5.93146e-12
0.00209995
1.22634e-11
0.00209995
2.53142e-11
0.00209995
5.20892e-11
0.00209995
1.06612e-10
0.00209995
2.1661e-10
0.00209995
4.36191e-10
0.00209995
8.69239e-10
0.00209995
1.71065e-09
0.00209996
3.31422e-09
0.00209997
6.29514e-09
0.00209999
1.16722e-08
0.00210004
2.10616e-08
0.00210015
3.69885e-08
0.00210037
6.35652e-08
0.00210081
1.08292e-07
0.00210167
1.87263e-07
0.00210331
3.4137e-07
0.00210633
6.91102e-07
0.00211124
1.62419e-06
0.00211599
4.61866e-06
0.00212033
2.79541e-05
0.00202078
0.00201346
0.00184035
0.00345951
0.00162897
0.00420642
0.00143104
0.00448802
0.00103084
0.0049152
0.000764998
0.00550739
-0.000159226
0.00544783
-0.000176391
0.00574053
-0.00068866
0.00981003
-0.000241085
0.00936419
0.00730841
0.00209995
8.02257e-15
0.00209995
4.72349e-14
0.00209995
1.45264e-13
0.00209995
3.55283e-13
0.00209995
7.85664e-13
0.00209995
1.65879e-12
0.00209995
3.43364e-12
0.00209995
7.06327e-12
0.00209995
1.45331e-11
0.00209995
2.99723e-11
0.00209995
6.19101e-11
0.00209995
1.27781e-10
0.00209995
2.62813e-10
0.00209995
5.37503e-10
0.00209995
1.09222e-09
0.00209995
2.20647e-09
0.00209995
4.43749e-09
0.00209995
8.89169e-09
0.00209996
1.77292e-08
0.00209997
3.50328e-08
0.00210004
6.82032e-08
0.00210022
1.30221e-07
0.00210065
2.44063e-07
0.00210157
4.54102e-07
0.0021034
8.60924e-07
0.00210668
1.7354e-06
0.00211185
3.90419e-06
0.00211714
1.0334e-05
0.00211923
4.73247e-05
0.00201171
0.00220133
0.00184735
0.00367681
0.00159812
0.00442612
0.00141144
0.00472176
0.001054
0.00513621
0.000649217
0.0053868
-0.000299633
0.00581334
-0.00060459
0.00497598
-0.000901283
0.00813322
-0.00029279
0.010079
0.00680665
0.00209995
9.80578e-15
0.00209995
5.69791e-14
0.00209995
1.73124e-13
0.00209995
4.21304e-13
0.00209995
9.29823e-13
0.00209995
1.95932e-12
0.00209995
4.04153e-12
0.00209995
8.26969e-12
0.00209995
1.6909e-11
0.00209995
3.46792e-11
0.00209995
7.14291e-11
0.00209995
1.47643e-10
0.00209995
3.05587e-10
0.00209995
6.31521e-10
0.00209995
1.29948e-09
0.00209995
2.65773e-09
0.00209995
5.40231e-09
0.00209994
1.09342e-08
0.00209994
2.21095e-08
0.00209992
4.48079e-08
0.00209989
9.10976e-08
0.00209987
1.8526e-07
0.00209998
3.74887e-07
0.00210053
7.53041e-07
0.00210212
1.51449e-06
0.00210557
3.13479e-06
0.00211137
6.99229e-06
0.00211783
1.78936e-05
0.00211736
7.18824e-05
0.00204516
0.00241403
0.00182986
0.00389737
0.00157984
0.0046992
0.0013934
0.00495846
0.00104377
0.00537859
0.000614171
0.00572138
-0.0002987
0.00660269
-0.000670629
0.0053509
-0.000822648
0.00725118
-0.000411312
0.007827
0.00641348
0.00209995
1.13234e-14
0.00209995
6.5497e-14
0.00209995
1.98591e-13
0.00209995
4.85038e-13
0.00209995
1.07675e-12
0.00209995
2.28134e-12
0.00209995
4.72208e-12
0.00209995
9.66763e-12
0.00209995
1.97173e-11
0.00209995
4.02342e-11
0.00209995
8.2352e-11
0.00209995
1.69275e-10
0.00209995
3.49388e-10
0.00209995
7.23224e-10
0.00209995
1.49811e-09
0.00209995
3.0973e-09
0.00209994
6.37629e-09
0.00209994
1.30529e-08
0.00209993
2.65808e-08
0.00209991
5.39838e-08
0.00209985
1.09852e-07
0.0020997
2.25232e-07
0.00209936
4.67393e-07
0.00209886
9.83999e-07
0.00209873
2.10645e-06
0.00210042
4.62641e-06
0.00210569
1.06847e-05
0.00211361
2.74298e-05
0.00211
0.000103731
0.0020978
0.00266704
0.00186496
0.00416628
0.0015761
0.00498402
0.00137863
0.00517582
0.00106524
0.00560405
0.000618421
0.00611569
-3.27772e-05
0.00717339
-0.000689721
0.00614799
-0.000614159
0.00725018
-0.000509884
0.00721271
0.00618142
0.00209995
1.25421e-14
0.00209995
7.27345e-14
0.00209995
2.21885e-13
0.00209995
5.47411e-13
0.00209995
1.22889e-12
0.00209995
2.63112e-12
0.00209995
5.49312e-12
0.00209995
1.13134e-11
0.00209995
2.31396e-11
0.00209995
4.71987e-11
0.00209995
9.6277e-11
0.00209995
1.96769e-10
0.00209995
4.03394e-10
0.00209995
8.29877e-10
0.00209995
1.7125e-09
0.00209995
3.54041e-09
0.00209994
7.31973e-09
0.00209993
1.51039e-08
0.00209992
3.10562e-08
0.00209989
6.3604e-08
0.00209985
1.29934e-07
0.00209974
2.65838e-07
0.00209939
5.48689e-07
0.0020984
1.15473e-06
0.00209609
2.51155e-06
0.00209257
5.74367e-06
0.00209104
1.41237e-05
0.00209762
3.84584e-05
0.00209061
0.000145467
0.00211033
0.00299808
0.00203799
0.00453292
0.00158275
0.00524393
0.00137636
0.00539338
0.00112078
0.00584213
0.000679602
0.00649349
0.000430749
0.00738064
-0.000577851
0.00729082
-0.00046445
0.0078152
-0.000520997
0.00738922
0.00608945
0.00209995
1.36396e-14
0.00209995
7.97457e-14
0.00209995
2.46198e-13
0.00209995
6.15786e-13
0.00209995
1.40123e-12
0.00209995
3.03717e-12
0.00209995
6.40682e-12
0.00209995
1.33008e-11
0.00209995
2.73493e-11
0.00209995
5.59229e-11
0.00209995
1.14028e-10
0.00209995
2.32327e-10
0.00209995
4.73739e-10
0.00209995
9.67912e-10
0.00209995
1.98293e-09
0.00209995
4.07421e-09
0.00209994
8.39187e-09
0.00209993
1.73106e-08
0.0020999
3.57108e-08
0.00209986
7.35819e-08
0.0020998
1.51366e-07
0.0020997
3.1126e-07
0.0020995
6.42494e-07
0.00209895
1.34297e-06
0.00209711
2.8875e-06
0.00209153
6.54657e-06
0.00207873
1.61784e-05
0.0020656
4.59017e-05
0.00205282
0.000188301
0.0020654
0.00356459
0.00217046
0.00516564
0.00162912
0.00551526
0.00138922
0.00564571
0.0011914
0.00615183
0.000819187
0.00684503
0.000516664
0.00753551
-0.000359272
0.00824671
-0.000297267
0.00739283
-0.000445486
0.00832097
0.00685039
0.00209995
1.49465e-14
0.00209995
8.83385e-14
0.00209995
2.76548e-13
0.00209995
7.00793e-13
0.00209995
1.61311e-12
0.00209995
3.53108e-12
0.00209995
7.51042e-12
0.00209995
1.56959e-11
0.00209995
3.2436e-11
0.00209995
6.65461e-11
0.00209995
1.35915e-10
0.00209995
2.76926e-10
0.00209995
5.63797e-10
0.00209995
1.14847e-09
0.00209995
2.34319e-09
0.00209995
4.79192e-09
0.00209994
9.82639e-09
0.00209993
2.02039e-08
0.0020999
4.163e-08
0.00209985
8.58912e-08
0.00209975
1.7732e-07
0.0020996
3.66376e-07
0.00209936
7.59427e-07
0.00209897
1.58926e-06
0.00209811
3.40163e-06
0.00209543
7.61771e-06
0.00208598
1.84693e-05
0.00205911
5.0999e-05
0.00198074
0.000196568
0.00199057
0.00356548
0.00190825
0.00483773
0.00173263
0.00595819
0.00140352
0.0058984
0.00124989
0.00655451
0.00100694
0.00725675
0.000550923
0.0074785
0.000111042
0.00878303
-0.000134701
0.00711375
-0.000213285
0.00939377
0.00659538
0.00209995
1.67752e-14
0.00209995
1.00305e-13
0.00209995
3.18172e-13
0.00209995
8.14341e-13
0.00209995
1.88852e-12
0.00209995
4.15848e-12
0.00209995
8.88968e-12
0.00209995
1.86633e-11
0.00209995
3.87301e-11
0.00209995