/*--------------------------------*- C++ -*----------------------------------*\
  =========                 |
  \\      /  F ield         | OpenFOAM: The Open Source CFD Toolbox
   \\    /   O peration     | Website:  https://openfoam.org
    \\  /    A nd           | Version:  6.0
     \\/     M anipulation  |
\*---------------------------------------------------------------------------*/
FoamFile
{
    version     2.0;
    format      ascii;
    class       volScalarField;
    location    "2.5";
    object      T;
}
// * * * * * * * * * * * * * * * * * * * * * * * * * * * * * * * * * * * * * //

dimensions      [0 0 0 1 0 0 0];

internalField   nonuniform List<scalar> 
4800
(
1
1
1
1
1
1
1
1
1
1
1
1.00001
1.00001
1.00002
1.00005
1.00009
1.00019
1.00039
1.00081
1.00166
1.00341
1.00701
1.01444
1.02989
1.06239
1.13251
1.29266
1.71311
3.17608
2.62252
2.75857
2.83718
2.85096
2.89589
3.01414
3.16042
2.41878
1.82155
1.28722
1.39702
1
1
1
1
1
1
1
1
1
1
1
1.00001
1.00001
1.00002
1.00005
1.00009
1.00019
1.00039
1.00081
1.00166
1.00341
1.00701
1.01444
1.02989
1.06238
1.13247
1.29256
1.71275
3.17447
2.62132
2.7575
2.83873
2.85404
2.88747
2.94303
2.42472
1.71758
1.70598
1.52906
1.82482
1
1
1
1
1
1
1
1
1
1
1
1.00001
1.00001
1.00002
1.00005
1.00009
1.00019
1.00039
1.00081
1.00166
1.0034
1.00701
1.01444
1.02988
1.06235
1.13241
1.29237
1.7121
3.17159
2.61924
2.75475
2.83926
2.85581
2.8828
2.88921
2.35812
1.68397
1.61379
1.87477
2.28303
1
1
1
1
1
1
1
1
1
1
1
1.00001
1.00001
1.00002
1.00005
1.00009
1.00019
1.00039
1.00081
1.00166
1.0034
1.007
1.01443
1.02986
1.06231
1.13232
1.29215
1.71132
3.16828
2.61762
2.75148
2.83586
2.86043
2.87148
2.94884
2.78883
1.7203
1.81949
2.08879
2.40419
1
1
1
1
1
1
1
1
1
1
1
1.00001
1.00001
1.00002
1.00005
1.00009
1.00019
1.00039
1.0008
1.00165
1.0034
1.00699
1.01442
1.02984
1.06226
1.1322
1.29188
1.71045
3.16514
2.61828
2.74968
2.83053
2.84517
2.8812
2.9064
2.54208
1.87758
2.53213
2.44303
2.48173
1
1
1
1
1
1
1
1
1
1
1
1.00001
1.00001
1.00002
1.00005
1.00009
1.00019
1.00039
1.0008
1.00165
1.00339
1.00698
1.01439
1.02979
1.06218
1.13204
1.29154
1.70939
3.16204
2.62188
2.74987
2.82634
2.83374
2.85781
2.86262
2.69917
2.31118
3.09815
2.75913
2.5494
1
1
1
1
1
1
1
1
1
1
1
1.00001
1.00001
1.00002
1.00004
1.00009
1.00019
1.00039
1.0008
1.00164
1.00338
1.00696
1.01436
1.02972
1.06204
1.13178
1.29101
1.70785
3.15807
2.62827
2.75168
2.82113
2.83141
2.83442
2.81972
2.72643
2.97743
3.30013
2.85148
2.58189
1
1
1
1
1
1
1
1
1
1
1
1.00001
1.00001
1.00002
1.00004
1.00009
1.00019
1.00039
1.0008
1.00164
1.00337
1.00694
1.01431
1.02963
1.06186
1.13141
1.29022
1.70563
3.15212
2.636
2.75334
2.8142
2.83325
2.82545
2.80455
2.74851
3.01034
3.05422
2.79019
2.61402
1
1
1
1
1
1
1
1
1
1
1
1.00001
1.00001
1.00002
1.00004
1.00009
1.00019
1.00039
1.0008
1.00163
1.00336
1.00692
1.01426
1.02953
1.06165
1.13097
1.28922
1.70278
3.14351
2.64359
2.75248
2.80771
2.83594
2.82401
2.80645
2.75539
2.79011
2.91368
2.74306
2.66867
1
1
1
1
1
1
1
1
1
1
1
1.00001
1.00001
1.00002
1.00004
1.00009
1.00019
1.00039
1.00079
1.00163
1.00335
1.0069
1.01422
1.02943
1.06144
1.13049
1.28809
1.69955
3.13202
2.64925
2.75012
2.80324
2.83793
2.82452
2.81204
2.77135
2.77206
2.86583
2.72674
2.71663
1
1
1
1
1
1
1
1
1
1
1
1.00001
1.00001
1.00002
1.00004
1.00009
1.00019
1.00039
1.00079
1.00163
1.00334
1.00688
1.01418
1.02935
1.06124
1.13003
1.28695
1.69633
3.11808
2.65096
2.74777
2.80325
2.83592
2.81837
2.82099
2.78911
2.77251
2.85049
2.74883
2.75164
1
1
1
1
1
1
1
1
1
1
1
1.00001
1.00001
1.00002
1.00004
1.00009
1.00019
1.00039
1.00079
1.00162
1.00334
1.00687
1.01415
1.02928
1.06108
1.12965
1.28597
1.6937
3.10332
2.64968
2.74289
2.80977
2.82152
2.8152
2.82051
2.81084
2.79554
2.90883
2.78789
2.80848
1
1
1
1
1
1
1
1
1
1
1
1.00001
1.00001
1.00002
1.00004
1.00009
1.00019
1.00038
1.00079
1.00162
1.00333
1.00685
1.01412
1.02922
1.06096
1.12937
1.28522
1.69193
3.08918
2.64862
2.73699
2.80527
2.81304
2.81267
2.81851
2.81359
2.81401
2.9524
2.80783
2.83295
1
1
1
1
1
1
1
1
1
1
1
1.00001
1.00001
1.00002
1.00004
1.00009
1.00019
1.00038
1.00079
1.00162
1.00333
1.00684
1.0141
1.02918
1.06085
1.12914
1.28462
1.69091
3.07568
2.64969
2.73266
2.79363
2.81396
2.82261
2.82428
2.814
2.81574
3.00597
2.87281
2.85542
1
1
1
1
1
1
1
1
1
1
1
1.00001
1.00001
1.00002
1.00004
1.00009
1.00019
1.00038
1.00079
1.00162
1.00333
1.00684
1.01409
1.02914
1.06078
1.12897
1.28415
1.69043
3.06218
2.65229
2.72963
2.78487
2.83049
2.83435
2.79881
2.79452
2.80747
2.97558
2.97504
2.84524
1
1
1
1
1
1
1
1
1
1
1
1.00001
1.00001
1.00002
1.00004
1.00009
1.00019
1.00038
1.00079
1.00162
1.00333
1.00684
1.01409
1.02914
1.06075
1.12888
1.28386
1.69056
3.04871
2.65512
2.72807
2.7793
2.8225
2.79211
2.78284
2.76638
2.80774
2.97425
3.0797
2.85133
1
1
1
1
1
1
1
1
1
1
1
1.00001
1.00001
1.00002
1.00004
1.00009
1.00019
1.00039
1.00079
1.00162
1.00333
1.00685
1.0141
1.02915
1.06077
1.12891
1.2838
1.69144
3.03586
2.65835
2.72816
2.77664
2.80017
2.77543
2.78263
2.77034
2.79109
2.97088
3.13033
2.88614
1
1
1
1
1
1
1
1
1
1
1
1.00001
1.00001
1.00002
1.00004
1.00009
1.00019
1.00039
1.00079
1.00162
1.00334
1.00686
1.01412
1.02919
1.06084
1.12903
1.28398
1.69305
3.0239
2.66289
2.73021
2.77574
2.79093
2.77557
2.8049
2.76378
2.77017
2.95386
3.13429
2.89457
1
1
1
1
1
1
1
1
1
1
1
1.00001
1.00001
1.00002
1.00004
1.00009
1.00019
1.00039
1.00079
1.00163
1.00334
1.00687
1.01414
1.02923
1.06093
1.12923
1.28434
1.69522
3.01289
2.66884
2.73359
2.77535
2.78272
2.79503
2.7927
2.73181
2.75391
2.92318
3.05659
2.89029
1
1
1
1
1
1
1
1
1
1
1
1.00001
1.00001
1.00002
1.00004
1.00009
1.00019
1.00039
1.00079
1.00163
1.00335
1.00688
1.01416
1.02928
1.06103
1.12945
1.28477
1.69764
3.00273
2.67656
2.73709
2.77514
2.77909
2.7711
2.76311
2.74038
2.77013
2.88352
2.97672
2.86899
1
1
1
1
1
1
1
1
1
1
1
1.00001
1.00001
1.00002
1.00004
1.00009
1.00019
1.00039
1.0008
1.00163
1.00335
1.00689
1.01418
1.02932
1.06112
1.12965
1.28519
1.69988
2.99396
2.6907
2.7422
2.77542
2.77648
2.73959
2.76185
2.75997
2.75257
2.87262
2.94238
2.8648
1
1
1
1
1
1
1
1
1
1
1
1.00001
1.00001
1.00002
1.00004
1.00009
1.00019
1.00039
1.0008
1.00164
1.00336
1.0069
1.01421
1.02937
1.0612
1.12983
1.28559
1.70162
2.98692
2.70797
2.74515
2.77522
2.77229
2.73195
2.74865
2.74099
2.73462
2.85373
2.92378
2.85642
1
1
1
1
1
1
1
1
1
1
1
1.00001
1.00001
1.00002
1.00005
1.00009
1.00019
1.00039
1.0008
1.00164
1.00336
1.00691
1.01423
1.02941
1.06128
1.13
1.28596
1.70287
2.98086
2.71949
2.74799
2.77538
2.76473
2.7345
2.74032
2.73861
2.73783
2.83501
2.88656
2.84254
1
1
1
1
1
1
1
1
1
1
1
1.00001
1.00001
1.00002
1.00005
1.00009
1.00019
1.00039
1.0008
1.00164
1.00337
1.00692
1.01425
1.02945
1.06136
1.13016
1.28633
1.70376
2.97523
2.72666
2.75108
2.77673
2.75529
2.75979
2.7388
2.73326
2.75717
2.78631
2.77903
2.81933
1
1
1
1
1
1
1
1
1
1
1
1.00001
1.00001
1.00002
1.00005
1.00009
1.00019
1.00039
1.0008
1.00164
1.00337
1.00693
1.01426
1.02948
1.06144
1.13033
1.28671
1.70453
2.9699
2.73283
2.7551
2.7781
2.74735
2.76182
2.74152
2.75925
2.81467
2.76484
2.68702
2.77677
1
1
1
1
1
1
1
1
1
1
1
1.00001
1.00001
1.00002
1.00005
1.00009
1.00019
1.00039
1.0008
1.00165
1.00338
1.00694
1.01428
1.02952
1.06152
1.1305
1.28712
1.70521
2.96529
2.73933
2.75963
2.77752
2.74235
2.7291
2.74571
2.76779
2.87234
2.78697
2.65872
2.75709
1
1
1
1
1
1
1
1
1
1
1
1.00001
1.00001
1.00002
1.00005
1.00009
1.00019
1.00039
1.0008
1.00165
1.00338
1.00695
1.01431
1.02957
1.0616
1.13065
1.2875
1.70561
2.96096
2.74631
2.7633
2.77536
2.7398
2.71876
2.73372
2.75295
2.85957
2.83104
2.69242
2.79796
1
1
1
1
1
1
1
1
1
1
1
1.00001
1.00001
1.00002
1.00005
1.00009
1.00019
1.00039
1.0008
1.00164
1.00338
1.00695
1.01432
1.0296
1.06168
1.13081
1.28785
1.70573
2.95708
2.75198
2.76742
2.77275
2.73843
2.71293
2.72137
2.74628
2.87287
2.8769
2.79665
2.90136
1
1
1
1
1
1
1
1
1
1
1
1.00001
1.00001
1.00002
1.00004
1.00009
1.00019
1.00039
1.0008
1.00164
1.00337
1.00693
1.01429
1.02957
1.06167
1.13085
1.28804
1.70541
2.95363
2.75919
2.76923
2.77071
2.73579
2.7058
2.71656
2.74494
2.87612
2.98655
2.87318
2.92635
1
1
1
1
1
1
1
1
1
1
1
1.00001
1.00001
1.00002
1.00004
1.00009
1.00019
1.00039
1.00079
1.00163
1.00335
1.0069
1.01422
1.02943
1.06144
1.13052
1.28768
1.70399
2.94981
2.77221
2.77176
2.76573
2.73371
2.69878
2.71087
2.74705
2.86746
3.05475
2.92441
2.90007
1
1
1
1
1
1
1
1
1
1
1
1.00001
1.00001
1.00002
1.00004
1.00009
1.00019
1.00038
1.00079
1.00162
1.00334
1.00686
1.01414
1.02925
1.06103
1.12966
1.28606
1.69995
2.94293
2.79366
2.78391
2.75078
2.73273
2.69347
2.70332
2.74648
2.83042
3.07367
2.9614
2.85256
1
1
1
1
1
1
1
1
1
1
1
1.00001
1.00001
1.00002
1.00004
1.00009
1.00019
1.00038
1.00078
1.00161
1.00331
1.00682
1.01405
1.02906
1.0606
1.12863
1.28348
1.69181
2.92532
2.82198
2.79507
2.74088
2.73195
2.69276
2.69754
2.72673
2.78868
2.97751
3.00179
2.84707
1
1
1
1
1
1
1
1
1
1
1
1.00001
1.00001
1.00002
1.00004
1.00009
1.00018
1.00038
1.00078
1.0016
1.00329
1.00676
1.01394
1.02883
1.06013
1.12758
1.28094
1.68296
2.89718
2.81425
2.77625
2.74333
2.72655
2.6991
2.6942
2.69871
2.7454
2.86005
2.98926
2.79266
1
1
1
1
1
1
1
1
1
1
1
1
1.00001
1.00002
1.00004
1.00009
1.00018
1.00037
1.00077
1.00158
1.00325
1.00669
1.0138
1.02856
1.05956
1.12637
1.2782
1.67441
2.87453
2.80415
2.77033
2.73979
2.71127
2.70721
2.66603
2.67753
2.72424
2.78291
2.87552
2.74841
1
1
1
1
1
1
1
1
1
1
1
1
1.00001
1.00002
1.00004
1.00009
1.00018
1.00037
1.00076
1.00156
1.00321
1.00661
1.01363
1.02821
1.05885
1.12486
1.27487
1.66467
2.8535
2.80115
2.76216
2.74391
2.6887
2.67974
2.64801
2.65733
2.70733
2.73861
2.79893
2.73329
1
1
1
1
1
1
1
1
1
1
1
1
1.00001
1.00002
1.00004
1.00009
1.00018
1.00036
1.00075
1.00154
1.00316
1.00651
1.01342
1.02778
1.05795
1.12295
1.27066
1.65288
2.83202
2.79939
2.7498
2.74174
2.66095
2.66313
2.63856
2.6416
2.6659
2.72375
2.74253
2.72889
1
1
1
1
1
1
1
1
1
1
1
1
1.00001
1.00002
1.00004
1.00008
1.00017
1.00036
1.00073
1.00151
1.0031
1.00638
1.01316
1.02724
1.05682
1.12052
1.2653
1.63821
2.81098
2.79319
2.74034
2.70645
2.65381
2.64986
2.62233
2.62298
2.63988
2.71691
2.70422
2.72969
1
1
1
1
1
1
1
1
1
1
1
1
1.00001
1.00002
1.00004
1.00008
1.00017
1.00035
1.00072
1.00147
1.00302
1.00622
1.01283
1.02655
1.05539
1.11746
1.25855
1.62002
2.79014
2.78258
2.73626
2.70009
2.65565
2.6358
2.61821
2.61498
2.62344
2.66582
2.6883
2.68109
1
1
1
1
1
1
1
1
1
1
1
1
1.00001
1.00002
1.00004
1.00008
1.00016
1.00034
1.00069
1.00142
1.00292
1.00601
1.0124
1.02567
1.05354
1.11349
1.24976
1.59596
2.77049
2.7637
2.72234
2.68978
2.66539
2.62416
2.6143
2.614
2.62239
2.60985
2.66478
2.58927
1
1
1
1
1
1
1
1
1
1
1
1
1.00001
1.00002
1.00004
1.00008
1.00016
1.00032
1.00066
1.00136
1.00279
1.00575
1.01185
1.02452
1.05114
1.10834
1.2383
1.56492
2.75958
2.75312
2.72118
2.68462
2.69507
2.60945
2.59997
2.59969
2.62227
2.55791
2.5837
2.50261
1
1
1
1
1
1
1
1
1
1
1
1
1.00001
1.00002
1.00003
1.00006
1.00013
1.00027
1.00056
1.00114
1.00235
1.00482
1.00992
1.02048
1.04251
1.08919
1.19374
1.42148
2.60979
2.54264
2.55427
2.5801
2.56904
2.57888
2.57187
2.5639
2.54458
2.50828
2.50431
2.42783
1
1
1
1
1
1
1
1
1
1
1
1
1.00001
1.00001
1.00002
1.00005
1.0001
1.0002
1.0004
1.00083
1.00171
1.0035
1.0072
1.01482
1.03067
1.06395
1.13651
1.29613
1.90156
2.53297
2.63385
2.61551
2.58476
2.53923
2.51883
2.51137
2.47788
2.45367
2.41685
2.35081
1
1
1
1
1
1
1
1
1
1
1
1
1
1.00001
1.00001
1.00003
1.00006
1.00013
1.00026
1.00053
1.00108
1.00221
1.00453
1.00931
1.01918
1.03969
1.08357
1.17441
1.49939
2.35337
2.4783
2.51966
2.54318
2.52777
2.47416
2.46684
2.43434
2.39881
2.36906
2.36297
1
1
1
1
1
1
1
1
1
1
1
1
1
1.00001
1.00001
1.00002
1.00004
1.00009
1.00018
1.00038
1.00077
1.00158
1.00325
1.00668
1.01375
1.02842
1.05924
1.12513
1.2829
1.76893
2.3061
2.50912
2.51848
2.51706
2.4796
2.45497
2.43481
2.37321
2.32461
2.35597
1
1
1
1
1
1
1
1
1
1
1
1
1
1
1.00001
1.00001
1.00003
1.00005
1.00011
1.00023
1.00047
1.00096
1.00196
1.00402
1.00826
1.01698
1.03506
1.07347
1.15387
1.41405
2.17438
2.38965
2.41548
2.48338
2.47292
2.46895
2.45371
2.35061
2.29644
2.32103
1
1
1
1
1
1
1
1
1
1
1
1
1
1
1
1.00001
1.00002
1.00004
1.00007
1.00015
1.00031
1.00064
1.00131
1.00269
1.00551
1.01131
1.02331
1.04835
1.10152
1.22337
1.59208
2.19431
2.31438
2.35607
2.41357
2.42607
2.37958
2.31313
2.25228
2.26672
1
1
1
1
1
1
1
1
1
1
1
1
1
1
1
1.00001
1.00001
1.00002
1.00005
1.00009
1.00019
1.00038
1.00078
1.00159
1.00327
1.00671
1.01379
1.0284
1.0592
1.12199
1.30854
1.62195
2.22529
2.35006
2.36867
2.38087
2.36359
2.30164
2.26886
2.30981
1
1
1
1
1
1
1
1
1
1
1
1
1
1
1
1
1.00001
1.00002
1.00003
1.00007
1.00014
1.00028
1.00057
1.00117
1.0024
1.00493
1.01014
1.02092
1.04339
1.09084
1.19726
1.44519
2.16809
2.4053
2.37754
2.34998
2.32813
2.29883
2.27638
2.21257
1
1
1
1
1
1
1
1
1
1
1
1
1
1
1
1
1.00001
1.00001
1.00003
1.00006
1.00011
1.00023
1.00048
1.00099
1.00202
1.00414
1.00849
1.01747
1.03622
1.07618
1.16437
1.36977
2.0103
2.36546
2.39623
2.34714
2.31333
2.28866
2.22721
2.19563
1
1
1
1
1
1
1
1
1
1
1
1
1
1
1
1
1
1.00001
1.00002
1.00004
1.00008
1.00016
1.00032
1.00064
1.0013
1.00266
1.00546
1.01122
1.02309
1.04789
1.10214
1.22245
1.64726
2.28883
2.32521
2.24819
2.21841
2.19895
2.16457
2.20216
1
1
1
1
1
1
1
1
1
1
1
1
1
1
1
1
1
1.00001
1.00001
1.00003
1.00006
1.00012
1.00023
1.00047
1.00094
1.00188
1.0038
1.00776
1.01604
1.03347
1.07074
1.15163
1.36547
1.91003
2.1374
2.14518
2.11302
2.09649
2.10244
2.14392
1
1
1
1
1
1
1
1
1
1
1
1
1
1
1
1
1
1
1.00001
1.00002
1.00005
1.0001
1.0002
1.00041
1.00083
1.00167
1.00335
1.00667
1.01304
1.02612
1.05363
1.11346
1.28249
1.67477
2.00399
2.02446
2.06392
2.10101
2.13288
2.15895
1
1
1
1
1
1
1
1
1
1
1
1
1
1
1
1
1
1
1
1.00001
1.00001
1.00003
1.00006
1.00013
1.00029
1.00063
1.00138
1.00305
1.00668
1.01439
1.03054
1.0689
1.13436
1.26269
1.46484
2.07893
2.05305
2.07989
2.1672
2.21807
1
1
1
1
1
1
1
1
1
1
1
1
1
1
1
1
1
1
1
1
1.00001
1.00001
1.00002
1.00004
1.00009
1.00019
1.0004
1.00085
1.00176
1.00364
1.00747
1.01531
1.03135
1.06555
1.14024
1.3239
1.77288
2.12254
2.12682
2.11662
1
1
1
1
1
1
1
1
1
1
1
1
1
1
1
1
1
1
1
1
1
1.00001
1.00001
1.00003
1.00006
1.00012
1.00024
1.0005
1.00109
1.00235
1.00509
1.0109
1.02311
1.04882
1.10426
1.23339
1.64765
2.05416
1.99083
1.86133
1
1
1
1
1
1
1
1
1
1
1
1
1
1
1
1
1
1
1
1
1
1.00001
1.00001
1.00002
1.00005
1.0001
1.00019
1.00037
1.00074
1.0014
1.00283
1.00578
1.01214
1.02566
1.05301
1.13144
1.26209
1.46319
1.70791
1.70654
1
1
1
1
1
1
1
1
1
1
1
1
1
1
1
1
1
1
1
1
1
1
1
1
1.00001
1.00002
1.00004
1.00009
1.00019
1.00038
1.00076
1.00153
1.00311
1.0065
1.0139
1.03055
1.06221
1.13459
1.26906
1.71945
1
1
1
1
1
1
1
1
1
1
1
1
1
1
1
1
1
1
1
1
1
1
1
1
1
1
1.00001
1.00002
1.00003
1.00007
1.00014
1.00027
1.00054
1.00109
1.002
1.00411
1.00745
1.017
1.03048
1.07502
1
1
1
1
1
1
1
1
1
1
1
1
1
1
1
1
1
1
1
1
1
1
1
1
1
1
1
1.00001
1.00002
1.00004
1.00008
1.00016
1.00032
1.00065
1.00132
1.0027
1.00552
1.01133
1.02303
1.04905
1
1
1
1
1
1
1
1
1
1
1
1
1
1
1
1
1
1
1
1
1
1
1
1
1
1
1
1.00001
1.00002
1.00003
1.00006
1.00013
1.00026
1.00053
1.00108
1.00222
1.00458
1.00929
1.0206
1.03825
1
1
1
1
1
1
1
1
1
1
1
1
1
1
1
1
1
1
1
1
1
1
1
1
1
1
1
1
1.00001
1.00002
1.00004
1.00008
1.00017
1.00035
1.00071
1.00142
1.00292
1.00562
1.01343
1.02202
1
1
1
1
1
1
1
1
1
1
1
1
1
1
1
1
1
1
1
1
1
1
1
1
1
1
1
1
1.00001
1.00002
1.00003
1.00006
1.00013
1.00027
1.00056
1.00115
1.00236
1.0048
1.01028
1.0198
1
1
1
1
1
1
1
1
1
1
1
1
1
1
1
1
1
1
1
1
1
1
1
1
1
1
1
1
1.00001
1.00001
1.00003
1.00005
1.00011
1.00023
1.00048
1.00098
1.00203
1.00416
1.00888
1.01717
1
1
1
1
1
1
1
1
1
1
1
1
1
1
1
1
1
1
1
1
1
1
1
1
1
1
1
1
1
1.00001
1.00002
1.00004
1.00008
1.00016
1.00032
1.00066
1.00136
1.00274
1.00604
1.01133
1
1
1
1
1
1
1
1
1
1
1
1
1
1
1
1
1
1
1
1
1
1
1
1
1
1
1
1
1
1.00001
1.00002
1.00003
1.00006
1.00013
1.00026
1.00054
1.00113
1.00229
1.00518
1.00944
1
1
1
1
1
1
1
1
1
1
1
1
1
1
1
1
1
1
1
1
1
1
1
1
1
1
1
1
1
1.00001
1.00001
1.00003
1.00006
1.00011
1.00023
1.00047
1.00098
1.00197
1.00441
1.00807
1
1
1
1
1
1
1
1
1
1
1
1
1
1
1
1
1
1
1
1
1
1
1
1
1
1
1
1
1
1.00001
1.00001
1.00002
1.00004
1.00009
1.00018
1.00035
1.00073
1.00143
1.00316
1.0055
1
1
1
1
1
1
1
1
1
1
1
1
1
1
1
1
1
1
1
1
1
1
1
1
1
1
1
1
1
1
1.00001
1.00002
1.00003
1.00007
1.00014
1.00028
1.00057
1.00116
1.00252
1.00476
1
1
1
1
1
1
1
1
1
1
1
1
1
1
1
1
1
1
1
1
1
1
1
1
1
1
1
1
1
1
1
1.00001
1.00001
1.00003
1.00006
1.00013
1.00027
1.00054
1.00125
1.00219
1
1
1
1
1
1
1
1
1
1
1
1
1
1
1
1
1
1
1
1
1
1
1
1
1
1
1
1
1
1
1
1
1.00001
1.00002
1.00005
1.0001
1.00022
1.00044
1.001
1.00187
1
1
1
1
1
1
1
1
1
1
1
1
1
1
1
1
1
1
1
1
1
1
1
1
1
1
1
1
1
1
1
1
1.00001
1.00002
1.00003
1.00006
1.00014
1.00026
1.00061
1.00103
1
1
1
1
1
1
1
1
1
1
1
1
1
1
1
1
1
1
1
1
1
1
1
1
1
1
1
1
1
1
1
1
1.00001
1.00002
1.00003
1.00006
1.00013
1.00026
1.00061
1.001
1
1
1
1
1
1
1
1
1
1
1
1
1
1
1
1
1
1
1
1
1
1
1
1
1
1
1
1
1
1
1
1
1.00001
1.00001
1.00003
1.00006
1.00013
1.00024
1.0006
1.00086
1
1
1
1
1
1
1
1
1
1
1
1
1
1
1
1
1
1
1
1
1
1
1
1
1
1
1
1
1
1
1
1
1.00001
1.00001
1.00003
1.00006
1.00012
1.00023
1.00056
1.00089
1
1
1
1
1
1
1
1
1
1
1
1
1
1
1
1
1
1
1
1
1
1
1
1
1
1
1
1
1
1
1
1
1.00001
1.00001
1.00003
1.00006
1.00012
1.00023
1.00059
1.00087
1
1
1
1
1
1
1
1
1
1
1
1
1
1
1
1
1
1
1
1
1
1
1
1
1
1
1
1
1
1
1
1
1.00001
1.00001
1.00002
1.00005
1.00011
1.0002
1.00051
1.00076
1
1
1
1
1
1
1
1
1
1
1
1
1
1
1
1
1
1
1
1
1
1
1
1
1
1
1
1
1
1
1
1
1.00001
1.00001
1.00002
1.00004
1.0001
1.00018
1.00043
1.00071
1
1
1
1
1
1
1
1
1
1
1
1
1
1
1
1
1
1
1
1
1
1
1
1
1
1
1
1
1
1
1
1
1.00001
1.00001
1.00002
1.00005
1.0001
1.00019
1.00043
1.00073
1
1
1
1
1
1
1
1
1
1
1
1
1
1
1
1
1
1
1
1
1
1
1
1
1
1
1
1
1
1
1
1
1.00001
1.00001
1.00003
1.00005
1.00011
1.00021
1.00054
1.00076
1
1
1
1
1
1
1
1
1
1
1
1
1
1
1
1
1
1
1
1
1
1
1
1
1
1
1
1
1
1
1
1
1.00001
1.00001
1.00003
1.00006
1.00013
1.00024
1.00063
1.00088
2.31923
2.22027
2.06062
2.00106
1.91671
1.9512
2.33405
2.34789
2.3278
2.42221
2.56011
2.62324
2.59755
2.52314
2.54066
2.52882
2.53105
2.6104
2.61289
2.58162
2.56583
2.57456
2.55112
2.47953
2.48745
2.42917
2.42294
2.42677
2.423
2.4585
2.47824
2.68742
2.64
2.6248
2.82759
2.80319
2.70094
2.73013
2.69893
2.55796
2.26206
2.14448
2.07306
2.19053
2.30988
2.25235
2.43097
2.35408
2.17568
2.18337
2.32651
2.43533
2.54189
2.49549
2.49247
2.57519
2.60609
2.59432
2.60025
2.56687
2.53301
2.53261
2.47595
2.46154
2.42644
2.37537
2.41976
2.44321
2.38497
2.40582
2.51457
2.50826
2.41695
2.46516
2.46424
2.59847
2.58429
2.62865
2.59549
2.51283
2.2382
2.14312
2.12458
2.12516
2.14059
2.23808
2.4053
2.35998
2.13658
2.12923
2.32316
2.45387
2.47089
2.49614
2.50491
2.53702
2.55273
2.54572
2.52582
2.48716
2.44268
2.43711
2.43469
2.38846
2.38083
2.3507
2.27378
2.2438
2.24799
2.28723
2.29581
2.40594
2.31908
2.54828
2.67027
2.56157
2.50341
2.65658
2.72217
2.86984
2.21547
2.16352
2.11731
2.03391
2.06736
2.18929
2.21669
2.10167
1.96871
1.99794
2.27163
2.39617
2.4186
2.43784
2.45483
2.49763
2.48933
2.46087
2.472
2.39784
2.36744
2.37278
2.39448
2.36738
2.34891
2.30488
2.27423
2.34225
2.28678
2.33176
2.35168
2.36912
2.32804
2.38562
2.49843
2.48158
2.7262
2.63173
2.47346
2.64357
2.22011
2.15612
2.02397
1.95832
2.02449
2.10135
2.05183
1.87964
1.82028
1.93642
2.24398
2.39743
2.42703
2.40343
2.41121
2.42229
2.42352
2.44845
2.43464
2.36905
2.37981
2.33764
2.33955
2.3538
2.37906
2.38928
2.30834
2.35078
2.36792
2.33146
2.26597
2.28913
2.29565
2.39871
2.5258
2.46993
2.50547
2.40069
2.44955
2.51141
2.22444
2.11968
1.97168
1.94017
2.00663
2.0384
2.01623
1.88013
1.80643
1.84337
2.09006
2.33564
2.3799
2.36324
2.32187
2.32015
2.36114
2.38324
2.39709
2.34544
2.31194
2.29854
2.29568
2.23129
2.31808
2.33607
2.32121
2.34072
2.2832
2.26642
2.35724
2.38181
2.31132
2.40072
2.38682
2.41896
2.42646
2.44062
2.48558
2.43303
2.21667
2.1016
1.94926
1.93197
2.00198
2.03055
2.02632
1.89425
1.804
1.80217
1.95716
2.20848
2.28043
2.27862
2.30214
2.29231
2.30363
2.3292
2.34017
2.29949
2.31855
2.29805
2.20352
2.20655
2.23062
2.19412
2.24685
2.277
2.25744
2.2793
2.29524
2.39968
2.50431
2.40131
2.36534
2.35687
2.46078
2.50498
2.3827
2.38126
2.20765
2.08459
1.95272
1.9454
2.008
2.04851
2.00645
1.86091
1.7912
1.79335
1.94289
2.16427
2.26483
2.29381
2.27199
2.25517
2.24718
2.25362
2.25747
2.29913
2.25141
2.23723
2.23118
2.2027
2.17895
2.12318
2.12691
2.19262
2.20044
2.20709
2.25534
2.31742
2.55118
2.47847
2.41308
2.40529
2.47149
2.44053
2.31943
2.33663
2.21661
2.07166
1.97755
1.98156
2.02681
2.05725
1.98547
1.84343
1.78507
1.79207
1.86806
2.06261
2.19889
2.22391
2.22182
2.21809
2.22488
2.22837
2.22475
2.25516
2.2127
2.23349
2.23634
2.20182
2.16365
2.09544
2.1029
2.09707
2.13617
2.16569
2.19931
2.2648
2.41226
2.67906
2.47162
2.42155
2.43716
2.4622
2.44447
2.44651
2.21637
2.05303
1.99541
2.0089
2.05988
2.05126
1.9504
1.83536
1.81947
1.84089
1.89681
2.00252
2.11684
2.168
2.17629
2.18327
2.1803
2.18546
2.22005
2.20912
2.21863
2.22962
2.22322
2.19124
2.15864
2.12754
2.15621
2.11674
2.10036
2.11715
2.27993
2.40868
2.43602
2.43756
2.51219
2.5231
2.45375
2.34444
2.44028
2.51582
2.12155
2.03659
1.98934
2.016
2.07767
2.04361
1.95315
1.86876
1.86387
1.88206
1.88662
1.94233
2.04325
2.12034
2.17713
2.16127
2.14248
2.15235
2.14797
2.18005
2.20323
2.19946
2.1773
2.15398
2.14212
2.08902
2.08909
2.0389
1.99462
2.01961
2.15167
2.30022
2.35208
2.45803
2.39479
2.35211
2.41908
2.42935
2.35444
2.39734
2.09825
2.00807
1.96827
2.01236
2.07258
2.05238
1.96756
1.91485
1.9062
1.8904
1.89434
1.93681
2.05185
2.12999
2.14673
2.12032
2.09634
2.10607
2.13528
2.17109
2.15597
2.12271
2.13596
2.11971
2.11346
2.12241
2.21442
2.09858
2.0525
2.09878
2.14948
2.20725
2.26412
2.27108
2.25107
2.19977
2.1864
2.2689
2.42332
2.33662
2.09129
1.98148
1.94274
2.00048
2.03168
2.05042
1.99148
1.95768
1.92359
1.90712
1.9111
1.941
2.02368
2.0803
2.08848
2.08938
2.08911
2.09599
2.1103
2.14713
2.12394
2.09574
2.15877
2.14488
2.13065
2.13421
2.12658
2.11182
2.08961
2.10905
2.07489
2.05461
2.04592
2.20132
2.13605
2.08696
2.09367
2.0987
2.16688
2.33805
1.99217
1.9307
1.91569
1.97078
2.00245
2.01555
2.00315
1.97062
1.93823
1.91501
1.90206
1.89932
1.96396
2.03127
2.07946
2.09846
2.08054
2.0778
2.07498
2.09787
2.12126
2.10942
2.06448
2.0705
2.1333
2.06929
2.08743
2.0568
2.10286
2.09259
2.05943
2.07502
2.07574
2.15802
2.10798
2.06875
2.07397
2.11703
2.10072
2.35018
1.87018
1.87814
1.91411
1.94208
1.97411
1.99769
1.98931
1.94025
1.91494
1.89782
1.85414
1.85007
1.92913
2.02985
2.0804
2.07586
2.07013
2.08122
2.06242
2.06265
2.07151
2.12919
2.0729
2.09717
2.08862
2.0644
2.11103
2.07764
2.08542
2.21195
2.11197
2.04358
2.06469
2.11816
2.08344
1.95804
1.93793
2.11584
2.07322
2.16118
1.83278
1.83907
1.87901
1.93989
1.94288
1.98011
1.97373
1.94225
1.9005
1.88121
1.91028
1.86401
1.86676
1.93261
1.9945
2.05839
2.08134
2.06051
2.04854
2.03079
2.07078
2.0708
2.05155
2.01519
2.0492
2.05816
2.08794
2.07149
2.11759
2.19201
2.23627
2.08066
2.06845
2.15717
2.17138
2.07174
1.96842
1.97601
1.96136
2.11018
1.75608
1.78257
1.84924
1.88245
1.90764
1.97043
1.9392
1.93321
1.9256
1.90918
1.87882
1.93191
1.88255
1.86954
1.92855
2.02848
2.04819
2.05094
2.03809
2.03342
2.05522
2.03366
2.01672
1.99965
2.05119
2.04556
2.05968
1.96242
1.95589
2.03593
2.16406
2.13824
2.10936
2.10035
2.05952
2.01618
2.09127
1.97368
1.97417
2.15365
1.41636
1.75979
1.78165
1.77485
1.84043
1.88152
1.90407
1.92905
1.96503
1.9039
1.86214
1.92278
1.88554
1.85499
1.9135
1.97013
2.00117
2.03507
2.01237
2.01133
2.11131
2.05322
1.97253
1.99902
2.02547
1.98084
1.97371
1.91963
1.92848
1.98292
2.20722
2.09063
2.08442
2.18135
2.1078
2.00378
1.99401
2.14396
2.13693
2.12555
1.37595
1.76447
1.73915
1.73886
1.79821
1.8444
1.87159
1.86516
1.85335
1.86634
1.91993
1.89385
1.88498
1.91798
1.94783
1.92134
1.92584
1.98334
2.05692
2.04285
2.10155
2.0073
1.94615
2.02672
2.01611
1.93762
1.95531
1.97331
2.03864
2.09015
2.08445
2.05212
2.06254
2.09138
2.10015
2.06016
2.04688
2.10893
2.04442
1.9932
1.3668
1.64573
1.6862
1.72333
1.78458
1.81132
1.76342
1.70976
1.74101
1.87442
1.90642
1.91329
1.94157
2.00729
1.9248
1.88652
1.90599
1.97149
2.07262
2.0599
2.10161
1.9887
1.95197
2.0295
1.9988
1.94257
1.94151
1.93219
1.99547
1.99263
1.98795
1.96043
2.01772
2.07063
2.11976
2.10363
1.98696
1.99174
1.97586
2.05061
1.2249
1.34276
1.62046
1.69037
1.73501
1.69659
1.62079
1.59202
1.69305
1.84613
1.92484
1.96853
2.00924
2.00964
1.88656
1.90077
1.94535
1.97133
2.02097
2.04699
2.03998
1.9993
1.9917
1.99203
2.02802
1.98203
1.92221
1.89676
1.89655
1.93581
1.93714
1.933
1.91375
1.93159
2.05357
2.01409
2.02206
1.92906
1.93989
2.04649
1.11716
1.35943
1.67941
1.6844
1.6694
1.60005
1.56247
1.57917
1.6766
1.84835
1.98212
2.05634
2.0905
1.94276
1.90908
1.92934
1.90358
1.90824
2.00666
1.99899
1.98924
2.0436
2.04599
1.99478
2.00898
1.97879
1.89977
1.83119
1.8237
1.89566
1.92033
1.94678
1.86921
1.86639
1.934
1.94366
1.94748
1.95507
1.95453
1.96901
1.095
1.36395
1.62655
1.62434
1.59066
1.54914
1.54309
1.57023
1.65701
1.87195
2.05675
2.11357
2.01382
1.95442
1.92482
1.86842
1.84091
1.92881
1.9117
1.92789
1.97301
2.09555
2.041
1.96426
1.9869
1.93567
1.87874
1.86028
1.82439
1.84502
1.94882
2.01511
1.8428
1.83291
1.84708
1.86676
1.90087
1.93897
1.9397
1.96779
1.06557
1.25359
1.37641
1.56503
1.56172
1.54737
1.55878
1.58132
1.71091
1.93599
2.03728
2.02959
2.0111
1.96792
1.85326
1.80798
1.86645
1.81874
1.84703
1.93499
2.09107
2.10293
1.95438
1.99317
2.00008
1.91361
1.87894
1.78607
1.77024
1.77975
1.91168
1.97451
1.85602
1.85101
1.85306
1.8627
1.86238
1.93898
1.99488
1.91374
1.05975
1.15532
1.35075
1.56277
1.56271
1.56141
1.57047
1.6258
1.79443
1.95899
2.00402
2.03845
2.01288
1.88395
1.83031
1.81129
1.76282
1.81358
1.93177
2.02205
2.05379
1.98965
2.03228
1.97225
1.94389
1.89413
1.8195
1.80918
1.93474
1.97447
1.92973
1.86866
1.87256
1.90147
1.97651
1.95718
1.9412
1.85274
1.85735
1.89829
1.04907
1.12397
1.34677
1.51498
1.52472
1.53699
1.5873
1.7209
1.85098
1.93566
1.97436
1.9629
1.87342
1.82363
1.80804
1.7475
1.78494
1.87184
1.96
1.98679
1.92228
2.01421
1.95677
1.89594
1.93372
1.82361
1.77976
1.8169
1.96274
1.91301
1.76707
1.75446
1.79291
1.83041
1.84782
1.78345
1.79261
1.81452
1.8437
1.88609
1.03351
1.0814
1.21892
1.31739
1.4899
1.51816
1.6074
1.73651
1.82364
1.86127
1.84842
1.80345
1.76976
1.7736
1.7607
1.81072
1.87987
1.8991
1.8813
1.89063
1.97031
1.92495
1.85046
1.89966
1.83937
1.7441
1.72662
1.74926
1.93145
1.94554
1.81164
1.81325
1.81097
1.79061
1.79823
1.77403
1.73721
1.73268
1.78093
1.95338
1.02485
1.06409
1.16127
1.34676
1.48479
1.51967
1.58848
1.67933
1.71663
1.71503
1.70927
1.70511
1.71579
1.73106
1.78052
1.82903
1.84664
1.84583
1.86239
1.88564
1.91796
1.86105
1.85604
1.81505
1.74349
1.75493
1.8115
1.88261
1.91834
1.82399
1.79418
1.78241
1.76533
1.74079
1.73267
1.75505
1.7742
1.7496
1.86391
1.87418
1.01355
1.03547
1.07943
1.23003
1.30017
1.53977
1.51494
1.56079
1.6321
1.66468
1.67788
1.69995
1.73333
1.76573
1.80379
1.81413
1.85247
1.83009
1.81238
1.86576
1.8314
1.7816
1.75879
1.79518
1.88344
1.82773
1.74524
1.79766
1.81254
1.72437
1.75262
1.73767
1.71095
1.74199
1.79222
1.70135
1.74065
1.77025
1.79451
1.86506
1.00966
1.03266
1.06675
1.17045
1.27124
1.47384
1.44063
1.51161
1.6497
1.68135
1.70692
1.73096
1.75669
1.78049
1.78459
1.80516
1.80161
1.78456
1.81302
1.77036
1.73615
1.71746
1.73399
1.86167
1.74846
1.7065
1.78052
1.72622
1.68948
1.72102
1.7483
1.72738
1.71101
1.71511
1.74071
1.75006
1.68527
1.6586
1.6841
1.85411
1.00636
1.02294
1.04603
1.10161
1.21051
1.24816
1.31083
1.51226
1.62297
1.6648
1.68772
1.70433
1.71771
1.71828
1.73599
1.76382
1.76851
1.72668
1.6935
1.67514
1.65802
1.71461
1.79704
1.64272
1.62417
1.71545
1.71604
1.64942
1.67809
1.77704
1.78273
1.73867
1.70695
1.71354
1.79032
1.66598
1.64666
1.64378
1.66011
1.81767
1.0062
1.02044
1.04053
1.08295
1.18543
1.2343
1.29018
1.49513
1.64695
1.68267
1.68619
1.67524
1.66432
1.69193
1.68788
1.69846
1.70015
1.67086
1.65155
1.6629
1.75763
1.71375
1.58474
1.57632
1.66791
1.70383
1.63452
1.66619
1.79888
1.80288
1.72317
1.70642
1.6795
1.6733
1.71287
1.75841
1.58226
1.58042
1.72805
1.72388
1.0074
1.01756
1.04216
1.07608
1.17082
1.24624
1.29072
1.47724
1.65473
1.68126
1.67185
1.65208
1.64271
1.63317
1.63155
1.63067
1.67146
1.67606
1.66064
1.64116
1.61758
1.61062
1.60357
1.6444
1.72981
1.628
1.62031
1.7011
1.77935
1.73196
1.71954
1.66611
1.59642
1.58183
1.59976
1.74153
1.76117
1.61754
1.63639
1.70311
1.00608
1.01871
1.03552
1.07067
1.15843
1.24827
1.33376
1.52344
1.66432
1.67329
1.65829
1.63096
1.61933
1.61381
1.60517
1.61603
1.63361
1.58255
1.57749
1.61824
1.64057
1.63032
1.63184
1.67273
1.65996
1.63083
1.68636
1.71542
1.6412
1.63403
1.63611
1.64041
1.68335
1.6051
1.58609
1.5999
1.74966
1.65954
1.61415
1.62719
1.00722
1.01793
1.03661
1.06745
1.12758
1.20803
1.27401
1.4537
1.67197
1.69227
1.67432
1.63032
1.60867
1.59994
1.59491
1.57136
1.57173
1.59365
1.60726
1.6273
1.65606
1.63073
1.63336
1.65702
1.6399
1.62219
1.62331
1.65995
1.65812
1.62527
1.56399
1.54529
1.60193
1.6771
1.70922
1.65181
1.65077
1.60713
1.59939
1.58495
1.00579
1.02053
1.03665
1.06521
1.12414
1.19089
1.21878
1.30506
1.58994
1.66373
1.65404
1.62448
1.5936
1.56856
1.57303
1.58571
1.60866
1.64325
1.63771
1.62276
1.65023
1.61558
1.58345
1.58571
1.60586
1.56782
1.55982
1.60051
1.56376
1.56443
1.58708
1.59421
1.59216
1.57626
1.57089
1.62399
1.70848
1.59817
1.58029
1.66489
1.00451
1.01867
1.03624
1.05829
1.11152
1.17191
1.19839
1.30547
1.58198
1.64914
1.6298
1.60081
1.57171
1.55232
1.56151
1.58296
1.60863
1.63085
1.61299
1.61316
1.62856
1.57348
1.56471
1.57564
1.53792
1.55038
1.60034
1.53866
1.52169
1.58089
1.66007
1.56632
1.54919
1.59408
1.57692
1.528
1.55809
1.57023
1.57372
1.6631
1.0043
1.01832
1.03644
1.0582
1.11231
1.17094
1.1995
1.28637
1.56763
1.66655
1.65384
1.60937
1.56639
1.52877
1.52396
1.53686
1.566
1.58988
1.61589
1.60568
1.58623
1.61711
1.54472
1.51642
1.58764
1.56519
1.50563
1.51954
1.65193
1.59397
1.52162
1.57454
1.62068
1.66519
1.64665
1.58007
1.58807
1.50006
1.49553
1.55983
1.00666
1.01712
1.03162
1.05051
1.1131
1.1624
1.2586
1.43059
1.70887
1.74466
1.67934
1.60059
1.56438
1.5177
1.5172
1.52209
1.54158
1.57093
1.57851
1.61375
1.65449
1.56253
1.53524
1.52361
1.59966
1.58011
1.51175
1.51589
1.62177
1.64476
1.5187
1.5023
1.58314
1.64443
1.58143
1.60367
1.55305
1.54071
1.55388
1.54385
1.00845
1.01404
1.02288
1.04177
1.11397
1.16449
1.21384
1.36237
1.63846
1.68463
1.64447