/*--------------------------------*- C++ -*----------------------------------*\
  =========                 |
  \\      /  F ield         | OpenFOAM: The Open Source CFD Toolbox
   \\    /   O peration     | Website:  https://openfoam.org
    \\  /    A nd           | Version:  6.0
     \\/     M anipulation  |
\*---------------------------------------------------------------------------*/
FoamFile
{
    version     2.0;
    format      ascii;
    class       volVectorField;
    location    "2.5";
    object      U;
}
// * * * * * * * * * * * * * * * * * * * * * * * * * * * * * * * * * * * * * //

dimensions      [0 1 -1 0 0 0 0];

internalField   nonuniform List<vector> 
4800
(
(3 -6.90396e-14 0)
(3 -3.38511e-13 0)
(3 -8.05609e-13 0)
(3 -1.49443e-12 0)
(3 -2.30942e-12 0)
(3 -2.48411e-12 0)
(3 8.25209e-13 0)
(3 1.59274e-11 0)
(3 6.4439e-11 0)
(3 1.98739e-10 0)
(3 5.39434e-10 0)
(3 1.35304e-09 0)
(2.99999 3.20795e-09 0)
(2.99998 7.27778e-09 0)
(2.99996 1.59145e-08 0)
(2.99992 3.37019e-08 0)
(2.99984 6.93507e-08 0)
(2.99968 1.39076e-07 0)
(2.99934 2.72684e-07 0)
(2.99863 5.25033e-07 0)
(2.99719 9.99311e-07 0)
(2.99422 1.89877e-06 0)
(2.98807 3.65068e-06 0)
(2.97524 7.21684e-06 0)
(2.94805 1.48874e-05 0)
(2.88837 3.23402e-05 0)
(2.74635 7.4481e-05 0)
(2.32953 0.000188254 0)
(0.398197 0.000710021 0)
(-0.992448 0.00345722 0)
(-0.696116 0.00647572 0)
(-0.39131 0.0113837 0)
(-0.170683 0.0230882 0)
(0.0438838 0.0360121 0)
(0.225332 -0.135773 0)
(-1.31203 -0.448396 0)
(-2.15319 0.0124609 0)
(-2.19169 -0.0427881 0)
(-2.33826 -0.23176 0)
(-2.27002 -0.281799 0)
(3 -1.56279e-13 0)
(3 -7.58725e-13 0)
(3 -1.77218e-12 0)
(3 -3.1884e-12 0)
(3 -4.59469e-12 0)
(3 -3.59652e-12 0)
(3 8.20975e-12 0)
(3 5.49417e-11 0)
(3 1.98987e-10 0)
(3 5.9154e-10 0)
(3 1.58199e-09 0)
(3 3.94736e-09 0)
(2.99999 9.35993e-09 0)
(2.99998 2.13157e-08 0)
(2.99996 4.69349e-08 0)
(2.99992 1.00381e-07 0)
(2.99984 2.09256e-07 0)
(2.99968 4.26471e-07 0)
(2.99934 8.52427e-07 0)
(2.99863 1.67756e-06 0)
(2.99719 3.26783e-06 0)
(2.99422 6.34727e-06 0)
(2.98807 1.24121e-05 0)
(2.97524 2.47163e-05 0)
(2.94806 5.06961e-05 0)
(2.88839 0.000108147 0)
(2.74641 0.000242813 0)
(2.32978 0.000599167 0)
(0.401119 0.00220178 0)
(-0.990318 0.0108992 0)
(-0.692961 0.0201634 0)
(-0.384482 0.035715 0)
(-0.156558 0.0701798 0)
(0.0242879 0.126302 0)
(0.229395 0.0547911 0)
(-1.45031 -0.196514 0)
(-2.18989 0.0568179 0)
(-2.15968 -0.00294192 0)
(-2.01566 -0.176519 0)
(-1.70495 -0.234903 0)
(3 -1.41596e-13 0)
(3 -6.66221e-13 0)
(3 -1.46385e-12 0)
(3 -2.34802e-12 0)
(3 -2.38016e-12 0)
(3 2.50192e-12 0)
(3 2.55391e-11 0)
(3 1.03834e-10 0)
(3 3.32914e-10 0)
(3 9.45537e-10 0)
(3 2.48597e-09 0)
(3 6.18484e-09 0)
(2.99999 1.47461e-08 0)
(2.99998 3.39637e-08 0)
(2.99996 7.59832e-08 0)
(2.99992 1.65778e-07 0)
(2.99984 3.53859e-07 0)
(2.99968 7.41048e-07 0)
(2.99934 1.5267e-06 0)
(2.99864 3.10322e-06 0)
(2.99719 6.24422e-06 0)
(2.99422 1.24887e-05 0)
(2.98807 2.49526e-05 0)
(2.97525 5.01125e-05 0)
(2.94808 0.000101914 0)
(2.88843 0.000211858 0)
(2.74653 0.000457723 0)
(2.33027 0.00108265 0)
(0.406915 0.00374901 0)
(-0.98543 0.01814 0)
(-0.688491 0.03337 0)
(-0.374685 0.0600721 0)
(-0.137367 0.116334 0)
(0.0532687 0.200449 0)
(0.20994 0.302951 0)
(-1.23905 -0.0314733 0)
(-2.22105 0.20549 0)
(-2.20749 0.110666 0)
(-1.74456 -0.127777 0)
(-1.20578 -0.257943 0)
(3 -4.91527e-14 0)
(3 -1.95691e-13 0)
(3 -2.72085e-13 0)
(3 1.12197e-13 0)
(3 2.39948e-12 0)
(3 1.18809e-11 0)
(3 4.48816e-11 0)
(3 1.46443e-10 0)
(3 4.32893e-10 0)
(3 1.1918e-09 0)
(3 3.11058e-09 0)
(3 7.78707e-09 0)
(2.99999 1.88446e-08 0)
(2.99998 4.43198e-08 0)
(2.99996 1.01681e-07 0)
(2.99992 2.28197e-07 0)
(2.99984 5.02065e-07 0)
(2.99968 1.08491e-06 0)
(2.99934 2.30652e-06 0)
(2.99864 4.83302e-06 0)
(2.9972 1.00005e-05 0)
(2.99423 2.04812e-05 0)
(2.98808 4.16315e-05 0)
(2.97527 8.42868e-05 0)
(2.94811 0.000170803 0)
(2.88851 0.000349173 0)
(2.74672 0.000732696 0)
(2.33097 0.00166752 0)
(0.413921 0.00540115 0)
(-0.978338 0.0242894 0)
(-0.682096 0.0437756 0)
(-0.362449 0.0758747 0)
(-0.11522 0.139502 0)
(0.128119 0.210098 0)
(0.274257 0.318268 0)
(-0.564095 0.207449 0)
(-2.14214 0.307701 0)
(-2.02589 0.190262 0)
(-1.56328 0.0121989 0)
(-0.900565 -0.338976 0)
(3 4.96079e-14 0)
(3 2.76724e-13 0)
(3 8.11617e-13 0)
(3 2.14422e-12 0)
(3 6.05236e-12 0)
(3 1.85872e-11 0)
(3 5.77352e-11 0)
(3 1.7245e-10 0)
(3 4.89275e-10 0)
(3 1.32441e-09 0)
(3 3.44757e-09 0)
(3 8.69063e-09 0)
(2.99999 2.13253e-08 0)
(2.99998 5.11236e-08 0)
(2.99996 1.20035e-07 0)
(2.99992 2.76501e-07 0)
(2.99984 6.25609e-07 0)
(2.99968 1.39162e-06 0)
(2.99934 3.04566e-06 0)
(2.99864 6.56321e-06 0)
(2.9972 1.39378e-05 0)
(2.99423 2.92002e-05 0)
(2.98809 6.04378e-05 0)
(2.97529 0.00012384 0)
(2.94817 0.000252066 0)
(2.88863 0.000513007 0)
(2.747 0.00106183 0)
(2.33192 0.00236459 0)
(0.421341 0.00735234 0)
(-0.969438 0.0307183 0)
(-0.674844 0.0534049 0)
(-0.35022 0.0865628 0)
(-0.102691 0.141842 0)
(0.117187 0.204033 0)
(0.0997326 0.0220168 0)
(-0.913192 -0.00695072 0)
(-2.01401 0.370581 0)
(-1.20713 0.174955 0)
(-1.09783 0.0474704 0)
(-0.663331 -0.337051 0)
(3 8.92769e-14 0)
(3 4.06743e-13 0)
(3 8.76285e-13 0)
(3 1.85562e-12 0)
(3 5.14029e-12 0)
(3 1.70615e-11 0)
(3 5.63905e-11 0)
(3 1.73994e-10 0)
(3 5.01144e-10 0)
(3 1.36637e-09 0)
(3 3.5734e-09 0)
(3 9.0517e-09 0)
(2.99999 2.23561e-08 0)
(2.99998 5.40736e-08 0)
(2.99996 1.2845e-07 0)
(2.99992 3.00217e-07 0)
(2.99984 6.9116e-07 0)
(2.99968 1.56835e-06 0)
(2.99934 3.50892e-06 0)
(2.99864 7.74152e-06 0)
(2.9972 1.68432e-05 0)
(2.99424 3.61412e-05 0)
(2.98811 7.65036e-05 0)
(2.97533 0.000159876 0)
(2.94825 0.000330472 0)
(2.8888 0.000679139 0)
(2.7474 0.00141031 0)
(2.33319 0.00313381 0)
(0.429895 0.00968142 0)
(-0.958375 0.038728 0)
(-0.666585 0.0647034 0)
(-0.339734 0.100287 0)
(-0.0865809 0.147462 0)
(0.114185 0.236104 0)
(0.232378 0.211041 0)
(-0.340712 0.026517 0)
(-1.60243 0.426919 0)
(-0.803443 0.300354 0)
(-0.352764 0.0138837 0)
(-0.496047 -0.249326 0)
(3 4.45824e-14 0)
(3 5.051e-14 0)
(3 -5.01304e-13 0)
(3 -1.79242e-12 0)
(3 -2.71284e-12 0)
(3 2.07142e-12 0)
(3 2.97674e-11 0)
(3 1.28708e-10 0)
(3 4.25859e-10 0)
(3 1.24192e-09 0)
(3 3.36564e-09 0)
(3 8.69825e-09 0)
(2.99999 2.17476e-08 0)
(2.99998 5.30529e-08 0)
(2.99996 1.26946e-07 0)
(2.99992 2.98948e-07 0)
(2.99984 6.94336e-07 0)
(2.99968 1.59261e-06 0)
(2.99934 3.61022e-06 0)
(2.99864 8.09059e-06 0)
(2.99721 1.79247e-05 0)
(2.99425 3.92513e-05 0)
(2.98814 8.49284e-05 0)
(2.97538 0.000181538 0)
(2.94835 0.000383594 0)
(2.88902 0.000804128 0)
(2.74794 0.00169809 0)
(2.33497 0.00382649 0)
(0.441514 0.0120587 0)
(-0.944626 0.0480285 0)
(-0.657336 0.077636 0)
(-0.329894 0.115603 0)
(-0.0711988 0.163217 0)
(0.124566 0.257264 0)
(0.285578 0.298723 0)
(0.118142 0.0951339 0)
(-0.73346 0.484602 0)
(-0.140903 0.35681 0)
(-0.032848 -0.0184086 0)
(-0.301642 -0.16744 0)
(3 -8.57824e-14 0)
(3 -8.0833e-13 0)
(3 -3.40059e-12 0)
(3 -9.08631e-12 0)
(3 -1.84821e-11 0)
(3 -2.93955e-11 0)
(3 -3.04947e-11 0)
(3 1.54043e-11 0)
(3 2.13597e-10 0)
(3 8.41267e-10 0)
(3 2.59684e-09 0)
(3 7.18919e-09 0)
(2.99999 1.87121e-08 0)
(2.99998 4.68163e-08 0)
(2.99996 1.13961e-07 0)
(2.99992 2.71848e-07 0)
(2.99984 6.38334e-07 0)
(2.99968 1.47961e-06 0)
(2.99934 3.39132e-06 0)
(2.99864 7.69381e-06 0)
(2.99721 1.72843e-05 0)
(2.99426 3.84512e-05 0)
(2.98816 8.46833e-05 0)
(2.97544 0.000184565 0)
(2.94847 0.000398119 0)
(2.8893 0.000852315 0)
(2.74861 0.0018381 0)
(2.33727 0.00423045 0)
(0.457582 0.0137781 0)
(-0.928042 0.0572025 0)
(-0.6479 0.0899733 0)
(-0.320871 0.128472 0)
(-0.0584017 0.180591 0)
(0.136774 0.268334 0)
(0.292749 0.326182 0)
(0.308227 0.226396 0)
(0.100388 0.424958 0)
(0.302953 0.239206 0)
(-0.00914795 0.0180907 0)
(-0.233119 -0.0825569 0)
(3 -3.17918e-13 0)
(3 -2.24445e-12 0)
(3 -7.98739e-12 0)
(3 -2.03498e-11 0)
(3 -4.29107e-11 0)
(3 -7.92814e-11 0)
(3 -1.29497e-10 0)
(3 -1.78611e-10 0)
(3 -1.65113e-10 0)
(3 1.00636e-10 0)
(3 1.13826e-09 0)
(3 4.28304e-09 0)
(2.99999 1.28329e-08 0)
(2.99998 3.47215e-08 0)
(2.99996 8.86872e-08 0)
(2.99992 2.18403e-07 0)
(2.99984 5.24617e-07 0)
(2.99968 1.23779e-06 0)
(2.99934 2.88097e-06 0)
(2.99865 6.63222e-06 0)
(2.99722 1.51231e-05 0)
(2.99428 3.4179e-05 0)
(2.98819 7.65665e-05 0)
(2.97549 0.000169962 0)
(2.94859 0.000373837 0)
(2.88958 0.000816785 0)
(2.74935 0.00179978 0)
(2.33994 0.004237 0)
(0.478421 0.0143194 0)
(-0.909022 0.0650075 0)
(-0.638687 0.0999003 0)
(-0.312477 0.138284 0)
(-0.0465274 0.195452 0)
(0.149538 0.274453 0)
(0.292792 0.336894 0)
(0.379091 0.294079 0)
(0.435887 0.313016 0)
(0.402684 0.164245 0)
(-0.0430997 0.0800095 0)
(-0.158493 0.0417689 0)
(3 -6.73212e-13 0)
(3 -4.32582e-12 0)
(3 -1.43167e-11 0)
(3 -3.56081e-11 0)
(3 -7.6157e-11 0)
(3 -1.48485e-10 0)
(3 -2.70555e-10 0)
(3 -4.6312e-10 0)
(3 -7.3541e-10 0)
(3 -1.03814e-09 0)
(3 -1.1322e-09 0)
(3 -2.49843e-10 0)
(2.99999 3.74038e-09 0)
(2.99998 1.63325e-08 0)
(2.99996 5.10792e-08 0)
(2.99992 1.40489e-07 0)
(2.99984 3.61116e-07 0)
(2.99968 8.91007e-07 0)
(2.99934 2.1406e-06 0)
(2.99865 5.04952e-06 0)
(2.99722 1.17549e-05 0)
(2.99428 2.70837e-05 0)
(2.98821 6.18463e-05 0)
(2.97554 0.000140018 0)
(2.94871 0.000314304 0)
(2.88986 0.00070116 0)
(2.75009 0.00157955 0)
(2.34274 0.00380324 0)
(0.503391 0.0133556 0)
(-0.888269 0.070049 0)
(-0.629785 0.107799 0)
(-0.303862 0.146595 0)
(-0.0341794 0.208192 0)
(0.162074 0.277005 0)
(0.292473 0.336013 0)
(0.394943 0.319217 0)
(0.496893 0.268432 0)
(0.373238 0.123947 0)
(-0.0889966 0.13846 0)
(-0.0871098 0.151673 0)
(3 -1.07841e-12 0)
(3 -6.62057e-12 0)
(3 -2.11195e-11 0)
(3 -5.20962e-11 0)
(3 -1.13067e-10 0)
(3 -2.28389e-10 0)
(3 -4.40757e-10 0)
(3 -8.21683e-10 0)
(3 -1.48308e-09 0)
(3 -2.58131e-09 0)
(3 -4.28646e-09 0)
(3 -6.64283e-09 0)
(2.99999 -9.13348e-09 0)
(2.99998 -9.49451e-09 0)
(2.99996 -7.06658e-10 0)
(2.99992 3.63292e-08 0)
(2.99984 1.50175e-07 0)
(2.99968 4.5946e-07 0)
(2.99934 1.24679e-06 0)
(2.99865 3.1746e-06 0)
(2.99723 7.7785e-06 0)
(2.99429 1.85879e-05 0)
(2.98823 4.3648e-05 0)
(2.97558 0.000101127 0)
(2.9488 0.000231687 0)
(2.8901 0.000526699 0)
(2.75075 0.00120992 0)
(2.34533 0.00296437 0)
(0.53027 0.010791 0)
(-0.866436 0.0709622 0)
(-0.620732 0.113959 0)
(-0.294315 0.156801 0)
(-0.020687 0.216763 0)
(0.175131 0.278064 0)
(0.29535 0.336675 0)
(0.384004 0.32486 0)
(0.481269 0.239722 0)
(0.36666 0.0835884 0)
(-0.113353 0.205009 0)
(-0.025768 0.249362 0)
(3 -1.40144e-12 0)
(3 -8.41135e-12 0)
(3 -2.63651e-11 0)
(3 -6.50548e-11 0)
(3 -1.43296e-10 0)
(3 -2.97478e-10 0)
(3 -5.97002e-10 0)
(3 -1.17126e-09 0)
(3 -2.25508e-09 0)
(3 -4.26117e-09 0)
(3 -7.88627e-09 0)
(3 -1.42419e-08 0)
(2.99999 -2.49493e-08 0)
(2.99998 -4.19912e-08 0)
(2.99996 -6.67441e-08 0)
(2.99992 -9.67057e-08 0)
(2.99984 -1.16307e-07 0)
(2.99968 -7.32551e-08 0)
(2.99934 1.79483e-07 0)
(2.99865 1.02175e-06 0)
(2.99723 3.38837e-06 0)
(2.9943 9.50933e-06 0)
(2.98824 2.45851e-05 0)
(2.97561 6.05107e-05 0)
(2.94887 0.000144037 0)
(2.89028 0.000335173 0)
(2.75125 0.00078252 0)
(2.34737 0.00192349 0)
(0.555584 0.00721805 0)
(-0.844282 0.0686279 0)
(-0.609639 0.117457 0)
(-0.284828 0.16929 0)
(-0.00696371 0.219597 0)
(0.190189 0.281592 0)
(0.300792 0.339786 0)
(0.363535 0.331799 0)
(0.477545 0.237474 0)
(0.388492 0.118264 0)
(-0.118866 0.295791 0)
(0.0151691 0.337407 0)
(3 -1.5424e-12 0)
(3 -9.18995e-12 0)
(3 -2.86852e-11 0)
(3 -7.11529e-11 0)
(3 -1.58873e-10 0)
(3 -3.36883e-10 0)
(3 -6.95312e-10 0)
(3 -1.41161e-09 0)
(3 -2.82939e-09 0)
(3 -5.60303e-09 0)
(3 -1.0957e-08 0)
(3 -2.1136e-08 0)
(2.99999 -4.0155e-08 0)
(2.99998 -7.49715e-08 0)
(2.99996 -1.37143e-07 0)
(2.99992 -2.44721e-07 0)
(2.99984 -4.23157e-07 0)
(2.99968 -7.01418e-07 0)
(2.99934 -1.09302e-06 0)
(2.99865 -1.53652e-06 0)
(2.99723 -1.73537e-06 0)
(2.9943 -7.61701e-07 0)
(2.98824 3.86642e-06 0)
(2.97563 1.82129e-05 0)
(2.94892 5.61289e-05 0)
(2.89039 0.000147895 0)
(2.75158 0.000367979 0)
(2.34874 0.000901768 0)
(0.577523 0.00361207 0)
(-0.822449 0.0662128 0)
(-0.595585 0.119398 0)
(-0.274339 0.176993 0)
(0.00657827 0.224235 0)
(0.207385 0.290703 0)
(0.309854 0.346963 0)
(0.361736 0.345575 0)
(0.505852 0.259537 0)
(0.47142 0.190112 0)
(-0.107423 0.397465 0)
(0.0265437 0.411157 0)
(3 -1.49615e-12 0)
(3 -8.95865e-12 0)
(3 -2.81302e-11 0)
(3 -7.03221e-11 0)
(3 -1.58895e-10 0)
(3 -3.42703e-10 0)
(3 -7.2275e-10 0)
(3 -1.50458e-09 0)
(3 -3.10081e-09 0)
(3 -6.33047e-09 0)
(3 -1.28025e-08 0)
(3 -2.56442e-08 0)
(2.99999 -5.08653e-08 0)
(2.99998 -9.98614e-08 0)
(2.99996 -1.93905e-07 0)
(2.99992 -3.71949e-07 0)
(2.99984 -7.03651e-07 0)
(2.99968 -1.30986e-06 0)
(2.99934 -2.39205e-06 0)
(2.99865 -4.26801e-06 0)
(2.99723 -7.39859e-06 0)
(2.9943 -1.23609e-05 0)
(2.98824 -1.96701e-05 0)
(2.97563 -2.92997e-05 0)
(2.94893 -3.98728e-05 0)
(2.89045 -4.81801e-05 0)
(2.75177 -4.48915e-05 0)
(2.34956 -6.57773e-05 0)
(0.596861 0.000393062 0)
(-0.800813 0.0656279 0)
(-0.57977 0.122207 0)
(-0.261105 0.180092 0)
(0.0217617 0.238957 0)
(0.22634 0.309919 0)
(0.320798 0.356978 0)
(0.379603 0.359202 0)
(0.572299 0.281318 0)
(0.26625 0.3537 0)
(-0.164491 0.510612 0)
(0.010133 0.464054 0)
(3 -1.39686e-12 0)
(3 -8.41149e-12 0)
(3 -2.64498e-11 0)
(3 -6.5867e-11 0)
(3 -1.4859e-10 0)
(3 -3.21955e-10 0)
(3 -6.86832e-10 0)
(3 -1.45472e-09 0)
(3 -3.06312e-09 0)
(3 -6.40682e-09 0)
(3 -1.3298e-08 0)
(3 -2.73742e-08 0)
(2.99999 -5.58795e-08 0)
(2.99998 -1.13132e-07 0)
(2.99996 -2.27223e-07 0)
(2.99992 -4.528e-07 0)
(2.99984 -8.95154e-07 0)
(2.99968 -1.75474e-06 0)
(2.99934 -3.40769e-06 0)
(2.99865 -6.54769e-06 0)
(2.99723 -1.24286e-05 0)
(2.9943 -2.32694e-05 0)
(2.98824 -4.29259e-05 0)
(2.97562 -7.80833e-05 0)
(2.94893 -0.000140794 0)
(2.89045 -0.000255296 0)
(2.75182 -0.0004739 0)
(2.34991 -0.0010326 0)
(0.614723 -0.00262517 0)
(-0.779071 0.0662549 0)
(-0.562585 0.126474 0)
(-0.244139 0.184768 0)
(0.0408067 0.260804 0)
(0.244091 0.326306 0)
(0.330774 0.359514 0)
(0.41429 0.370362 0)
(0.631759 0.318796 0)
(0.432696 0.344962 0)
(-0.116994 0.573705 0)
(-0.0161178 0.488337 0)
(3 -1.50064e-12 0)
(3 -8.84966e-12 0)
(3 -2.69734e-11 0)
(3 -6.47582e-11 0)
(3 -1.41154e-10 0)
(3 -2.97629e-10 0)
(3 -6.2429e-10 0)
(3 -1.31518e-09 0)
(3 -2.78458e-09 0)
(3 -5.9084e-09 0)
(3 -1.2519e-08 0)
(3 -2.64079e-08 0)
(2.99999 -5.53425e-08 0)
(2.99998 -1.15094e-07 0)
(2.99996 -2.37453e-07 0)
(2.99992 -4.86096e-07 0)
(2.99984 -9.87857e-07 0)
(2.99968 -1.99392e-06 0)
(2.99934 -3.99854e-06 0)
(2.99865 -7.96686e-06 0)
(2.99722 -1.57669e-05 0)
(2.99429 -3.09811e-05 0)
(2.98823 -6.04275e-05 0)
(2.9756 -0.000117078 0)
(2.94889 -0.000226042 0)
(2.89039 -0.000438538 0)
(2.75171 -0.000866502 0)
(2.34973 -0.00193476 0)
(0.631036 -0.00547524 0)
(-0.757059 0.0673461 0)
(-0.54445 0.132078 0)
(-0.223763 0.192464 0)
(0.06091 0.272862 0)
(0.257959 0.326214 0)
(0.341448 0.361994 0)
(0.451606 0.382554 0)
(0.661022 0.35183 0)
(0.519157 0.38914 0)
(-0.0707779 0.593845 0)
(-0.0668248 0.503595 0)
(3 -1.95489e-12 0)
(3 -1.09905e-11 0)
(3 -3.16062e-11 0)
(3 -7.19299e-11 0)
(3 -1.48903e-10 0)
(3 -2.98356e-10 0)
(3 -5.96669e-10 0)
(3 -1.20835e-09 0)
(3 -2.49015e-09 0)
(3 -5.21572e-09 0)
(3 -1.10528e-08 0)
(3 -2.35615e-08 0)
(2.99999 -5.02537e-08 0)
(2.99998 -1.06802e-07 0)
(2.99996 -2.25577e-07 0)
(2.99992 -4.72869e-07 0)
(2.99984 -9.83563e-07 0)
(2.99968 -2.03072e-06 0)
(2.99934 -4.16485e-06 0)
(2.99865 -8.49162e-06 0)
(2.99722 -1.72228e-05 0)
(2.99428 -3.47647e-05 0)
(2.98821 -6.98677e-05 0)
(2.97557 -0.000139915 0)
(2.94882 -0.000279797 0)
(2.89027 -0.00056199 0)
(2.75144 -0.00114701 0)
(2.349 -0.00261653 0)
(0.645282 -0.00775952 0)
(-0.734482 0.0693088 0)
(-0.525034 0.139237 0)
(-0.203748 0.203417 0)
(0.0792804 0.276874 0)
(0.272632 0.328901 0)
(0.356264 0.378049 0)
(0.474819 0.401746 0)
(0.662411 0.371944 0)
(0.54382 0.456721 0)
(0.00312137 0.582371 0)
(-0.0847561 0.513939 0)
(3 -2.37154e-12 0)
(3 -1.2859e-11 0)
(3 -3.55495e-11 0)
(3 -7.90481e-11 0)
(3 -1.61038e-10 0)
(3 -3.1693e-10 0)
(3 -6.17888e-10 0)
(3 -1.20995e-09 0)
(3 -2.40042e-09 0)
(3 -4.84847e-09 0)
(3 -9.98184e-09 0)
(3 -2.08953e-08 0)
(2.99999 -4.42592e-08 0)
(2.99998 -9.43189e-08 0)
(2.99996 -2.01179e-07 0)
(2.99992 -4.2782e-07 0)
(2.99984 -9.0486e-07 0)
(2.99968 -1.90141e-06 0)
(2.99934 -3.96937e-06 0)
(2.99864 -8.23717e-06 0)
(2.99721 -1.70073e-05 0)
(2.99427 -3.49707e-05 0)
(2.98819 -7.1676e-05 0)
(2.97553 -0.000146588 0)
(2.94875 -0.000299708 0)
(2.89011 -0.000615557 0)
(2.75107 -0.00128408 0)
(2.34783 -0.00298693 0)
(0.657664 -0.00909795 0)
(-0.710937 0.072847 0)
(-0.503859 0.148253 0)
(-0.183345 0.21652 0)
(0.0978423 0.287006 0)
(0.289528 0.348229 0)
(0.372449 0.401675 0)
(0.476392 0.408506 0)
(0.637947 0.382359 0)
(0.538938 0.51732 0)
(0.0599554 0.562362 0)
(-0.0832564 0.531341 0)
(3 -2.0897e-12 0)
(3 -1.11614e-11 0)
(3 -3.06442e-11 0)
(3 -6.97551e-11 0)
(3 -1.48487e-10 0)
(3 -3.07114e-10 0)
(3 -6.24112e-10 0)
(3 -1.25162e-09 0)
(3 -2.48914e-09 0)
(3 -4.94237e-09 0)
(3 -9.87188e-09 0)
(3 -1.99602e-08 0)
(2.99999 -4.09851e-08 0)
(2.99998 -8.54209e-08 0)
(2.99996 -1.80072e-07 0)
(2.99992 -3.82037e-07 0)
(2.99984 -8.11738e-07 0)
(2.99968 -1.72081e-06 0)
(2.99934 -3.63129e-06 0)
(2.99864 -7.62115e-06 0)
(2.99721 -1.59116e-05 0)
(2.99426 -3.30785e-05 0)
(2.98817 -6.85605e-05 0)
(2.97549 -0.000141889 0)
(2.94866 -0.000293825 0)
(2.88993 -0.000611662 0)
(2.75063 -0.00129437 0)
(2.3464 -0.00305856 0)
(0.668919 -0.00938613 0)
(-0.685913 0.0784813 0)
(-0.480985 0.15947 0)
(-0.162301 0.231182 0)
(0.118518 0.301954 0)
(0.307931 0.373093 0)
(0.38248 0.411766 0)
(0.460434 0.403697 0)
(0.594428 0.396768 0)
(0.513259 0.553293 0)
(0.0989651 0.53997 0)
(-0.0800497 0.569125 0)
(3 -1.05426e-12 0)
(3 -5.60584e-12 0)
(3 -1.57321e-11 0)
(3 -3.90922e-11 0)
(3 -9.49553e-11 0)
(3 -2.25877e-10 0)
(3 -5.19049e-10 0)
(3 -1.14574e-09 0)
(3 -2.43599e-09 0)
(3 -5.02642e-09 0)
(3 -1.01671e-08 0)
(3 -2.03831e-08 0)
(2.99999 -4.0926e-08 0)
(2.99998 -8.29636e-08 0)
(2.99996 -1.70523e-07 0)
(2.99992 -3.55393e-07 0)
(2.99984 -7.486e-07 0)
(2.99968 -1.586e-06 0)
(2.99934 -3.36341e-06 0)
(2.99864 -7.11325e-06 0)
(2.99721 -1.49704e-05 0)
(2.99425 -3.13326e-05 0)
(2.98815 -6.52587e-05 0)
(2.97546 -0.000135475 0)
(2.94858 -0.000281079 0)
(2.88975 -0.000585965 0)
(2.75018 -0.00124284 0)
(2.34493 -0.00294811 0)
(0.680434 -0.00882211 0)
(-0.659096 0.0858064 0)
(-0.456636 0.172615 0)
(-0.14044 0.247298 0)
(0.140479 0.32051 0)
(0.32336 0.383425 0)
(0.38717 0.412728 0)
(0.441712 0.412833 0)
(0.537178 0.416954 0)
(0.459132 0.565557 0)
(0.0957971 0.541722 0)
(-0.0933152 0.637291 0)
(3 1.17478e-14 0)
(3 2.43429e-13 0)
(3 8.93672e-13 0)
(3 -7.30093e-13 0)
(3 -1.58418e-11 0)
(3 -7.57832e-11 0)
(3 -2.55646e-10 0)
(3 -7.20812e-10 0)
(3 -1.81571e-09 0)
(3 -4.23163e-09 0)
(3 -9.32974e-09 0)
(3 -1.97871e-08 0)
(2.99999 -4.09428e-08 0)
(2.99998 -8.3689e-08 0)
(2.99996 -1.70766e-07 0)
(2.99992 -3.50464e-07 0)
(2.99984 -7.26162e-07 0)
(2.99968 -1.51914e-06 0)
(2.99934 -3.20017e-06 0)
(2.99864 -6.76122e-06 0)
(2.9972 -1.42707e-05 0)
(2.99425 -3.00011e-05 0)
(2.98814 -6.27236e-05 0)
(2.97542 -0.000130421 0)
(2.94851 -0.00027023 0)
(2.88958 -0.000561008 0)
(2.74975 -0.00118469 0)
(2.34357 -0.00277558 0)
(0.693096 -0.00760143 0)
(-0.631329 0.0941471 0)
(-0.430423 0.187517 0)
(-0.116549 0.264968 0)
(0.159632 0.341072 0)
(0.336335 0.386265 0)
(0.394636 0.42276 0)
(0.423962 0.426192 0)
(0.46992 0.424981 0)
(0.3748 0.561343 0)
(0.0570026 0.574438 0)
(-0.10656 0.724818 0)
(3 4.53414e-13 0)
(3 3.06472e-12 0)
(3 1.07104e-11 0)
(3 2.72848e-11 0)
(3 5.54354e-11 0)
(3 9.05888e-11 0)
(3 1.0406e-10 0)
(3 1.78105e-12 0)
(3 -4.65961e-10 0)
(3 -1.88824e-09 0)
(3 -5.55233e-09 0)
(3 -1.41366e-08 0)
(2.99999 -3.30682e-08 0)
(2.99998 -7.32718e-08 0)
(2.99996 -1.56918e-07 0)
(2.99992 -3.2972e-07 0)
(2.99984 -6.87437e-07 0)
(2.99968 -1.4328e-06 0)
(2.99934 -2.99664e-06 0)
(2.99864 -6.29197e-06 0)
(2.9972 -1.32396e-05 0)
(2.99424 -2.7839e-05 0)
(2.98812 -5.83287e-05 0)
(2.97538 -0.000121531 0)
(2.94843 -0.000251746 0)
(2.88942 -0.000520365 0)
(2.74934 -0.00109074 0)
(2.34237 -0.00249022 0)
(0.706574 -0.00577935 0)
(-0.602886 0.104028 0)
(-0.403081 0.203641 0)
(-0.0917534 0.283857 0)
(0.177662 0.361191 0)
(0.347383 0.40119 0)
(0.400777 0.432698 0)
(0.404058 0.428828 0)
(0.400144 0.42706 0)
(0.274718 0.553094 0)
(0.0114667 0.632645 0)
(-0.109711 0.793255 0)
(3 4.7277e-13 0)
(3 3.73758e-12 0)
(3 1.4912e-11 0)
(3 4.29846e-11 0)
(3 1.0354e-10 0)
(3 2.22589e-10 0)
(3 4.37388e-10 0)
(3 7.84566e-10 0)
(3 1.25311e-09 0)
(3 1.65572e-09 0)
(3 1.3297e-09 0)
(3 -1.49575e-09 0)
(2.99999 -1.09697e-08 0)
(2.99998 -3.61272e-08 0)
(2.99996 -9.59049e-08 0)
(2.99992 -2.29464e-07 0)
(2.99984 -5.18035e-07 0)
(2.99968 -1.13188e-06 0)
(2.99933 -2.43149e-06 0)
(2.99863 -5.18409e-06 0)
(2.99719 -1.10204e-05 0)
(2.99423 -2.33802e-05 0)
(2.98811 -4.94244e-05 0)
(2.97535 -0.000103806 0)
(2.94837 -0.000215997 0)
(2.88927 -0.000445175 0)
(2.74897 -0.000921013 0)
(2.34146 -0.00202488 0)
(0.722072 -0.00356376 0)
(-0.571773 0.115212 0)
(-0.374944 0.220208 0)
(-0.0678227 0.303334 0)
(0.195526 0.379773 0)
(0.355551 0.42817 0)
(0.402082 0.443446 0)
(0.386664 0.430055 0)
(0.33402 0.446571 0)
(0.169775 0.553401 0)
(-0.0319562 0.704915 0)
(-0.109974 0.824498 0)
(3 7.6213e-13 0)
(3 5.68345e-12 0)
(3 2.16221e-11 0)
(3 6.07025e-11 0)
(3 1.47014e-10 0)
(3 3.29208e-10 0)
(3 7.01457e-10 0)
(3 1.43485e-09 0)
(3 2.81567e-09 0)
(3 5.27033e-09 0)
(3 9.3194e-09 0)
(3 1.533e-08 0)
(2.99999 2.28052e-08 0)
(2.99998 2.87204e-08 0)
(2.99996 2.39735e-08 0)
(2.99992 -1.39295e-08 0)
(2.99984 -1.36039e-07 0)
(2.99968 -4.54156e-07 0)
(2.99933 -1.21064e-06 0)
(2.99863 -2.93092e-06 0)
(2.99719 -6.75444e-06 0)
(2.99422 -1.51391e-05 0)
(2.98809 -3.33109e-05 0)
(2.97533 -7.20937e-05 0)
(2.94831 -0.000153036 0)
(2.88914 -0.000317267 0)
(2.74866 -0.000647993 0)
(2.34084 -0.00135775 0)
(0.739287 -0.0010975 0)
(-0.53779 0.126516 0)
(-0.34583 0.23733 0)
(-0.0447069 0.323642 0)
(0.215051 0.39753 0)
(0.36272 0.463362 0)
(0.397398 0.461758 0)
(0.373272 0.441062 0)
(0.263618 0.47861 0)
(0.0411064 0.604431 0)
(-0.077213 0.766016 0)
(-0.118189 0.834453 0)
(3 1.51938e-12 0)
(3 9.94309e-12 0)
(3 3.38769e-11 0)
(3 8.85671e-11 0)
(3 2.05116e-10 0)
(3 4.48679e-10 0)
(3 9.54098e-10 0)
(3 1.9942e-09 0)
(3 4.10518e-09 0)
(3 8.30388e-09 0)
(3 1.64379e-08 0)
(3 3.16979e-08 0)
(2.99999 5.92648e-08 0)
(2.99998 1.06925e-07 0)
(2.99996 1.85187e-07 0)
(2.99992 3.05872e-07 0)
(2.99984 4.77071e-07 0)
(2.99968 6.9016e-07 0)
(2.99933 8.89652e-07 0)
(2.99863 9.05361e-07 0)
(2.99719 3.00861e-07 0)
(2.99422 -1.96024e-06 0)
(2.98809 -8.21699e-06 0)
(2.97531 -2.34398e-05 0)
(2.94827 -5.71858e-05 0)
(2.88904 -0.000124834 0)
(2.74842 -0.000248535 0)
(2.34048 -0.000442621 0)
(0.757399 0.00179695 0)
(-0.501158 0.138111 0)
(-0.31556 0.254947 0)
(-0.0204623 0.344891 0)
(0.236664 0.416493 0)
(0.370163 0.48992 0)
(0.388115 0.487155 0)
(0.360335 0.469206 0)
(0.166935 0.52046 0)
(-0.0542378 0.660856 0)
(-0.11965 0.80401 0)
(-0.133732 0.825983 0)
(3 2.44817e-12 0)
(3 1.5038e-11 0)
(3 4.82299e-11 0)
(3 1.21106e-10 0)
(3 2.72668e-10 0)
(3 5.8421e-10 0)
(3 1.22514e-09 0)
(3 2.54668e-09 0)
(3 5.27006e-09 0)
(3 1.08556e-08 0)
(3 2.22084e-08 0)
(3 4.49908e-08 0)
(2.99999 8.99955e-08 0)
(2.99998 1.77304e-07 0)
(2.99996 3.43307e-07 0)
(2.99992 6.52031e-07 0)
(2.99984 1.21228e-06 0)
(2.99968 2.20141e-06 0)
(2.99933 3.89497e-06 0)
(2.99863 6.69964e-06 0)
(2.99719 1.11912e-05 0)
(2.99422 1.81803e-05 0)
(2.98808 2.89037e-05 0)
(2.9753 4.57152e-05 0)
(2.94825 7.47272e-05 0)
(2.889 0.000135571 0)
(2.74828 0.000290127 0)
(2.3404 0.000785969 0)
(0.776286 0.00548388 0)
(-0.461632 0.15061 0)
(-0.282883 0.273475 0)
(0.00433854 0.365875 0)
(0.256427 0.438103 0)
(0.378603 0.504227 0)
(0.381651 0.517349 0)
(0.342359 0.508669 0)
(0.0637106 0.566875 0)
(-0.136778 0.730755 0)
(-0.163401 0.83873 0)
(-0.15605 0.806533 0)
(3 3.36717e-12 0)
(3 2.00451e-11 0)
(3 6.23106e-11 0)
(3 1.53351e-10 0)
(3 3.40504e-10 0)
(3 7.2141e-10 0)
(3 1.49833e-09 0)
(3 3.09155e-09 0)
(3 6.37404e-09 0)
(3 1.31503e-08 0)
(3 2.71178e-08 0)
(3 5.57677e-08 0)
(2.99999 1.14099e-07 0)
(2.99998 2.31818e-07 0)
(2.99996 4.67194e-07 0)
(2.99992 9.33492e-07 0)
(2.99984 1.84844e-06 0)
(2.99968 3.62379e-06 0)
(2.99934 7.0197e-06 0)
(2.99863 1.3395e-05 0)
(2.99719 2.50941e-05 0)
(2.99423 4.6059e-05 0)
(2.98809 8.29822e-05 0)
(2.97532 0.000148092 0)
(2.94827 0.000267077 0)
(2.88902 0.000502863 0)
(2.74829 0.00102447 0)
(2.34077 0.00241968 0)
(0.796313 0.0101676 0)
(-0.41953 0.163336 0)
(-0.248078 0.292935 0)
(0.0280984 0.387069 0)
(0.273775 0.462294 0)
(0.387386 0.522441 0)
(0.378692 0.547013 0)
(0.325023 0.549393 0)
(0.00525434 0.598433 0)
(-0.194294 0.783493 0)
(-0.20356 0.868907 0)
(-0.165274 0.786378 0)
(3 4.24494e-12 0)
(3 2.48241e-11 0)
(3 7.58415e-11 0)
(3 1.84903e-10 0)
(3 4.08245e-10 0)
(3 8.60635e-10 0)
(3 1.77741e-09 0)
(3 3.64461e-09 0)
(3 7.47179e-09 0)
(3 1.5361e-08 0)
(3 3.1679e-08 0)
(3 6.54394e-08 0)
(2.99999 1.35072e-07 0)
(2.99998 2.77868e-07 0)
(2.99996 5.68645e-07 0)
(2.99992 1.15678e-06 0)
(2.99984 2.34038e-06 0)
(2.99968 4.7155e-06 0)
(2.99934 9.47303e-06 0)
(2.99864 1.89717e-05 0)
(2.9972 3.77904e-05 0)
(2.99424 7.45548e-05 0)
(2.98812 0.000145028 0)
(2.97536 0.000277774 0)
(2.94834 0.000527116 0)
(2.88913 0.00101024 0)
(2.7485 0.00202212 0)
(2.34166 0.00455915 0)
(0.816982 0.0159801 0)
(-0.375396 0.176373 0)
(-0.212094 0.313028 0)
(0.0517781 0.411007 0)
(0.290431 0.487866 0)
(0.395671 0.547342 0)
(0.378106 0.580086 0)
(0.31728 0.598668 0)
(0.00480364 0.631425 0)
(-0.216141 0.805592 0)
(-0.222079 0.874658 0)
(-0.133546 0.752514 0)
(3 5.03085e-12 0)
(3 2.91585e-11 0)
(3 8.84594e-11 0)
(3 2.15562e-10 0)
(3 4.77007e-10 0)
(3 1.00773e-09 0)
(3 2.08194e-09 0)
(3 4.26028e-09 0)
(3 8.69724e-09 0)
(3 1.77855e-08 0)
(3 3.65042e-08 0)
(3 7.52223e-08 0)
(2.99999 1.55462e-07 0)
(2.99998 3.21587e-07 0)
(2.99996 6.64208e-07 0)
(2.99992 1.36669e-06 0)
(2.99984 2.79772e-06 0)
(2.99968 5.69787e-06 0)
(2.99934 1.15624e-05 0)
(2.99864 2.34379e-05 0)
(2.99721 4.75724e-05 0)
(2.99426 9.67475e-05 0)
(2.98816 0.000196723 0)
(2.97544 0.000398274 0)
(2.94849 0.000800335 0)
(2.88941 0.001603 0)
(2.74903 0.00326597 0)
(2.34336 0.00727255 0)
(0.838717 0.0232977 0)
(-0.328713 0.191655 0)
(-0.174249 0.334507 0)
(0.075869 0.437306 0)
(0.305926 0.512817 0)
(0.405037 0.572767 0)
(0.382678 0.619591 0)
(0.320055 0.662225 0)
(0.0437693 0.681129 0)
(-0.202344 0.821105 0)
(-0.204976 0.852276 0)
(-0.046449 0.699346 0)
(3 5.68237e-12 0)
(3 3.28867e-11 0)
(3 9.99401e-11 0)
(3 2.45216e-10 0)
(3 5.47357e-10 0)
(3 1.1659e-09 0)
(3 2.42406e-09 0)
(3 4.97825e-09 0)
(3 1.01679e-08 0)
(3 2.07414e-08 0)
(3 4.23708e-08 0)
(3 8.68158e-08 0)
(2.99999 1.78524e-07 0)
(2.99998 3.68307e-07 0)
(2.99996 7.61391e-07 0)
(2.99992 1.57426e-06 0)
(2.99984 3.24867e-06 0)
(2.99968 6.67916e-06 0)
(2.99934 1.36698e-05 0)
(2.99865 2.78671e-05 0)
(2.99723 5.67143e-05 0)
(2.99429 0.000115637 0)
(2.98822 0.000237084 0)
(2.97556 0.000489843 0)
(2.94873 0.00101993 0)
(2.8899 0.00214067 0)
(2.75008 0.00456805 0)
(2.34651 0.0104648 0)
(0.863819 0.0325469 0)
(-0.278776 0.211206 0)
(-0.134676 0.358947 0)
(0.100782 0.462437 0)
(0.32024 0.537073 0)
(0.416327 0.597423 0)
(0.394548 0.659523 0)
(0.323692 0.731623 0)
(0.102042 0.741854 0)
(-0.155852 0.848529 0)
(-0.161007 0.83733 0)
(0.0722835 0.644866 0)
(3 6.23388e-12 0)
(3 3.62497e-11 0)
(3 1.11109e-10 0)
(3 2.75862e-10 0)
(3 6.23474e-10 0)
(3 1.34344e-09 0)
(3 2.82031e-09 0)
(3 5.83378e-09 0)
(3 1.19668e-08 0)
(3 2.44425e-08 0)
(3 4.98478e-08 0)
(3 1.01705e-07 0)
(2.99999 2.0789e-07 0)
(2.99998 4.26073e-07 0)
(2.99996 8.75764e-07 0)
(2.99992 1.80446e-06 0)
(2.99985 3.72297e-06 0)
(2.99968 7.67972e-06 0)
(2.99935 1.5813e-05 0)
(2.99866 3.24625e-05 0)
(2.99724 6.64314e-05 0)
(2.99432 0.000135696 0)
(2.98828 0.000277563 0)
(2.9757 0.000571463 0)
(2.94904 0.00119223 0)
(2.89059 0.00254114 0)
(2.75175 0.00560658 0)
(2.35188 0.0134609 0)
(0.896825 0.0431188 0)
(-0.224868 0.236998 0)
(-0.0948685 0.389457 0)
(0.126218 0.483741 0)
(0.333985 0.563022 0)
(0.429185 0.622603 0)
(0.412842 0.696046 0)
(0.33363 0.787444 0)
(0.158698 0.808089 0)
(-0.0809831 0.873645 0)
(-0.108218 0.851956 0)
(0.179876 0.612958 0)
(3 6.80642e-12 0)
(3 3.99314e-11 0)
(3 1.23932e-10 0)
(3 3.11805e-10 0)
(3 7.13569e-10 0)
(3 1.55471e-09 0)
(3 3.29444e-09 0)
(3 6.86496e-09 0)
(3 1.41564e-08 0)
(3 2.90029e-08 0)
(3 5.91968e-08 0)
(3 1.20619e-07 0)
(2.99999 2.45746e-07 0)
(2.99998 5.01259e-07 0)
(2.99996 1.02455e-06 0)
(2.99993 2.09952e-06 0)
(2.99985 4.31335e-06 0)
(2.99968 8.87933e-06 0)
(2.99935 1.82963e-05 0)
(2.99867 3.76873e-05 0)
(2.99726 7.75118e-05 0)
(2.99436 0.000159102 0)
(2.98836 0.000326202 0)
(2.97586 0.00067002 0)
(2.94939 0.00138729 0)
(2.89139 0.00292904 0)
(2.75379 0.00644302 0)
(2.35925 0.0156663 0)
(0.94241 0.0512824 0)
(-0.165249 0.262568 0)
(-0.0571979 0.418805 0)
(0.150177 0.506575 0)
(0.349191 0.59161 0)
(0.442577 0.650549 0)
(0.433191 0.730143 0)
(0.349884 0.818422 0)
(0.208587 0.871483 0)
(0.0149071 0.891999 0)
(-0.0507316 0.890919 0)
(0.251303 0.608708 0)
(3 7.55298e-12 0)
(3 4.47909e-11 0)
(3 1.40859e-10 0)
(3 3.58431e-10 0)
(3 8.27969e-10 0)
(3 1.81802e-09 0)
(3 3.87771e-09 0)
(3 8.12526e-09 0)
(3 1.68322e-08 0)
(3 3.46091e-08 0)
(3 7.08184e-08 0)
(3 1.44501e-07 0)
(2.99999 2.94471e-07 0)
(2.99998 6.00068e-07 0)
(2.99996 1.22397e-06 0)
(2.99993 2.50071e-06 0)
(2.99985 5.12e-06 0)
(2.99969 1.05058e-05 0)
(2.99936 2.15982e-05 0)
(2.99868 4.44567e-05 0)
(2.99728 9.15367e-05 0)
(2.99441 0.00018838 0)
(2.98846 0.000387419 0)
(2.97605 0.000797289 0)
(2.9498 0.0016487 0)
(2.89228 0.00345855 0)
(2.75601 0.00751353 0)
(2.36706 0.017936 0)
(0.992876 0.0566597 0)
(-0.102202 0.273796 0)
(-0.0199182 0.437706 0)
(0.174604 0.534044 0)
(0.365467 0.618903 0)
(0.456387 0.683518 0)
(0.451161 0.760364 0)
(0.369907 0.836789 0)
(0.250758 0.923583 0)
(0.105787 0.916345 0)
(0.0184587 0.922075 0)
(0.286253 0.618348 0)
(3 8.65795e-12 0)
(3 5.18799e-11 0)
(3 1.65009e-10 0)
(3 4.23129e-10 0)
(3 9.82487e-10 0)
(3 2.16564e-09 0)
(3 4.6349e-09 0)
(3 9.74491e-09 0)
(3 2.02588e-08 0)
(3 4.18033e-08 0)
(3 8.58295e-08 0)
(3 1.75648e-07 0)
(2.99999 3.58755e-07 0)
(2.99998 7.32061e-07 0)
(2.99996 1.49362e-06 0)
(2.99993 3.04894e-06 0)