/*--------------------------------*- C++ -*----------------------------------*\
  =========                 |
  \\      /  F ield         | OpenFOAM: The Open Source CFD Toolbox
   \\    /   O peration     | Website:  https://openfoam.org
    \\  /    A nd           | Version:  6.0
     \\/     M anipulation  |
\*---------------------------------------------------------------------------*/
FoamFile
{
    version     2.0;
    format      ascii;
    class       volScalarField;
    location    "1";
    object      p;
}
// * * * * * * * * * * * * * * * * * * * * * * * * * * * * * * * * * * * * * //

dimensions      [1 -1 -2 0 0 0 0];

internalField   nonuniform List<scalar> 
1200
(
1
1.00001
1.00004
1.00009
1.00022
1.00049
1.00111
1.0025
1.00564
1.01276
1.0289
1.06568
1.15028
1.34934
1.8422
3.2288
11.206
29.0551
27.5216
17.6811
1
1.00001
1.00004
1.00009
1.00022
1.00049
1.00111
1.0025
1.00565
1.01278
1.02897
1.06587
1.15086
1.35098
1.84741
3.24611
11.3418
28.8458
27.6808
17.3916
1
1.00001
1.00004
1.00009
1.00022
1.00049
1.00111
1.00251
1.00567
1.01283
1.02909
1.06621
1.15184
1.35384
1.85684
3.27984
11.6352
28.4729
27.7298
16.9843
1
1.00001
1.00004
1.00009
1.00022
1.00049
1.00112
1.00252
1.00569
1.01288
1.02925
1.06666
1.15315
1.35781
1.87015
3.32867
12.1421
27.9059
27.7688
16.4141
1
1.00001
1.00004
1.0001
1.00022
1.0005
1.00112
1.00253
1.00572
1.01295
1.0294
1.06711
1.15459
1.36244
1.88612
3.38715
12.8107
27.4317
27.8852
15.5885
1
1.00001
1.00004
1.0001
1.00022
1.0005
1.00113
1.00255
1.00575
1.01301
1.02953
1.06746
1.15576
1.36672
1.90287
3.45689
13.6924
27.2414
27.8763
14.6851
1
1.00001
1.00004
1.0001
1.00022
1.00051
1.00114
1.00257
1.00578
1.01305
1.02959
1.06759
1.1563
1.36938
1.91603
3.52557
14.7436
27.6562
27.7113
13.6368
1
1.00001
1.00004
1.0001
1.00023
1.00051
1.00115
1.00258
1.0058
1.01307
1.02958
1.06743
1.15588
1.36925
1.92211
3.58588
15.6844
29.3033
26.8319
12.3808
1
1.00002
1.00004
1.0001
1.00023
1.00052
1.00116
1.00261
1.00584
1.01312
1.02959
1.06719
1.15466
1.3653
1.91275
3.57375
15.5845
32.5605
23.7967
11.1847
1
1.00002
1.00004
1.00011
1.00024
1.00054
1.00119
1.00265
1.00592
1.01325
1.02976
1.06727
1.15387
1.36052
1.8917
3.48228
14.5443
35.6817
20.1911
10.2604
1
1.00002
1.00005
1.00011
1.00025
1.00056
1.00124
1.00274
1.00607
1.01351
1.03019
1.06791
1.15443
1.359
1.87683
3.381
12.8372
37.3067
17.3936
9.63771
1
1.00002
1.00005
1.00012
1.00027
1.0006
1.00132
1.00289
1.00635
1.01399
1.03103
1.06937
1.15681
1.36195
1.875
3.33336
11.3056
37.749
15.4166
9.27034
1
1.00002
1.00005
1.00012
1.00028
1.00064
1.00142
1.00311
1.0068
1.01483
1.03253
1.07202
1.16161
1.37127
1.89298
3.34548
10.2003
37.6615
14.0599
9.07813
1
1.00002
1.00004
1.00011
1.00028
1.00065
1.00149
1.00335
1.0074
1.01614
1.03506
1.07658
1.16971
1.38657
1.92425
3.41296
9.61282
36.7641
12.9434
9.0079
1
1.00001
1.00004
1.0001
1.00025
1.00062
1.00148
1.00345
1.0079
1.01768
1.03883
1.08436
1.18379
1.41158
1.97522
3.5337
9.38215
34.2647
11.8797
9.18073
1
1.00001
1.00003
1.00008
1.00021
1.00054
1.00136
1.00331
1.00789
1.01841
1.04208
1.09444
1.20887
1.4625
2.05985
3.6972
9.39461
29.9198
11.2578
9.49198
1
1.00001
1.00002
1.00007
1.00017
1.00045
1.00116
1.00293
1.0073
1.01774
1.04225
1.09908
1.23052
1.53846
2.28502
4.23489
10.4821
25.0522
10.3505
10.0117
1
1.00001
1.00002
1.00005
1.00013
1.00035
1.00092
1.0024
1.00622
1.01583
1.03941
1.09631
1.23324
1.57327
2.48404
5.29758
14.7987
18.0261
9.43875
11.4634
1
1.00001
1.00002
1.00004
1.00011
1.00027
1.0007
1.00185
1.00492
1.01302
1.03404
1.08752
1.22224
1.56695
2.50763
5.53224
15.5606
10.546
11.6956
12.4758
1
1.00001
1.00002
1.00004
1.00009
1.00023
1.00056
1.00143
1.00378
1.01015
1.02747
1.07394
1.19695
1.52326
2.42261
5.22547
14.7158
8.07515
16.4029
13.0206
1
1.00001
1.00002
1.00004
1.00008
1.00019
1.00043
1.00098
1.00228
1.00546
1.01343
1.03398
1.08817
1.23529
1.65816
3.0148
7.69476
8.61902
20.3855
13.7471
1
1.00001
1.00001
1.00003
1.00008
1.00018
1.00039
1.00087
1.00195
1.00437
1.00982
1.02228
1.05119
1.11992
1.28935
1.7305
2.96143
7.60798
21.3805
14.5561
1
1
1.00001
1.00003
1.00007
1.00016
1.00036
1.0008
1.00179
1.00398
1.00887
1.0198
1.04435
1.10006
1.22923
1.54332
2.38539
5.19092
18.3539
13.0952
1
1
1.00001
1.00003
1.00006
1.00014
1.00031
1.0007
1.00156
1.00347
1.00774
1.01728
1.03864
1.08684
1.19727
1.45878
2.12228
4.05938
10.5009
9.53881
1
1
1.00001
1.00002
1.00005
1.00011
1.00025
1.00056
1.00125
1.00279
1.00623
1.01394
1.03124
1.07025
1.15937
1.36852
1.88814
3.34516
7.80881
7.55391
1
1
1.00001
1.00001
1.00003
1.00007
1.00015
1.00033
1.00074
1.00166
1.00372
1.00834
1.01873
1.04218
1.09549
1.2187
1.51327
2.26838
4.24386
6.01363
1
1
1
1.00001
1.00002
1.00003
1.00008
1.00017
1.00039
1.00087
1.00193
1.00432
1.00965
1.02159
1.04844
1.1093
1.24973
1.5846
2.42234
4.45582
1
1
1
1
1.00001
1.00001
1.00003
1.00006
1.00014
1.00031
1.00068
1.00148
1.00325
1.00711
1.01555
1.03406
1.0747
1.16453
1.36179
1.76786
1
1
1
1
1
1.00001
1.00002
1.00004
1.00008
1.00018
1.00039
1.00086
1.00188
1.00414
1.0091
1.02003
1.04418
1.09787
1.21928
1.49959
1
1
1
1
1
1
1.00001
1.00002
1.00005
1.00012
1.00027
1.00059
1.0013
1.00287
1.00637
1.01411
1.03133
1.06979
1.15707
1.35868
1
1
1
1
1
1
1.00001
1.00001
1.00003
1.00006
1.00013
1.00029
1.00063
1.00138
1.00303
1.00665
1.01461
1.03215
1.07094
1.15744
1
1
1
1
1
1
1
1.00001
1.00002
1.00004
1.0001
1.00022
1.00049
1.00108
1.00239
1.00531
1.01178
1.02618
1.05835
1.13096
1
1
1
1
1
1
1
1.00001
1.00002
1.00003
1.00008
1.00017
1.00039
1.00086
1.00191
1.00424
1.00943
1.02098
1.04683
1.10519
1
1
1
1
1
1
1
1
1.00001
1.00002
1.00005
1.0001
1.00022
1.00048
1.00106
1.00233
1.00515
1.01139
1.02527
1.05637
1
1
1
1
1
1
1
1
1.00001
1.00001
1.00003
1.00007
1.00016
1.00037
1.00082
1.00182
1.00409
1.00918
1.02061
1.0464
1
1
1
1
1
1
1
1
1
1.00001
1.00002
1.00005
1.00012
1.00026
1.0006
1.00134
1.00302
1.00681
1.01536
1.03474
1
1
1
1
1
1
1
1
1
1.00001
1.00001
1.00003
1.00007
1.00016
1.00035
1.00078
1.00173
1.00384
1.00853
1.01898
1
1
1
1
1
1
1
1
1
1
1.00001
1.00002
1.00004
1.0001
1.00021
1.00048
1.00107
1.00238
1.00526
1.01163
1
1
1
1
1
1
1
1
1
1
1.00001
1.00001
1.00003
1.00007
1.00016
1.00036
1.00081
1.00183
1.00416
1.00946
1
1
1
1
1
1
1
1
1
1
1.00001
1.00001
1.00003
1.00006
1.00012
1.00026
1.00058
1.00128
1.00285
1.00641
4.80751
2.66392
1.90976
1.58341
1.47469
1.42413
1.36904
1.30705
1.23941
1.17724
1.11954
1.06628
1.01794
0.969917
0.922375
0.895911
0.862901
0.848958
0.844895
0.845259
5.1459
2.96411
2.22029
1.89789
1.66082
1.48953
1.3965
1.3062
1.22458
1.16222
1.10763
1.05772
1.01098
0.962254
0.920477
0.89298
0.867368
0.862043
0.85829
0.854333
5.54255
3.50262
2.48578
1.96233
1.67367
1.49384
1.40093
1.29973
1.21135
1.14015
1.08536
1.04069
1.00426
0.963193
0.928858
0.897076
0.870549
0.864346
0.856439
0.856001
5.50254
3.66145
2.67846
2.14227
1.87113
1.67144
1.46373
1.31894
1.21458
1.13506
1.07248
1.02839
0.99444
0.960455
0.931445
0.909586
0.883471
0.872322
0.861388
0.858122
5.43278
3.8338
2.95895
2.3676
1.96266
1.69002
1.47382
1.31775
1.20751
1.12935
1.06798
1.02413
0.985827
0.955499
0.92791
0.904903
0.880153
0.867954
0.856882
0.85493
5.28261
4.12924
3.27676
2.52399
2.0428
1.73827
1.51424
1.3512
1.2327
1.14846
1.07807
1.02552
0.98044
0.944561
0.912293
0.887754
0.867466
0.858824
0.852027
0.852394
4.85874
4.46509
3.56063
2.67513
2.16075
1.82497
1.57217
1.38508
1.25319
1.15924
1.08107
1.02436
0.977307
0.941401
0.906023
0.878437
0.858624
0.853375
0.852451
0.85309
4.53696
4.36364
3.85888
2.97809
2.35037
1.94441
1.65319
1.44554
1.2965
1.18878
1.1006
1.03624
0.982941
0.944088
0.905711
0.877667
0.860969
0.859288
0.858561
0.855748
3.86565
4.05456
3.85202
3.32292
2.52459
2.0484
1.71993
1.49191
1.33099
1.2106
1.1122
1.04397
0.986147
0.942523
0.907753
0.8842
0.871776
0.868897
0.860156
0.84175
3.00672
3.91013
3.8071
3.47812
2.77628
2.19937
1.83098
1.56868
1.38119
1.24384
1.13344
1.05661
0.995601
0.954393
0.934426
0.941826
0.96086
1.01405
1.15976
1.47669
1.75942
3.78799
3.71345
3.47622
2.97143
2.40974
1.97677
1.66444
1.43993
1.28098
1.16011
1.07534
1.0121
0.992366
0.996693
1.01555
1.07389
1.23537
1.59226
1.60843
1.62668
3.50065
3.51514
3.44097
3.1925
2.66675
2.14266
1.78655
1.52391
1.33904
1.20406
1.10857
1.04459
1.03802
1.04314
1.06736
1.16102
1.50911
1.71461
1.67035
1.47898
2.91553
3.41052
3.36502
3.20273
2.8512
2.34022
1.94085
1.63042
1.41009
1.25984
1.16792
1.12085
1.12355
1.15005
1.25837
1.8249
1.89224
1.81937
1.68214
1.23773
1.90378
3.27928
3.25964
3.17612
2.95875
2.52293
2.09529
1.75338
1.50854
1.37484
1.31876
1.33856
1.46207
2.02887
2.29565
2.0943
1.95833
1.76154
1.64606
1.19591
1.74054
2.9759
3.14575
3.11055
2.99492
2.75952
2.3534
1.95194
1.70242
1.64616
1.69681
2.01704
2.91519
2.79403
2.39652
2.13662
1.97069
1.73734
1.57252
1.14558
1.5369
2.44422
2.9989
3.00005
2.97955
2.88864
2.6745
2.25754
2.12726
2.19359
2.55219
3.1404
3.0512
2.78723
2.31351
2.12705
1.92578
1.71499
1.55197
1.07697
1.27484
1.72136
2.67161
2.95045
3.00354
3.01548
2.9843
2.89277
2.98157
3.384
3.55072
3.41523
3.13952
2.63932
2.29583
2.10721
1.91515
1.71077
1.54861
1.04598
1.15997
1.4063
1.95359
2.8707
3.0689
3.35872
3.73748
4.08005
4.67623
4.54265
4.12969
3.50876
3.08659
2.61887
2.34083
2.12089
1.93821
1.74547
1.55207
1.03888
1.1361
1.34102
1.77605
2.69089
3.19234
4.25341
5.674
5.57935
5.32511
4.86119
4.2704
3.58525
3.04733
2.67154
2.42537
2.17482
1.96887
1.78796
1.56956
1.02609
1.09241
1.23618
1.55415
2.26697
3.53924
6.20774
6.1388
5.91707
5.44185
4.94269
4.35676
3.64222
3.07943
2.73169
2.49614
2.22767
2.00987
1.82803
1.59878
)
;

boundaryField
{
    inlet
    {
        type            fixedValue;
        value           uniform 1;
    }
    outlet
    {
        type            waveTransmissive;
        gamma           1.4;
        fieldInf        1;
        lInf            3;
        value           nonuniform List<scalar> 
20
(
0.856257
0.861268
0.856704
0.85638
0.855369
0.85672
0.859994
0.867409
0.862838
1.28594
1.51991
1.64168
1.67954
1.6334
1.57924
1.55537
1.54677
1.54565
1.55623
1.5875
)
;
    }
    top
    {
        type            symmetryPlane;
    }
    bottom
    {
        type            symmetryPlane;
    }
    step
    {
        type            zeroGradient;
    }
    defaultFaces
    {
        type            empty;
    }
}


// ************************************************************************* //
