/*--------------------------------*- C++ -*----------------------------------*\
  =========                 |
  \\      /  F ield         | OpenFOAM: The Open Source CFD Toolbox
   \\    /   O peration     | Website:  https://openfoam.org
    \\  /    A nd           | Version:  6.0
     \\/     M anipulation  |
\*---------------------------------------------------------------------------*/
FoamFile
{
    version     2.0;
    format      ascii;
    class       volScalarField;
    location    "1";
    object      p;
}
// * * * * * * * * * * * * * * * * * * * * * * * * * * * * * * * * * * * * * //

dimensions      [1 -1 -2 0 0 0 0];

internalField   nonuniform List<scalar> 
24000
(
0.704492
0.583108
0.535328
0.500267
0.477495
0.460223
0.448126
0.436531
0.432495
0.43295
0.435311
0.442997
0.464077
0.518379
0.65936
1.05855
2.40332
7.52204
7.13417
6.52913
0.704492
0.583108
0.535328
0.500267
0.477495
0.460223
0.448126
0.436531
0.432495
0.43295
0.435311
0.442997
0.464077
0.51838
0.659363
1.05856
2.4034
7.52184
7.13239
6.53186
0.704492
0.583108
0.535328
0.500267
0.477495
0.460223
0.448126
0.436531
0.432495
0.432949
0.435311
0.442997
0.464077
0.51838
0.659365
1.05858
2.40352
7.52099
7.12922
6.53455
0.704492
0.583108
0.535328
0.500267
0.477495
0.460223
0.448125
0.436531
0.432494
0.432949
0.43531
0.442996
0.464075
0.518378
0.659364
1.05859
2.40364
7.51894
7.1242
6.53661
0.704492
0.583108
0.535327
0.500267
0.477495
0.460223
0.448125
0.436531
0.432493
0.432948
0.435309
0.442993
0.464071
0.518371
0.659353
1.05858
2.40368
7.51501
7.11679
6.53651
0.704492
0.583108
0.535327
0.500267
0.477495
0.460223
0.448125
0.436531
0.432491
0.432946
0.435306
0.442989
0.464064
0.518357
0.659325
1.05853
2.40357
7.50842
7.10626
6.53319
0.704492
0.583108
0.535327
0.500267
0.477495
0.460224
0.448125
0.436532
0.432488
0.432942
0.435301
0.442982
0.464051
0.518331
0.65927
1.05841
2.40321
7.4983
7.09179
6.52491
0.704492
0.583109
0.535327
0.500267
0.477495
0.460224
0.448124
0.436532
0.432482
0.432936
0.435294
0.44297
0.464028
0.518286
0.659173
1.05818
2.40245
7.48366
7.07236
6.51027
0.704491
0.583109
0.535327
0.500267
0.477495
0.460224
0.448123
0.436533
0.432474
0.432927
0.435282
0.442951
0.463993
0.518213
0.65901
1.05778
2.40104
7.46343
7.04645
6.48954
0.704491
0.583109
0.535326
0.500268
0.477494
0.460224
0.448122
0.436534
0.432462
0.432913
0.435264
0.442923
0.46394
0.518101
0.658753
1.05712
2.39869
7.43634
7.01326
6.45962
0.70449
0.583109
0.535326
0.500268
0.477494
0.460225
0.44812
0.436536
0.432444
0.432893
0.435238
0.442881
0.463861
0.517933
0.658361
1.05609
2.39498
7.40107
6.97092
6.42077
0.704489
0.583109
0.535325
0.500269
0.477493
0.460226
0.448117
0.436538
0.432418
0.432865
0.435202
0.442823
0.463748
0.517688
0.657784
1.05455
2.38936
7.35619
6.91775
6.3709
0.704488
0.58311
0.535324
0.50027
0.477492
0.460227
0.448114
0.436541
0.432384
0.432827
0.435152
0.442741
0.463589
0.517342
0.656957
1.05229
2.38102
7.30074
6.85144
6.30781
0.704487
0.58311
0.535323
0.500271
0.477491
0.460228
0.448109
0.436546
0.432337
0.432776
0.435084
0.44263
0.463372
0.516863
0.655802
1.0491
2.36919
7.23305
6.7689
6.2295
0.704485
0.583111
0.535322
0.500273
0.477489
0.46023
0.448103
0.436552
0.432276
0.432708
0.434995
0.442482
0.463079
0.516214
0.654226
1.04471
2.35307
7.14981
6.66741
6.13307
0.704483
0.583112
0.535321
0.500274
0.477487
0.460232
0.448095
0.43656
0.432196
0.43262
0.434878
0.442289
0.462693
0.515353
0.652118
1.0388
2.33147
7.04657
6.54307
6.01422
0.704481
0.583113
0.53532
0.500276
0.477485
0.460235
0.448084
0.43657
0.432095
0.432508
0.434729
0.442039
0.46219
0.514221
0.649328
1.03092
2.30294
6.91778
6.38998
5.86638
0.704478
0.583115
0.535319
0.500278
0.477482
0.460241
0.448069
0.436584
0.431969
0.432368
0.434541
0.44172
0.461542
0.512754
0.645693
1.02059
2.26562
6.75431
6.20155
5.67825
0.704475
0.583117
0.535318
0.500282
0.477476
0.460252
0.448045
0.436607
0.431812
0.432194
0.434306
0.441316
0.460716
0.510868
0.640967
1.00699
2.2164
6.54195
5.9658
5.43157
0.704471
0.583119
0.535315
0.500287
0.477468
0.460272
0.448006
0.436647
0.431619
0.431979
0.434015
0.440819
0.45969
0.508493
0.634907
0.989096
2.15102
6.247
5.67571
5.09408
1.04739
1.0382
1.01407
0.975273
0.949776
0.926
0.909031
0.892229
0.8894
0.890883
0.897309
0.916336
0.965534
1.08721
1.39218
2.21739
4.89156
16.4678
15.3534
14.3229
1.04739
1.0382
1.01407
0.975273
0.949776
0.926
0.909031
0.89223
0.8894
0.890883
0.897309
0.916337
0.965537
1.08722
1.39221
2.21746
4.89194
16.4654
15.3464
14.314
1.04739
1.0382
1.01407
0.975273
0.949776
0.926
0.909031
0.89223
0.8894
0.890883
0.89731
0.916338
0.965541
1.08723
1.39224
2.21759
4.89263
16.4589
15.3311
14.2924
1.04739
1.0382
1.01407
0.975273
0.949776
0.926
0.909031
0.89223
0.8894
0.890883
0.89731
0.916339
0.965545
1.08724
1.39228
2.21773
4.89355
16.4469
15.306
14.2559
1.04739
1.0382
1.01407
0.975273
0.949776
0.926
0.909031
0.89223
0.889399
0.890882
0.897308
0.916337
0.965544
1.08724
1.3923
2.21785
4.89453
16.4277
15.2693
14.2039
1.04739
1.0382
1.01407
0.975273
0.949776
0.926
0.90903
0.892229
0.889396
0.890879
0.897304
0.916331
0.965535
1.08723
1.39228
2.21788
4.8953
16.3995
15.2191
14.1349
1.04739
1.0382
1.01407
0.975273
0.949776
0.926
0.90903
0.892229
0.889391
0.890873
0.897296
0.916318
0.965513
1.08719
1.39221
2.21777
4.89559
16.3603
15.1532
14.0479
1.04739
1.0382
1.01407
0.975273
0.949775
0.926
0.909029
0.892227
0.889382
0.890862
0.897282
0.916295
0.965471
1.08711
1.39203
2.21741
4.895
16.3081
15.0691
13.9409
1.04739
1.0382
1.01407
0.975274
0.949775
0.926
0.909029
0.892225
0.889368
0.890846
0.897259
0.916257
0.9654
1.08696
1.39172
2.21669
4.89302
16.2402
14.9646
13.8128
1.04739
1.0382
1.01407
0.975274
0.949775
0.926001
0.909028
0.892221
0.889346
0.890822
0.897225
0.916199
0.965288
1.08673
1.39119
2.21543
4.88895
16.1541
14.8367
13.6627
1.04739
1.0382
1.01407
0.975275
0.949774
0.926002
0.909027
0.892215
0.889316
0.890786
0.897174
0.916113
0.965119
1.08637
1.39038
2.21339
4.8819
16.0468
14.6826
13.4873
1.04739
1.0382
1.01407
0.975276
0.949773
0.926002
0.909025
0.892207
0.889273
0.890737
0.897103
0.915989
0.964875
1.08585
1.38917
2.21029
4.87067
15.9152
14.4982
13.2861
1.04739
1.0382
1.01407
0.975277
0.949772
0.926004
0.909023
0.892196
0.889213
0.890668
0.897004
0.915816
0.964531
1.0851
1.38743
2.20574
4.85367
15.7562
14.2794
13.0541
1.04738
1.0382
1.01406
0.975278
0.949771
0.926005
0.90902
0.892182
0.889133
0.890575
0.89687
0.91558
0.964058
1.08407
1.385
2.1993
4.82925
15.565
14.0218
12.7912
1.04738
1.0382
1.01406
0.975281
0.949769
0.926008
0.909015
0.892162
0.889028
0.890453
0.896693
0.915266
0.963423
1.08268
1.38168
2.19041
4.79558
15.3361
13.7208
12.4884
1.04738
1.0382
1.01406
0.975283
0.949766
0.92601
0.909008
0.892138
0.888891
0.890294
0.896463
0.914856
0.962587
1.08082
1.37725
2.17843
4.75001
15.0606
13.3716
12.1437
1.04738
1.0382
1.01406
0.975285
0.949763
0.926014
0.908998
0.892108
0.888718
0.890093
0.896169
0.914328
0.961501
1.0784
1.37141
2.16252
4.68965
14.7297
12.9645
11.7422
1.04738
1.0382
1.01406
0.975288
0.949758
0.926021
0.90898
0.892074
0.888505
0.889844
0.895801
0.913659
0.960117
1.07529
1.36389
2.14189
4.61173
14.3283
12.4967
11.2711
1.04738
1.03819
1.01406
0.975293
0.94975
0.926035
0.908945
0.892047
0.888243
0.889537
0.895345
0.912824
0.958377
1.07136
1.3543
2.11534
4.51189
13.8297
11.963
10.7
1.04737
1.03819
1.01406
0.975299
0.949739
0.92606
0.908881
0.89206
0.887907
0.88915
0.894787
0.911818
0.956274
1.06655
1.34237
2.08177
4.38626
13.1834
11.3984
9.98327
1.07438
1.13302
1.1437
1.14082
1.13337
1.11819
1.10699
1.09626
1.09648
1.09914
1.10882
1.13534
1.20105
1.35939
1.74929
2.78826
6.13122
22.2214
20.4004
18.9763
1.07438
1.13302
1.1437
1.14082
1.13337
1.11819
1.10699
1.09626
1.09648
1.09914
1.10882
1.13535
1.20106
1.35941
1.74934
2.78844
6.13194
22.2154
20.3875
18.953
1.07438
1.13302
1.1437
1.14082
1.13337
1.11819
1.10699
1.09626
1.09648
1.09915
1.10882
1.13535
1.20107
1.35945
1.74944
2.78875
6.13346
22.2011
20.3576
18.8981
1.07438
1.13302
1.1437
1.14082
1.13337
1.11819
1.10699
1.09626
1.09648
1.09915
1.10882
1.13536
1.20109
1.35949
1.74956
2.78914
6.13576
22.1761
20.3082
18.8108
1.07438
1.13302
1.1437
1.14082
1.13337
1.11819
1.10699
1.09626
1.09648
1.09915
1.10882
1.13536
1.2011
1.35953
1.74967
2.78953
6.13864
22.1383
20.2372
18.6936
1.07438
1.13302
1.1437
1.14082
1.13337
1.11819
1.10699
1.09626
1.09648
1.09914
1.10882
1.13536
1.2011
1.35955
1.74974
2.78985
6.14173
22.0856
20.1421
18.5468
1.07438
1.13302
1.1437
1.14082
1.13337
1.11819
1.10699
1.09626
1.09648
1.09914
1.10882
1.13535
1.20109
1.35953
1.74974
2.78998
6.14452
22.0154
20.02
18.3705
1.07438
1.13302
1.1437
1.14082
1.13337
1.11819
1.10699
1.09626
1.09647
1.09913
1.1088
1.13533
1.20105
1.35946
1.74961
2.78984
6.14639
21.925
19.8681
18.1644
1.07438
1.13302
1.1437
1.14082
1.13337
1.11819
1.10699
1.09625
1.09646
1.09912
1.10878
1.13529
1.20098
1.35932
1.74932
2.78926
6.14661
21.8114
19.6842
17.9269
1.07438
1.13302
1.1437
1.14082
1.13337
1.11819
1.10699
1.09624
1.09644
1.09909
1.10874
1.13522
1.20086
1.35907
1.74878
2.78807
6.1443
21.6714
19.464
17.6595
1.07438
1.13302
1.1437
1.14082
1.13337
1.11819
1.10699
1.09622
1.09642
1.09906
1.10869
1.13513
1.20067
1.35867
1.74789
2.78597
6.13834
21.5015
19.2057
17.3576
1.07438
1.13302
1.1437
1.14082
1.13337
1.11819
1.10699
1.09619
1.09639
1.09901
1.10861
1.13498
1.20038
1.35807
1.74654
2.78264
6.12731
21.2974
18.9036
17.0244
1.07438
1.13302
1.1437
1.14082
1.13337
1.11819
1.10699
1.09616
1.09634
1.09895
1.1085
1.13478
1.19998
1.3572
1.74455
2.77759
6.10966
21.0553
18.5552
16.6521
1.07438
1.13302
1.1437
1.14082
1.13337
1.11819
1.107
1.09611
1.09628
1.09886
1.10835
1.13451
1.19942
1.35599
1.74174
2.77032
6.08335
20.7689
18.1552
16.2443
1.07438
1.13302
1.1437
1.14082
1.13337
1.1182
1.107
1.09604
1.0962
1.09874
1.10815
1.13414
1.19867
1.35435
1.73788
2.76022
6.04566
20.432
17.7007
15.7894
1.07438
1.13302
1.1437
1.14082
1.13337
1.1182
1.107
1.09596
1.0961
1.09859
1.1079
1.13365
1.19767
1.35216
1.73271
2.74653
5.99341
20.0366
17.1862
15.2893
1.07438
1.13302
1.1437
1.14082
1.13337
1.1182
1.10701
1.09586
1.09597
1.09839
1.10757
1.13303
1.19639
1.3493
1.7259
2.72833
5.92315
19.5728
16.6066
14.7279
1.07437
1.13302
1.1437
1.14082
1.13337
1.1182
1.107
1.09573
1.09581
1.09816
1.10717
1.13225
1.19475
1.34564
1.71713
2.70465
5.83134
19.0233
15.9688
14.0961
1.07437
1.13302
1.1437
1.14082
1.13337
1.1182
1.10698
1.09559
1.09562
1.09787
1.10667
1.13128
1.19271
1.34105
1.70604
2.67435
5.71418
18.3628
15.284
13.36
1.07437
1.13302
1.1437
1.14082
1.13336
1.11821
1.10694
1.0955
1.09536
1.09751
1.10607
1.13014
1.19027
1.33549
1.69243
2.6366
5.5704
17.5381
14.6226
12.4649
1.04176
1.1069
1.13744
1.15577
1.16599
1.16581
1.16504
1.16432
1.16571
1.17072
1.18403
1.2162
1.29154
1.46838
1.8979
3.02963
6.62968
25.9287
23.5181
21.6774
1.04176
1.1069
1.13744
1.15577
1.16599
1.16581
1.16504
1.16432
1.16571
1.17072
1.18404
1.2162
1.29155
1.46842
1.89801
3.02997
6.63086
25.919
23.5006
21.6411
1.04176
1.1069
1.13744
1.15577
1.16599
1.16581
1.16504
1.16432
1.16571
1.17073
1.18404
1.21621
1.29158
1.46849
1.8982
3.03055
6.63359
25.8965
23.458
21.5531
1.04176
1.1069
1.13744
1.15577
1.16599
1.16581
1.16504
1.16432
1.16572
1.17073
1.18405
1.21623
1.29161
1.46858
1.89843
3.03128
6.63797
25.8587
23.387
21.4157
1.04176
1.1069
1.13744
1.15577
1.16599
1.16581
1.16504
1.16432
1.16572
1.17073
1.18405
1.21624
1.29165
1.46867
1.89868
3.0321
6.6438
25.8035
23.2859
21.2383
1.04176
1.1069
1.13744
1.15577
1.16599
1.16581
1.16504
1.16432
1.16572
1.17073
1.18405
1.21625
1.29168
1.46875
1.8989
3.03288
6.65069
25.7284
23.152
21.0235
1.04176
1.1069
1.13744
1.15577
1.16599
1.16581
1.16504
1.16432
1.16571
1.17073
1.18405
1.21625
1.29169
1.4688
1.89906
3.03352
6.65803
25.6312
22.9835
20.7718
1.04176
1.1069
1.13744
1.15577
1.16599
1.16581
1.16504
1.16432
1.16571
1.17072
1.18404
1.21624
1.29168
1.46879
1.89909
3.03386
6.66499
25.5091
22.7767
20.4857
1.04176
1.1069
1.13744
1.15577
1.16599
1.16581
1.16504
1.16431
1.1657
1.17071
1.18403
1.21621
1.29163
1.4687
1.89894
3.03377
6.67055
25.3594
22.5303
20.1634
1.04176
1.1069
1.13744
1.15577
1.16599
1.16581
1.16504
1.1643
1.16569
1.17069
1.184
1.21616
1.29153
1.46851
1.89854
3.0331
6.67366
25.1785
22.2407
19.8081
1.04176
1.1069
1.13744
1.15577
1.16599
1.16581
1.16504
1.16428
1.16567
1.17066
1.18395
1.21607
1.29136
1.46816
1.89781
3.03159
6.6731
24.9626
21.9067
19.4154
1.04176
1.1069
1.13744
1.15577
1.166
1.16582
1.16505
1.16425
1.16564
1.17062
1.18388
1.21595
1.29111
1.46762
1.89662
3.02892
6.66748
24.7084
21.5226
18.9904
1.04176
1.1069
1.13745
1.15577
1.166
1.16582
1.16505
1.16422
1.1656
1.17057
1.18379
1.21576
1.29073
1.46683
1.89482
3.02469
6.65484
24.4095
21.0886
18.5247
1.04176
1.1069
1.13745
1.15577
1.166
1.16582
1.16506
1.16417
1.16554
1.17049
1.18365
1.21551
1.29021
1.46569
1.89222
3.01831
6.63329
24.0638
20.5969
18.0247
1.04176
1.1069
1.13745
1.15577
1.166
1.16582
1.16506
1.16411
1.16547
1.17039
1.18348
1.21517
1.2895
1.46414
1.88862
3.00931
6.59971
23.6608
20.0488
17.4785
1.04176
1.1069
1.13745
1.15577
1.166
1.16582
1.16507
1.16402
1.16537
1.17025
1.18325
1.21471
1.28855
1.46204
1.88369
2.99669
6.55204
23.1997
19.4376
16.8918
1.04176
1.1069
1.13745
1.15577
1.16601
1.16583
1.16508
1.16392
1.16526
1.17008
1.18295
1.21413
1.28732
1.4593
1.87719
2.97984
6.48613
22.6604
18.7703
16.2488
1.04176
1.1069
1.13745
1.15576
1.16601
1.16583
1.16508
1.16379
1.16511
1.16988
1.18259
1.21341
1.28575
1.45577
1.86874
2.95759
6.39913
22.0377
18.0509
15.5454
1.04176
1.1069
1.13745
1.15576
1.16601
1.16582
1.16508
1.16365
1.16495
1.16964
1.18216
1.21251
1.28381
1.45136
1.85812
2.92916
6.28651
21.2941
17.3137
14.7428
1.04176
1.1069
1.13744
1.15576
1.166
1.16581
1.16505
1.16352
1.16478
1.16937
1.18164
1.21144
1.28146
1.44601
1.8451
2.89358
6.14938
20.3933
16.6247
13.784
1.01475
1.05621
1.09062
1.11704
1.13649
1.14709
1.15397
1.15982
1.16432
1.17201
1.1883
1.22407
1.3043
1.48878
1.93216
3.0905
6.68041
28.2511
25.4078
23.1375
1.01475
1.05621
1.09062
1.11704
1.13649
1.14709
1.15397
1.15982
1.16432
1.17201
1.18831
1.22408
1.30432
1.48884
1.93234
3.09105
6.68226
28.2377
25.3874
23.0942
1.01475
1.05621
1.09062
1.11704
1.13649
1.14709
1.15397
1.15982
1.16432
1.17202
1.18831
1.22409
1.30437
1.48895
1.93263
3.09196
6.68663
28.2077
25.3359
22.9841
1.01475
1.05621
1.09062
1.11704
1.13649
1.14709
1.15397
1.15982
1.16432
1.17202
1.18832
1.22412
1.30442
1.48909
1.93299
3.0931
6.69382
28.1588
25.2494
22.8092
1.01475
1.05621
1.09062
1.11704
1.13649
1.14709
1.15397
1.15983
1.16432
1.17202
1.18833
1.22414
1.30448
1.48924
1.9334
3.09441
6.70362
28.0887
25.1271
22.5895
1.01475
1.05621
1.09062
1.11704
1.13649
1.14709
1.15397
1.15982
1.16432
1.17202
1.18834
1.22416
1.30454
1.48939
1.9338
3.09576
6.71567
27.9957
24.9665
22.3288
1.01475
1.05621
1.09062
1.11704
1.13649
1.14709
1.15397
1.15982
1.16432
1.17202
1.18835
1.22418
1.30459
1.48952
1.93415
3.09702
6.72929
27.8775
24.7665
22.029
1.01475
1.05621
1.09062
1.11704
1.13649
1.14709
1.15397
1.15982
1.16431
1.17202
1.18834
1.22419
1.30461
1.4896
1.93439
3.09802
6.74359
27.732
24.5249
21.6922
1.01475
1.05621
1.09062
1.11704
1.13649
1.14709
1.15397
1.15982
1.16431
1.17201
1.18834
1.22418
1.3046
1.4896
1.93445
3.09862
6.75741
27.5568
24.2388
21.3191
1.01475
1.05621
1.09062
1.11704
1.13649
1.14709
1.15397
1.15981
1.1643
1.172
1.18832
1.22414
1.30455
1.4895
1.93427
3.09863
6.76943
27.3491
23.909
20.9117
1.01475
1.05621
1.09062
1.11704
1.13649
1.14709
1.15398
1.1598
1.16428
1.17198
1.18828
1.22408
1.30443
1.48926
1.93378
3.09791
6.77811
27.1045
23.5309
20.4683
1.01475
1.05621
1.09062
1.11704
1.13649
1.14709
1.15398
1.15979
1.16426
1.17195
1.18823
1.22398
1.30423
1.48884
1.93288
3.09613
6.7822
26.8216
23.1029
19.9927
1.01475
1.05621
1.09062
1.11704
1.13649
1.14709
1.15398
1.15977
1.16423
1.1719
1.18815
1.22383
1.30393
1.48821
1.93148
3.09314
6.77945
26.4915
22.6241
19.4786
1.01475
1.05621
1.09062
1.11703
1.13649
1.14709
1.15399
1.15974
1.16419
1.17184
1.18804
1.22362
1.3035
1.48728
1.92937
3.08828
6.76846
26.1164
22.0886
18.9319
1.01475
1.05621
1.09062
1.11703
1.1365
1.14709
1.154
1.1597
1.16414
1.17176
1.1879
1.22334
1.3029
1.48598
1.9264
3.08123
6.74582
25.6815
21.4991
18.3438
1.01475
1.05621
1.09063
1.11703
1.1365
1.14709
1.15401
1.15965
1.16407
1.17165
1.1877
1.22296
1.3021
1.4842
1.92225
3.07093
6.71001
25.1903
20.8517
17.7204
1.01475
1.05621
1.09063
1.11703
1.1365
1.14709
1.15402
1.15959
1.16399
1.17152
1.18746
1.22246
1.30104
1.48186
1.91674
3.05705
6.65653
24.6167
20.1561
17.0478
1.01475
1.05621
1.09063
1.11702
1.13651
1.14708
1.15403
1.15951
1.16389
1.17135
1.18715
1.22184
1.29969
1.4788
1.90944
3.03816
6.58421
23.9684
19.4132
16.321
1.01475
1.05621
1.09063
1.11702
1.13651
1.14707
1.15403
1.15942
1.16378
1.17117
1.18679
1.22107
1.29801
1.47497
1.90023
3.01406
6.48746
23.1938
18.6681
15.502
1.01475
1.05621
1.09063
1.11702
1.1365
1.14705
1.15403
1.15932
1.16368
1.17096
1.18636
1.22015
1.29595
1.47025
1.88874
2.98334
6.36944
22.2717
17.9666
14.5365
1.00392
1.02026
1.04391
1.06716
1.08775
1.10329
1.11505
1.12498
1.13273
1.14149
1.15929
1.1968
1.27877
1.46454
1.9078
3.05872
6.4842
29.6382
26.5178
23.8472
1.00392
1.02026
1.04391
1.06716
1.08775
1.10329
1.11505
1.12498
1.13273
1.1415
1.15929
1.19681
1.2788
1.46463
1.90805
3.05953
6.48689
29.6215
26.4965
23.8018
1.00392
1.02026
1.04391
1.06716
1.08775
1.10329
1.11505
1.12498
1.13273
1.1415
1.1593
1.19683
1.27886
1.46478
1.90846
3.0608
6.49327
29.585
26.4399
23.6819
1.00392
1.02026
1.04391
1.06716
1.08775
1.10329
1.11505
1.12498
1.13273
1.1415
1.15931
1.19687
1.27894
1.46497
1.90896
3.06236
6.50381
29.527
26.3443
23.4862
1.00392
1.02026
1.04391
1.06716
1.08775
1.10329
1.11505
1.12498
1.13273
1.14151
1.15933
1.1969
1.27903
1.46519
1.90952
3.06416
6.51823
29.4454
26.2097
23.2432
1.00392
1.02026
1.04391
1.06716
1.08775
1.10329
1.11505
1.12498
1.13273
1.14151
1.15934
1.19694
1.27912
1.46541
1.91009
3.06606
6.53621
29.3391
26.0351
22.9596
1.00392
1.02026
1.04391
1.06716
1.08775
1.10329
1.11505
1.12498
1.13273
1.14151
1.15935
1.19697
1.2792
1.46561
1.91063
3.06794
6.55707
29.2064
25.8181
22.6371
1.00392
1.02026
1.04391
1.06716
1.08775
1.10329
1.11505
1.12498
1.13273
1.14151
1.15936
1.19699
1.27926
1.46578
1.91108
3.06964
6.57984
29.0454
25.5601
22.2774
1.00392
1.02026
1.04391
1.06716
1.08775
1.10329
1.11505
1.12498
1.13272
1.14151
1.15936
1.197
1.27929
1.46588
1.91137
3.07099
6.60332
28.8545
25.2553
21.8828
1.00392
1.02026
1.04391
1.06716
1.08775
1.10329
1.11505
1.12498
1.13272
1.1415
1.15935
1.19699
1.27928
1.46588
1.91144
3.07178
6.62617
28.6317
24.9084
21.4536
1.00392
1.02026
1.04391
1.06716
1.08776
1.10329
1.11505
1.12497
1.13271
1.14149
1.15933
1.19696
1.27922
1.46577
1.91124
3.07192
6.64649
28.3724
24.5122
20.9904
1.00392
1.02026
1.04391
1.06716
1.08776
1.10329
1.11506
1.12497
1.1327
1.14147
1.15929
1.19689
1.27909
1.46549
1.91064
3.07103
6.663
28.0772
24.069
20.4954
1.00392
1.02026
1.04391
1.06715
1.08776
1.10329
1.11506
1.12496
1.13268
1.14144
1.15924
1.19678
1.27887
1.46503
1.90963
3.06917
6.67314
27.7354
23.5746
19.9648
1.00392
1.02026
1.04391
1.06715
1.08776
1.10328
1.11507
1.12495
1.13266
1.1414
1.15916
1.19662
1.27854
1.46432
1.90802
3.06571
6.67587
27.3511
23.029
19.4023
1.00392
1.02026
1.04391
1.06715
1.08776
1.10328
1.11507
1.12494
1.13263
1.14135
1.15905
1.1964
1.27808
1.46331
1.90573
3.06059
6.6678
26.9061
22.4314
18.8036
1.00392
1.02026
1.04392
1.06715
1.08776
1.10328
1.11508
1.12492
1.13259
1.14127
1.15891
1.1961
1.27744
1.4619
1.90244
3.0527
6.64775
26.4089
21.7816
18.1723
1.00392
1.02026
1.04392
1.06715
1.08777
1.10327
1.11509
1.12489
1.13255
1.14118
1.15872
1.19571
1.27659
1.46002
1.89805
3.04198
6.61099
25.8283
21.0878
17.4961
1.00392
1.02026
1.04392
1.06714
1.08777
1.10326
1.1151
1.12485
1.1325
1.14107
1.15848
1.1952
1.27549
1.45752
1.8921
3.02683
6.55703
25.1799
20.3498
16.7669
1.00392
1.02026
1.04392
1.06714
1.08778
1.10325
1.11511
1.12481
1.13244
1.14094
1.1582
1.19458
1.2741
1.45436
1.88453
3.00737
6.48053
24.4051
19.6102
15.9499
1.00392
1.02026
1.04392
1.06714
1.08778
1.10323
1.11511
1.12476
1.1324
1.1408
1.15787
1.19382
1.27238
1.4504
1.87489
2.98197
6.38629
23.4888
18.899
14.9907
1.00091
1.00506
1.01418
1.02859
1.04453
1.05879
1.07124
1.08181
1.09125
1.10019
1.11822
1.15585
1.23733
1.42074
1.85669
2.98296
6.1611
30.4166
27.1455
24.1368
1.00091
1.00506
1.01418
1.02859
1.04453
1.05879
1.07124
1.08181
1.09125
1.10019
1.11823
1.15587
1.23738
1.42087
1.85703
2.98407
6.16491
30.3971
27.1242
24.0932
1.00091
1.00506
1.01418
1.02859
1.04453
1.05879
1.07124
1.08181
1.09125
1.1002
1.11824
1.1559
1.23745
1.42106
1.85755
2.98571
6.17381
30.3551
27.0658
23.9704
1.00091
1.00506
1.01418
1.02859
1.04453
1.05879
1.07124
1.08181
1.09125
1.1002
1.11826
1.15594
1.23755
1.4213
1.85817
2.98771
6.18841
30.2901
26.9655
23.7685
1.00091
1.00506
1.01418
1.02859
1.04453
1.05879
1.07123
1.08182
1.09125
1.10021
1.11827
1.15599
1.23766
1.42157
1.85889
2.99004
6.2083
30.2001
26.8252
23.5178
1.00091
1.00506
1.01418
1.02859
1.04453
1.05879
1.07123
1.08182
1.09125
1.10021
1.11829
1.15604
1.23778
1.42186
1.85963
2.99252
6.2331
30.0845
26.6454
23.2287
1.00091
1.00506
1.01418
1.02859
1.04453
1.05879
1.07123
1.08182
1.09125
1.10021
1.11831
1.15608
1.23789
1.42213
1.86036
2.99505
6.26215
29.9424
26.4225
22.9017
1.00091
1.00506
1.01418
1.02859
1.04453
1.05879
1.07123
1.08182
1.09124
1.10022
1.11832
1.15612
1.23799
1.42238
1.86102
2.99748
6.29442
29.7722
26.1602
22.5383
1.00091
1.00506
1.01418
1.02859
1.04453
1.05879
1.07123
1.08182
1.09124
1.10022
1.11833
1.15615
1.23806
1.42258
1.86156
2.99966
6.32866
29.5725
25.8513
22.1412
1.00091
1.00506
1.01418
1.02859
1.04453
1.05879
1.07123
1.08182
1.09124
1.10022
1.11833
1.15616
1.23811
1.4227
1.8619
3.00134
6.36358
29.3428
25.5018
21.7098
1.00091
1.00506
1.01418
1.02859
1.04453
1.05879
1.07123
1.08182
1.09124
1.10021
1.11833
1.15616
1.23811
1.42272
1.86201
3.0025
6.39711
29.0778
25.1036
21.246
1.00091
1.00506
1.01418
1.02859
1.04453
1.05879
1.07124
1.08182
1.09123
1.10021
1.11831
1.15612
1.23804
1.4226
1.86176
3.00267
6.42802
28.7797
24.6614
20.75
1.00091
1.00506
1.01418
1.02859
1.04453
1.05879
1.07124
1.08182
1.09122
1.10019
1.11828
1.15606
1.23791
1.42231
1.86115
3.00201
6.45358
28.4375
24.1688
20.2204
1.00091
1.00506
1.01418
1.02859
1.04454
1.05878
1.07124
1.08182
1.09122
1.10017
1.11823
1.15595
1.23768
1.42181
1.86001
2.99985
6.47254
28.0561
23.6291
19.6592
1.00091
1.00506
1.01418
1.02859
1.04454
1.05878
1.07124
1.08182
1.0912
1.10014
1.11816
1.1558
1.23734
1.42108
1.85834
2.99647
6.48137
27.6147
23.0395
19.0644
1.00091
1.00506
1.01418
1.02859
1.04454
1.05878
1.07125
1.08181
1.09119
1.10009
1.11806
1.15558
1.23686
1.42002
1.85587
2.99088
6.47938
27.1246
22.4007
18.4371
1.00091
1.00506
1.01418
1.02859
1.04454
1.05877
1.07125
1.0818
1.09117
1.10004
1.11793
1.15529
1.23623
1.41859
1.85258
2.98328
6.46195
26.551
21.7183
17.766
1.00091
1.00506
1.01418
1.02859
1.04455
1.05876
1.07126
1.08179
1.09115
1.09997
1.11776
1.15491
1.23537
1.41666
1.84797
2.97185
6.42874
25.916
20.9923
17.0392
1.00091
1.00506
1.01418
1.02858
1.04455
1.05875
1.07126
1.08177
1.09113
1.09989
1.11756
1.15443
1.23428
1.41417
1.84206
2.95705
6.37428
25.1541
20.2601
16.2262
1.00091
1.00506
1.01419
1.02858
1.04455
1.05874
1.07127
1.08174
1.09112
1.0998
1.11731
1.15383
1.23291
1.41098
1.8343
2.93683
6.30401
24.2566
19.5408
15.2685
1.0001
1.00063
1.00236
1.00676
1.01563
1.02499
1.03495
1.04364
1.05292
1.06169
1.07938
1.11629
1.19611
1.37554
1.80159
2.89743
5.82334
30.823
27.4852
24.2192
1.0001
1.00063
1.00236
1.00676
1.01563
1.02499
1.03495
1.04364
1.05292
1.06169
1.07939
1.11632
1.19616
1.37569
1.80201
2.8988
5.82838
30.8008
27.4641
24.1783
1.0001
1.00063
1.00236
1.00676
1.01563
1.02499
1.03495
1.04364
1.05292
1.0617
1.07941
1.11635
1.19625
1.37591
1.8026
2.90074
5.83993
30.7545
27.4052
24.0572
1.0001
1.00063
1.00236
1.00676
1.01563
1.02499
1.03495
1.04364
1.05292
1.0617
1.07942
1.1164
1.19636
1.37617
1.80326
2.90307
5.85861
30.6843
27.3031
23.8553
1.0001
1.00063
1.00236
1.00676
1.01563
1.02499
1.03495
1.04364
1.05291
1.06171
1.07944
1.11645
1.19649
1.37649
1.80408
2.90588
5.8839
30.5882
27.1608
23.6065
1.0001
1.00063
1.00236
1.00676
1.01563
1.02499
1.03495
1.04364
1.05291
1.06171
1.07947
1.11651
1.19663
1.37683
1.80496
2.90893
5.91535
30.4663
26.9804
23.3215
1.0001
1.00063
1.00236
1.00676
1.01563
1.02499
1.03495
1.04365
1.05291
1.06172
1.07949
1.11656
1.19676
1.37716
1.80582
2.91208
5.9522
30.3183
26.7576
22.9997
1.0001
1.00063
1.00236
1.00676
1.01563
1.02499
1.03495
1.04365
1.05291
1.06173
1.07951
1.11661
1.19689
1.37745
1.8066
2.91515
5.99344
30.1429
26.497
22.6422
1.0001
1.00063
1.00236
1.00676
1.01563
1.02499
1.03495
1.04365
1.05291
1.06173
1.07952
1.11666
1.197
1.37773
1.80734
2.91809
6.03771
29.9387
26.1914
22.2516
1.0001
1.00063
1.00236
1.00676
1.01563
1.02499
1.03495
1.04365
1.05291
1.06173
1.07953
1.11669
1.19708
1.37796
1.80793
2.92063
6.08376
29.7063
25.8462
21.827
1.0001
1.00063
1.00236
1.00676
1.01563
1.02499
1.03495
1.04365
1.05291
1.06173
1.07954
1.11671
1.19714
1.3781
1.80834
2.92277
6.12948
29.4402
25.4538
21.3709
1.0001
1.00063
1.00236
1.00676
1.01563
1.02499
1.03495
1.04365
1.05291
1.06173
1.07954
1.11671
1.19714
1.37812
1.80843
2.92403
6.17364
29.1431
25.0189
20.8819
1.0001
1.00063
1.00236
1.00676
1.01563
1.02499
1.03495
1.04365
1.05291
1.06173
1.07953
1.11668
1.19708
1.378
1.8082
2.92453
6.21347
28.805
24.5347
20.3602
1.0001
1.00063
1.00236
1.00676
1.01563
1.02499
1.03495
1.04365
1.05291
1.06172
1.0795
1.11661
1.19694
1.37768
1.80747
2.92362
6.2475
28.4305
24.006
19.8063
1.0001
1.00063
1.00236
1.00676
1.01563
1.02499
1.03495
1.04365
1.0529
1.0617
1.07945
1.11651
1.1967
1.37717
1.8063
2.92161
6.2719
27.9988
23.4273
19.2196
1.0001
1.00063
1.00236
1.00676
1.01563
1.02498
1.03495
1.04365
1.0529
1.06168
1.07939
1.11636
1.19636
1.37638
1.80444
2.91766
6.28617
27.5219
22.8016
18.5982
1.0001
1.00063
1.00236
1.00676
1.01563
1.02498
1.03495
1.04365
1.0529
1.06165
1.0793
1.11615
1.19589
1.37532
1.802
2.91244
6.28571
26.9604
22.1308
17.9326
1.0001
1.00063
1.00236
1.00676
1.01563
1.02498
1.03496
1.04365
1.0529
1.06161
1.07919
1.11587
1.19524
1.37384
1.79848
2.90402
6.27118
26.342
21.4163
17.2062
1.0001
1.00063
1.00236
1.00676
1.01563
1.02497
1.03496
1.04364
1.0529
1.06156
1.07904
1.1155
1.1944
1.37192
1.79393
2.89305
6.23649
25.5963
20.6895
16.3941
1.0001
1.00063
1.00236
1.00676
1.01564
1.02496
1.03497
1.04363
1.05289
1.0615
1.07885
1.11503
1.19331
1.36938
1.78774
2.87719
6.18743
24.7191
19.965
15.4307
0.99987
0.999339
0.998948
0.999273
1.00092
1.0047
1.01064
1.01642
1.0246
1.03314
1.05041
1.08651
1.16463
1.34036
1.75784
2.8262
5.55232
31.0173
27.6576
24.2213
0.99987
0.999339
0.998948
0.999273
1.00092
1.0047
1.01064
1.01642
1.0246
1.03314
1.05042
1.08653
1.16469
1.3405
1.75826
2.82782
5.5585
30.993
27.6367
24.1819
0.99987
0.999339
0.998948
0.999273
1.00092
1.0047
1.01064
1.01642
1.0246
1.03315
1.05044
1.08657
1.16478
1.34072
1.75882
2.82986
5.57234
30.9438
27.5775
24.0626
0.99987
0.999339
0.998948
0.999273
1.00092
1.0047
1.01064
1.01642
1.02459
1.03315
1.05046
1.08662
1.1649
1.341
1.75948
2.8323
5.59434
30.8701
27.4743
23.8642
0.99987
0.999339
0.998948
0.999273
1.00092
1.0047
1.01064
1.01642
1.02459
1.03316
1.05048
1.08668
1.16504
1.34134
1.7603
2.83536
5.62397
30.7706
27.3319
23.6191
0.99987
0.999339
0.998948
0.999273
1.00092
1.0047
1.01064
1.01642
1.02459
1.03317
1.05051
1.08674
1.16519
1.34171
1.76123
2.83904
5.6608
30.6446
27.1526
23.3403
0.99987
0.999339
0.998948
0.999273
1.00092
1.0047
1.01064
1.01642
1.02459
1.03318
1.05053
1.0868
1.16534
1.34207
1.76211
2.8429
5.70379
30.4926
26.9318
23.0267
0.99987
0.999339
0.998948
0.999273
1.00092
1.0047
1.01064
1.01642
1.02459
1.03318
1.05055
1.08686
1.16547
1.34237
1.76287
2.84656
5.752
30.3143
26.6744
22.6771
0.99987
0.999339
0.998948
0.999273
1.00092
1.0047
1.01064
1.01643
1.02459
1.03319
1.05057
1.08691
1.1656
1.34268
1.76366
2.8501
5.80404
30.1078
26.3738
22.2941
0.99987
0.999339
0.998948
0.999273
1.00092
1.0047
1.01064
1.01643
1.02459
1.03319
1.05059
1.08696
1.16572
1.34298
1.76445
2.85334
5.85854
29.8741
26.0343
21.8779
0.99987
0.999339
0.998948
0.999273
1.00092
1.0047
1.01064
1.01643
1.02459
1.0332
1.0506
1.087
1.16582
1.34322
1.7651
2.85631
5.91349
29.6085
25.6487
21.4303
0.99987
0.999339
0.998948
0.999273
1.00092
1.0047
1.01064
1.01643
1.02459
1.0332
1.05061
1.08702
1.16587
1.34335
1.76547
2.85849
5.96761
29.3131
25.2218
20.9492
0.99987
0.999339
0.998948
0.999273
1.00092
1.0047
1.01064
1.01643
1.02459
1.0332
1.05061
1.08701
1.16586
1.34336
1.76554
2.85995
6.01817
28.9791
24.7458
20.4358
0.99987
0.999339
0.998948
0.999273
1.00092
1.0047
1.01064
1.01643
1.02459
1.0332
1.0506
1.08698
1.16578
1.34318
1.76516
2.8601
6.0636
28.6106
24.227
19.8892
0.99987
0.999339
0.998948
0.999273
1.00092
1.0047
1.01064
1.01643
1.0246
1.03319
1.05057
1.08691
1.16562
1.34283
1.76436
2.85925
6.09997
28.1876
23.657
19.3094
0.99987
0.999339
0.998948
0.999273
1.00092
1.0047
1.01064
1.01643
1.0246
1.03318
1.05053
1.0868
1.16536
1.34223
1.76291
2.85641
6.12659
27.7234
23.0411
18.6922
0.99987
0.999339
0.998948
0.999273
1.00092
1.0047
1.01064
1.01643
1.0246
1.03316
1.05046
1.08664
1.165
1.34141
1.76101
2.85263
6.13873
27.1741
22.3788
18.0294
0.99987
0.999339
0.998948
0.999273
1.00092
1.0047
1.01064
1.01643
1.02461
1.03313
1.05038
1.08643
1.1645
1.34024
1.75823
2.84624
6.1378
26.5694
21.6725
17.3022
0.99987
0.99934
0.998948
0.999273
1.00092
1.0047
1.01064
1.01643
1.02461
1.0331
1.05026
1.08614
1.16383
1.33872
1.75465
2.83803
6.11802
25.8363
20.95
16.4882
0.99987
0.99934
0.998948
0.999273
1.00091
1.0047
1.01065
1.01643
1.02461
1.03306
1.05012
1.08576
1.16295
1.33665
1.7496
2.82533
6.08465
24.9754
20.2221
15.5191
0.999834
0.999159
0.998081
0.996634
0.996511
0.996973
0.998603
1.00224
1.00962
1.01807
1.03513
1.07077
1.1479
1.32155
1.73428
2.78672
5.40249
31.0925
27.7302
24.2096
0.999834
0.999159
0.998081
0.996634
0.996511
0.996973
0.998603
1.00224
1.00962
1.01807
1.03514
1.07079
1.14795
1.32166
1.73458
2.78797
5.40955
31.0673
27.7091
24.1704
0.999834
0.999159
0.998081
0.996634
0.996511
0.996973
0.998603
1.00224