/*--------------------------------*- C++ -*----------------------------------*\
  =========                 |
  \\      /  F ield         | OpenFOAM: The Open Source CFD Toolbox
   \\    /   O peration     | Website:  https://openfoam.org
    \\  /    A nd           | Version:  6.0
     \\/     M anipulation  |
\*---------------------------------------------------------------------------*/
FoamFile
{
    version     2.0;
    format      ascii;
    class       surfaceScalarField;
    location    "1";
    object      phi;
}
// * * * * * * * * * * * * * * * * * * * * * * * * * * * * * * * * * * * * * //

dimensions      [1 0 -1 0 0 0 0];

internalField   nonuniform List<scalar> 
2320
(
0.00419991
-1.90075e-11
0.00419991
-1.18146e-10
0.0041999
-3.86953e-10
0.0041999
-1.00149e-09
0.00419989
-2.33839e-09
0.00419985
-5.23475e-09
0.00419977
-1.15312e-08
0.00419955
-2.52667e-08
0.00419902
-5.56068e-08
0.00419779
-1.24689e-07
0.00419511
-2.90823e-07
0.00418974
-7.1505e-07
0.0041804
-1.89892e-06
0.00416932
-5.40989e-06
0.00416752
-1.82806e-05
0.00428067
-6.27933e-05
0.00530275
-0.000680728
0.00459448
0.000422646
0.00426596
0.00244219
0.00123245
0.00419991
-3.94117e-11
0.00419991
-2.42995e-10
0.0041999
-7.89668e-10
0.0041999
-2.03476e-09
0.00419989
-4.75262e-09
0.00419986
-1.06853e-08
0.00419977
-2.36857e-08
0.00419956
-5.22057e-08
0.00419902
-1.15216e-07
0.00419775
-2.57489e-07
0.00419493
-5.92981e-07
0.00418922
-1.42844e-06
0.00417905
-3.69485e-06
0.00416653
-1.03399e-05
0.004157
-3.42561e-05
0.0042908
-0.000116902
0.00508048
-0.001183
0.00438794
0.000719715
0.00353555
0.00555168
0.00159859
0.00419991
-6.14443e-11
0.00419991
-3.74142e-10
0.0041999
-1.19825e-09
0.0041999
-3.04862e-09
0.00419989
-7.0709e-09
0.00419986
-1.58803e-08
0.00419978
-3.52831e-08
0.00419956
-7.7912e-08
0.00419902
-1.7151e-07
0.00419768
-3.79758e-07
0.00419464
-8.60861e-07
0.0041883
-2.04089e-06
0.00417652
-5.21229e-06
0.00416062
-1.46067e-05
0.00413726
-4.82808e-05
0.00430172
-0.000167853
0.00488021
-0.00158459
0.00395333
0.00168372
0.0034163
0.00829738
0.00202497
0.00419991
-8.62835e-11
0.00419991
-5.14845e-10
0.0041999
-1.60667e-09
0.0041999
-3.9801e-09
0.00419989
-9.04514e-09
0.00419986
-2.00867e-08
0.00419978
-4.44573e-08
0.00419958
-9.80437e-08
0.00419902
-2.14785e-07
0.00419762
-4.69173e-07
0.00419427
-1.03819e-06
0.00418694
-2.39237e-06
0.00417241
-5.97177e-06
0.00415029
-1.66789e-05
0.00410559
-5.54334e-05
0.00428959
-0.000195794
0.00415847
-0.00142091
0.00330879
0.00281401
0.00286491
0.0108668
0.0021962
0.00419991
-1.19815e-10
0.00419991
-6.92978e-10
0.0041999
-2.07853e-09
0.0041999
-4.94692e-09
0.00419989
-1.08708e-08
0.00419986
-2.35609e-08
0.00419979
-5.13294e-08
0.0041996
-1.1197e-07
0.00419907
-2.42472e-07
0.00419764
-5.19813e-07
0.004194
-1.11367e-06
0.00418546
-2.45116e-06
0.0041672
-5.82025e-06
0.00413626
-1.58299e-05
0.00406668
-5.29708e-05
0.0042805
-0.00019727
0.00335772
-0.00058322
0.00252792
0.00452345
0.00162706
0.0134792
0.00181242
0.00419991
-1.69323e-10
0.00419991
-9.409e-10
0.00419991
-2.68841e-09
0.0041999
-6.14227e-09
0.00419989
-1.30962e-08
0.00419987
-2.77643e-08
0.00419981
-5.94371e-08
0.00419964
-1.27622e-07
0.00419915
-2.71587e-07
0.00419778
-5.68072e-07
0.00419405
-1.16895e-06
0.00418461
-2.41549e-06
0.00416256
-5.26459e-06
0.0041205
-1.32889e-05
0.00402048
-4.2873e-05
0.00426394
-0.000166747
0.00225738
0.000991041
0.00173932
0.00715623
0.0007581
0.0158464
0.00107459
0.00419991
-2.29082e-10
0.00419991
-1.22127e-09
0.00419991
-3.32319e-09
0.00419991
-7.39662e-09
0.0041999
-1.56972e-08
0.00419988
-3.34572e-08
0.00419983
-7.20436e-08
0.0041997
-1.55167e-07
0.0041993
-3.30331e-07
0.0041981
-6.87811e-07
0.00419456
-1.38866e-06
0.00418484
-2.72143e-06
0.00416009
-5.29318e-06
0.00410776
-1.12958e-05
0.00397664
-3.12005e-05
0.00425427
-0.000122152
0.00054865
0.00324757
0.00136949
0.0121678
0.000357803
0.0176021
-9.91569e-05
0.00419991
-2.56788e-10
0.00419991
-1.31651e-09
0.00419991
-3.42966e-09
0.00419991
-7.68234e-09
0.00419991
-1.70922e-08
0.00419991
-3.86184e-08
0.00419988
-8.73884e-08
0.00419979
-1.95437e-07
0.0041995
-4.29022e-07
0.00419859
-9.20219e-07
0.0041957
-1.91666e-06
0.00418695
-3.85056e-06
0.004162
-7.39672e-06
0.00410171
-1.38961e-05
0.00394197
-2.65587e-05
0.00419278
-4.97583e-05
-0.0043084
0.00595789
0.00119707
0.0195736
6.0789e-05
0.0153147
-0.00143919
0.00419991
-1.68168e-10
0.00419991
-8.02261e-10
0.00419991
-1.95418e-09
0.00419992
-4.93831e-09
0.00419993
-1.37004e-08
0.00419994
-3.75188e-08
0.00419994
-9.68343e-08
0.00419991
-2.35685e-07
0.00419976
-5.47863e-07
0.00419919
-1.23027e-06
0.00419728
-2.68657e-06
0.00419101
-5.72635e-06
0.00417115
-1.1899e-05
0.00411568
-2.42583e-05
0.00395735
-4.70493e-05
0.00416995
-6.59741e-05
-0.00366195
0.00684064
0.000394337
0.0293877
-0.00024786
0.00979478
-0.00250273
0.00419991
1.03233e-10
0.00419991
6.74443e-10
0.00419991
2.06722e-09
0.00419992
3.13519e-09
0.00419994
-4.8965e-10
0.00419997
-2.01305e-08
0.00420003
-8.20642e-08
0.00420009
-2.44512e-07
0.00420011
-6.34126e-07
0.00419994
-1.52487e-06
0.00419902
-3.50728e-06
0.00419555
-7.86643e-06
0.00418359
-1.74484e-05
0.00414745
-3.91802e-05
0.00403337
-8.98459e-05
0.00416911
-0.000218297
-0.000622336
0.00494014
-0.00148521
0.0395181
-0.000476302
0.00497258
-0.00310796
0.00419991
5.1658e-10
0.00419991
2.94423e-09
0.00419991
8.42341e-09
0.00419991
1.70974e-08
0.00419993
2.61645e-08
0.00419999
2.48927e-08
0.0042001
-1.63522e-08
0.00420031
-1.69007e-07
0.00420062
-5.94253e-07
0.00420099
-1.64785e-06
0.00420119
-4.11389e-06
0.00420041
-9.78234e-06
0.00419552
-2.28096e-05
0.0041784
-5.45342e-05
0.00411582
-0.000136586
0.00420113
-0.000418075
0.000792447
0.0027034
-0.00318555
0.0484429
-0.000601034
0.00164169
-0.00328278
0.00419991
9.12549e-10
0.0041999
5.19562e-09
0.00419989
1.51666e-08
0.00419988
3.38603e-08
0.00419988
6.38177e-08
0.00419992
1.01934e-07
0.00420008
1.25696e-07
0.00420046
6.24758e-08
0.0042012
-2.73506e-07
0.00420242
-1.3123e-06
0.00420416
-4.01573e-06
0.00420625
-1.05995e-05
0.00420773
-2.63605e-05
0.00420718
-6.64577e-05
0.0041581
-0.000176372
0.0042596
-0.000596941
0.00172422
0.000758931
-0.0044112
0.0571669
-0.000687049
-0.000206239
-0.00313004
0.00419991
1.12406e-09
0.0041999
6.49115e-09
0.00419987
1.95927e-08
0.00419983
4.72502e-08
0.00419977
1.01e-07
0.00419973
1.95735e-07
0.00419981
3.38737e-07
0.00420023
4.94116e-07
0.00420139
4.96744e-07
0.00420382
-1.25497e-07
0.00420804
-2.50232e-06
0.00421432
-9.22037e-06
0.00422221
-2.63961e-05
0.00422682
-7.11612e-05
0.00422186
-0.000197014
0.00432231
-0.000727258
0.00226049
-0.000487893
-0.00576418
0.0656283
-0.000733279
-0.00124964
-0.00278225
0.00419991
1.08594e-09
0.00419989
6.40082e-09
0.00419986
2.00912e-08
0.00419979
5.19834e-08
0.00419966
1.22636e-07
0.00419945
2.70295e-07
0.00419922
5.5566e-07
0.00419921
1.04811e-06
0.00420011
1.74853e-06
0.0042033
2.35522e-06
0.00421075
1.72922e-06
0.00422404
-3.13315e-06
0.00424317
-1.91913e-05
0.00425839
-6.41547e-05
0.00429122
-0.000199844
0.00430538
-0.00080524
0.00259212
-0.00126648
-0.00686524
0.0708856
-0.00068185
-0.00210222
-0.00189763
0.0041999
8.5003e-10
0.00419989
5.15139e-09
0.00419985
1.69587e-08
0.00419977
4.71622e-08
0.00419958
1.21553e-07
0.00419921
2.96278e-07
0.00419856
6.84086e-07
0.00419761
1.4903e-06
0.00419675
3.03596e-06
0.00419764
5.67661e-06
0.00420477
9.33322e-06
0.00422591
1.19971e-05
0.00426665
5.84184e-06
0.00430368
-3.11407e-05
0.0043676
-0.000177594
0.00426666
-0.000814609
0.00287882
-0.00164666
-0.00769217
0.0677366
-0.000485266
-0.00278794
-0.000406815
0.00419991
5.41945e-10
0.00419989
3.40486e-09
0.00419986
1.18787e-08
0.00419977
3.57557e-08
0.00419956
1.00804e-07
0.00419909
2.69956e-07
0.0041981
6.86882e-07
0.00419623
1.65798e-06
0.00419307
3.79438e-06
0.00418864
8.23252e-06
0.00418525
1.69028e-05
0.00419238
3.2626e-05
0.00423518
5.74913e-05
0.00432867
8.28793e-05
0.00447801
4.15072e-08
0.00413231
-0.000757593
0.00318376
-0.00208616
-0.00809253
0.0674103
-0.000629141
-0.00269264
0.00116603
0.00419991
2.84216e-10
0.0041999
1.86223e-09
0.00419987
6.92783e-09
0.00419981
2.26393e-08
0.00419962
6.99027e-08
0.00419913
2.05819e-07
0.00419798
5.76742e-07
0.00419546
1.53407e-06
0.00419039
3.86831e-06
0.00418119
9.26092e-06
0.00416627
2.1216e-05
0.00414544
4.71983e-05
0.00412666
0.000104226
0.00412831
0.000235047
0.00419611
0.000493789
0.00360842
0.000851365
-0.000381733
0.00418
-0.00789606
0.0555471
-0.00150634
-0.00442932
0.00471213
0.00419991
1.30295e-10
0.0041999
8.84568e-10
0.00419989
3.46939e-09
0.00419985
1.2121e-08
0.00419971
4.04775e-08
0.00419932
1.30084e-07
0.00419825
4.00487e-07
0.00419556
1.17499e-06
0.00418932
3.27239e-06
0.00417608
8.63962e-06
0.00415082
2.16923e-05
0.00410832
5.25626e-05
0.00404419
0.000127756
0.00394165
0.000328013
0.00376486
0.00091117
0.0024233
0.0033632
-0.00658018
0.0179768
-0.0101718
0.0328688
-0.000500645
-0.000810801
0.0105714
0.00419991
6.33269e-11
0.00419991
4.28204e-10
0.0041999
1.6724e-09
0.00419988
5.85015e-09
0.0041998
1.99996e-08
0.00419955
6.75124e-08
0.00419877
2.22987e-07
0.00419651
7.12453e-07
0.00419045
2.18159e-06
0.00417546
6.36299e-06
0.00414185
1.76557e-05
0.00407503
4.70226e-05
0.00396673
0.000123757
0.00384262
0.000349005
0.00375641
0.00115498
0.00205189
0.00541868
-0.00444029
0.0260148
-0.00760934
0.0137837
0.000392259
0.00980712
0.0153314
0.00419991
4.09778e-11
0.00419991
2.61551e-10
0.0041999
9.25373e-10
0.00419989
2.81403e-09
0.00419986
8.43801e-09
0.00419973
2.62577e-08
0.00419926
8.52795e-08
0.00419775
2.83996e-07
0.0041931
9.47969e-07
0.00417981
3.11617e-06
0.00414506
9.99137e-06
0.00406484
3.12548e-05
0.00391466
9.67637e-05
0.00374173
0.000313358
0.00379959
0.00124138
0.00266922
0.00679193
-0.000705457
0.0318218
0.00138371
0.00907022
-0.000221823
0.0227423
0.0182987
0.0167996
5.13986e-11
0.0167996
3.15998e-10
0.0167996
1.04222e-09
0.0167996
2.79068e-09
0.0167996
6.84557e-09
0.0167996
1.62431e-08
0.0167993
3.85559e-08
0.0167983
9.41137e-08
0.0167945
2.41996e-07
0.016781
6.64919e-07
0.0167377
1.94583e-06
0.0166107
5.94803e-06
0.0162729
1.85254e-05
0.0154884
5.76178e-05
0.0143762
0.000177454
0.0160285
0.000644403
0.0246957
0.00057401
0.0190664
0.0151453
0.0285648
0.0465886
0.0277405
0.0298908
0.0167996
6.35737e-11
0.0167996
3.95453e-10
0.0167996
1.31487e-09
0.0167996
3.51805e-09
0.0167996
8.54341e-09
0.0167996
1.97923e-08
0.0167996
4.48048e-08
0.0167995
1.00402e-07
0.0167992
2.24581e-07
0.0167981
5.05165e-07
0.0167941
1.15278e-06
0.0167801
2.70038e-06
0.0167338
6.59261e-06
0.0165946
1.70905e-05
0.0162428
4.81121e-05
0.0158471
0.000155411
0.0147437
0.000668442
0.0243828
0.00335184
0.0272988
0.0627519
0.0337572
0.0262401
0.0167996
9.39931e-11
0.0167996
5.78374e-10
0.0167996
1.90571e-09
0.0167996
5.07776e-09
0.0167996
1.23104e-08
0.0167996
2.85017e-08
0.0167996
6.4476e-08
0.0167995
1.44164e-07
0.0167994
3.20548e-07
0.016799
7.11317e-07
0.0167982
1.57992e-06
0.0167959
3.52576e-06
0.0167893
7.95867e-06
0.0167689
1.84115e-05
0.0167029
4.47374e-05
0.0164839
0.000119053
0.0160099
0.000374835
0.0142604
0.00142496
0.0223715
0.0180312
0.0194737
0.0219908
0.0167996
1.26251e-10
0.0167996
7.85626e-10
0.0167996
2.613e-09
0.0167996
6.99515e-09
0.0167996
1.70057e-08
0.0167996
3.94535e-08
0.0167996
8.94203e-08
0.0167995
2.00317e-07
0.0167993
4.46227e-07
0.0167989
9.91793e-07
0.0167979
2.20494e-06
0.0167958
4.9181e-06
0.016791
1.10653e-05
0.0167799
2.53856e-05
0.0167535
6.06501e-05
0.0166864
0.000156358
0.0165095
0.000459589
0.0160353
0.00152342
0.0164898
0.0130586
0.0158474
0.0179857
0.0167996
1.97564e-10
0.0167996
1.17922e-09
0.0167996
3.78546e-09
0.0167996
9.97383e-09
0.0167996
2.41171e-08
0.0167996
5.59786e-08
0.0167995
1.27351e-07
0.0167994
2.86874e-07
0.0167991
6.43138e-07
0.0167985
1.43888e-06
0.016797
3.2185e-06
0.0167936
7.21268e-06
0.0167862
1.62544e-05
0.0167696
3.71248e-05
0.0167327
8.7432e-05
0.0166486
0.000220433
0.0164167
0.000654075
0.0149993
0.00287218
0.018398
0.00930234
0.0120292
0.0215568
0.0167996
1.28102e-10
0.0167996
7.95066e-10
0.0167996
2.64059e-09
0.0167996
7.08184e-09
0.0167996
1.72933e-08
0.0167996
4.03865e-08
0.0167996
9.22977e-08
0.0167996
2.08758e-07
0.0167996
4.69933e-07
0.0167995
1.05586e-06
0.0167992
2.37155e-06
0.0167986
5.33093e-06
0.016797
1.20098e-05
0.0167938
2.71909e-05
0.01679
6.22441e-05
0.0168021
0.000146309
0.0169728
0.000367761
0.0183125
0.00125705
0.0228594
0.00368313
0.00913899
0.0258251
0.0167996
8.89784e-11
0.0167996
5.40574e-10
0.0167996
1.76301e-09
0.0167996
4.68725e-09
0.0167996
1.1401e-08
0.0167996
2.65844e-08
0.0167997
6.07315e-08
0.0167997
1.37384e-07
0.0167997
3.09382e-07
0.0167999
6.95403e-07
0.0168002
1.56217e-06
0.0168008
3.50958e-06
0.0168021
7.8884e-06
0.0168052
1.77447e-05
0.0168131
3.99756e-05
0.0168374
9.04136e-05
0.0169309
0.000207558
0.0175566
0.000531314
0.0188212
0.00218382
0.00390418
0.0232952
0.0167996
2.51206e-11
0.0167996
1.66269e-10
0.0167996
5.79898e-10
0.0167996
1.58449e-09
0.0167996
3.88168e-09
0.0167997
9.01438e-09
0.0167997
2.03726e-08
0.0167998
4.54023e-08
0.0168
1.00454e-07
0.0168004
2.21429e-07
0.0168013
4.87148e-07
0.0168034
1.07063e-06
0.0168082
2.35158e-06
0.016819
5.16296e-06
0.0168437
1.13306e-05
0.0169006
2.48566e-05
0.0170345
5.46304e-05
0.0174055
0.000120822
0.0191687
0.000382612
0.000955378
0.0221088
0.0167996
1.1176e-11
0.0167996
7.18395e-11
0.0167996
2.44915e-10
0.0167996
6.61259e-10
0.0167996
1.60699e-09
0.0167996
3.70608e-09
0.0167996
8.3173e-09
0.0167997
1.8397e-08
0.0167997
4.03738e-08
0.0167999
8.82196e-08
0.0168001
1.92289e-07
0.0168008
4.18519e-07
0.0168022
9.1019e-07
0.0168053
1.97922e-06
0.0168122
4.30797e-06
0.0168273
9.40803e-06
0.0168605
2.07235e-05
0.0169331
4.65841e-05
0.0172024
0.000112747
0.000297083
0.0178632
0.0167996
1.07401e-11
0.0167996
6.41896e-11
0.0167996
2.06188e-10
0.0167996
5.42864e-10
0.0167996
1.31017e-09
0.0167996
3.0322e-09
0.0167996
6.87267e-09
0.0167996
1.54151e-08
0.0167996
3.4395e-08
0.0167997
7.65461e-08
0.0167997
1.70141e-07
0.0167998
3.77972e-07
0.0168
8.39573e-07
0.0168003
1.86538e-06
0.016801
4.14788e-06
0.0168023
9.23958e-06
0.0168045
2.06683e-05
0.0168102
4.66361e-05
0.016824
0.000107603
0.000271803
0.0168708
0.0167996
3.06261e-12
0.0167996
2.04525e-11
0.0167996
7.18411e-11
0.0167996
1.9688e-10
0.0167996
4.82262e-10
0.0167996
1.1172e-09
0.0167996
2.51416e-09
0.0167996
5.57143e-09
0.0167997
1.22432e-08
0.0167997
2.67767e-08
0.0167998
5.83922e-08
0.0168001
1.27086e-07
0.0168006
2.7618e-07
0.0168018
5.99466e-07
0.0168046
1.30001e-06
0.0168108
2.81797e-06
0.0168249
6.11121e-06
0.0168573
1.32845e-05
0.0169336
2.9046e-05
6.52331e-05
0.0171358
0.0167996
1.90386e-12
0.0167996
1.21241e-11
0.0167996
4.11375e-11
0.0167996
1.11253e-10
0.0167996
2.7141e-10
0.0167996
6.28686e-10
0.0167996
1.41661e-09
0.0167996
3.14289e-09
0.0167996
6.90843e-09
0.0167996
1.50977e-08
0.0167997
3.28788e-08
0.0167997
7.14784e-08
0.0167998
1.55372e-07
0.0168
3.38135e-07
0.0168005
7.37528e-07
0.0168015
1.61361e-06
0.0168039
3.54553e-06
0.0168093
7.84455e-06
0.0168209
1.75965e-05
4.06527e-05
0.0168462
0.0167996
2.21431e-12
0.0167996
1.32268e-11
0.0167996
4.2406e-11
0.0167996
1.11205e-10
0.0167996
2.6747e-10
0.0167996
6.18532e-10
0.0167996
1.40633e-09
0.0167996
3.17838e-09
0.0167996
7.1771e-09
0.0167996
1.62253e-08
0.0167996
3.67354e-08
0.0167996
8.32555e-08
0.0167996
1.88726e-07
0.0167995
4.2758e-07
0.0167995
9.67742e-07
0.0167994
2.188e-06
0.016799
4.94514e-06
0.0167975
1.11947e-05
0.0167934
2.55183e-05
5.92433e-05
0.0167806
0.0167996
1.21695e-12
0.0167996
7.61642e-12
0.0167996
2.5365e-11
0.0167996
6.77166e-11
0.0167996
1.63965e-10
0.0167996
3.78584e-10
0.0167996
8.5311e-10
0.0167996
1.89782e-09
0.0167996
4.1923e-09
0.0167996
9.22328e-09
0.0167997
2.02367e-08
0.0167997
4.42993e-08
0.0167999
9.67409e-08
0.0168002
2.107e-07
0.0168008
4.57587e-07
0.0168021
9.91156e-07
0.0168047
2.14266e-06
0.0168097
4.6311e-06
0.0168205
1.0037e-05
2.20183e-05
0.0168437
0.0167996
9.55457e-13
0.0167996
5.78669e-12
0.0167996
1.88192e-11
0.0167996
5.00662e-11
0.0167996
1.22075e-10
0.0167996
2.85079e-10
0.0167996
6.4994e-10
0.0167996
1.45923e-09
0.0167996
3.23998e-09
0.0167996
7.13164e-09
0.0167996
1.55917e-08
0.0167997
3.3921e-08
0.0167997
7.35791e-08
0.0167997
1.5943e-07
0.0167996
3.45673e-07
0.0167994
7.50985e-07
0.0167986
1.63682e-06
0.0167969
3.5838e-06
0.0167934
7.88453e-06
1.75799e-05
0.0167892
0.0167996
4.2441e-13
0.0167996
2.71149e-12
0.0167996
9.25055e-12
0.0167996
2.53713e-11
0.0167996
6.34629e-11
0.0167996
1.52309e-10
0.0167996
3.58734e-10
0.0167996
8.37559e-10
0.0167996
1.94621e-09
0.0167996
4.5061e-09
0.0167996
1.03963e-08
0.0167996
2.38978e-08
0.0167996
5.47406e-08
0.0167995
1.25022e-07
0.0167994
2.84981e-07
0.0167991
6.49121e-07
0.0167983
1.4792e-06
0.0167966
3.37656e-06
0.0167927
7.72839e-06
1.78061e-05
0.0167824
0.0167996
3.22337e-13
0.0167996
1.96291e-12
0.0167996
6.41687e-12
0.0167996
1.71136e-11
0.0167996
4.18261e-11
0.0167996
9.81828e-11
0.0167996
2.26234e-10
0.0167996
5.17173e-10
0.0167996
1.17911e-09
0.0167996
2.68763e-09
0.0167996
6.12967e-09
0.0167996
1.3985e-08
0.0167996
3.18907e-08
0.0167996
7.26003e-08
0.0167996
1.6482e-07
0.0167998
3.72938e-07
0.0168004
8.41096e-07
0.0168017
1.89281e-06
0.0168047
4.25769e-06
9.6027e-06
0.0168099
0.0167996
1.62429e-13
0.0167996
1.01269e-12
0.0167996
3.36624e-12
0.0167996
8.94902e-12
0.0167996
2.15022e-11
0.0167996
4.9155e-11
0.0167996
1.09675e-10
0.0167996
2.42231e-10
0.0167996
5.34054e-10
0.0167996
1.18152e-09
0.0167996
2.631e-09
0.0167996
5.90461e-09
0.0167996
1.3351e-08
0.0167996
3.03606e-08
0.0167996
6.92276e-08
0.0167996
1.57668e-07
0.0167999
3.57243e-07
0.0168008
8.02195e-07
0.0168038
1.78177e-06
3.91222e-06
0.0168106
0.0167996
8.09862e-14
0.0167996
5.04031e-13
0.0167996
1.68586e-12
0.0167996
4.55268e-12
0.0167996
1.11529e-11
0.0167996
2.60169e-11
0.0167996
5.92003e-11
0.0167996
1.33131e-10
0.0167996
2.98134e-10
0.0167996
6.67945e-10
0.0167996
1.50175e-09
0.0167996
3.39548e-09
0.0167996
7.73151e-09
0.0167996
1.77405e-08
0.0167996
4.10205e-08
0.0167995
9.54941e-08
0.0167992
2.23582e-07
0.0167983
5.25555e-07
0.0167955
1.23639e-06
2.91493e-06
0.0167898
0.0167996
0.0167996
0.0167996
0.0167996
0.0167996
0.0167996
0.0167996
0.0167996
0.0167996
0.0167996
0.0167996
0.0167996
0.0167997
0.0167997
0.0167998
0.0167999
0.0168002
0.0168004
0.0168003
0.0167991
0.0139835
0.0163041
0.00780445
0.00585917
0.0050935
0.00253386
0.0039168
0.000992539
0.00423706
-0.000424465
0.00436341
-0.000360865
0.00449856
-0.000453993
0.0045321
-0.000345713
0.00447024
-0.000203689
0.00440095
-7.75904e-05
0.00432754
-1.00959e-05
0.00428378
1.83763e-05
0.00426074
1.90993e-05
0.00425694
1.88025e-05
0.00442995
9.73704e-06
0.00481304
0.000122568
0.00532125
0.000166522
0.00601051
9.09373e-05
0.00676903
6.9441e-05
5.18267e-05
0.0136792
0.0275669
0.00812325
0.011155
0.00630175
0.0040293
0.00611264
0.000848115
0.00556304
-0.000171004
0.00533225
-0.000347719
0.00529873
-0.000719301
0.00524087
-0.000586986
0.00515243
-0.000374719
0.00506336
-0.000232434
0.00495565
-0.000103937
0.0048657
-1.63537e-05
0.00478059
3.793e-05
0.00467453
5.05723e-05
0.00460851
8.55487e-05
0.00467793
0.00013334
0.00496645
0.000166175
0.00565563
0.000159854
0.00640733
0.000139858
9.14675e-05
0.0147078
0.0340606
0.0108361
0.0146319
0.00830579
0.00612656
0.00694961
0.00180561
0.00620538
0.000278263
0.00580825
-0.000246753
0.00579476
-0.000970424
0.00570117
-0.000728434
0.00558608
-0.00045738
0.00548573
-0.000334306
0.00538287
-0.000235528
0.00529447
-0.000149225
0.00520775
-8.56398e-05
0.00511686
-5.01235e-05
0.00503092
3.85229e-05
0.00504295
8.64555e-05
0.00522988
0.000130743
0.00578871
0.000153219
0.006479
0.000109404
1.98168e-05
0.0149926
0.0358767
0.0115769
0.0176764
0.00919598
0.00808516
0.00777632
0.00277287
0.00737001
0.000449345
0.00730591
-0.000232335
0.00678675
-0.000554239
0.00643157
-0.0005239
0.00620204
-0.000399029
0.00603215
-0.000339211
0.00590398
-0.000291921
0.00583099
-0.000272631
0.00576492
-0.00022381
0.00572069
-0.000194581
0.00571481
-0.000122501
0.00584366
-3.11796e-05
0.00607748
1.37321e-05
0.00653893
1.42802e-05
0.00710864
-2.92451e-05
-0.000113131
0.0154822
0.0414218
0.0123321
0.0206229
0.0107463
0.00941209
0.00958187
0.00378024
0.00869227
0.00133089
0.00798704
0.00042172
0.00733995
6.10526e-06
0.00687389
-0.000155361
0.00661804
-0.000226563
0.00645746
-0.000276394
0.00639567
-0.00030622
0.00640625
-0.000295821
0.00645083
-0.000282225
0.00651272
-0.00024574
0.00655622
-0.000193595
0.00663967
-0.000111179
0.00677528
-7.41362e-05
0.00709554
-0.000105619
0.00755319
-0.000149816
-0.000229943
0.0147316
0.052855
0.0142619
0.02109
0.013203
0.010292
0.0112316
0.00560367
0.00989272
0.00273994
0.00894864
0.00133596
0.0081538
0.000627975
0.0076071
0.000198765
0.00729657
-3.81652e-05
0.00717342
-0.000172116
0.0071465
-0.000208901
0.00717567
-0.000230479
0.00715656
-0.000234503
0.0071199
-0.000208741
0.00705429
-0.000154135
0.00703897
-0.000111786
0.00709141
-9.99279e-05
0.00736821
-0.000152439
0.00780437
-0.000228717
-0.000304348
0.0414827
0.0355656
0.0222294
0.0405902
0.0155232
0.0167347
0.012829
0.00812364
0.0113437
0.00426806
0.0101175
0.00241451
0.00910326
0.00132061
0.00839524
0.000609064
0.00800012
0.000184959
0.00781591
5.33858e-05
0.00773564
3.25462e-07
0.00770122
-6.78548e-05
0.00763875
-0.000115159
0.00756566
-0.000129398
0.00747058
-8.38174e-05
0.00744702
-6.6578e-05
0.00753525
-0.00010459
0.00783489
-0.000156413
0.00824356
-0.000238721
-0.000388927
0.0276888
0.0299256
0.0270157
0.0410666
0.0171656
0.0264602
0.0149986
0.0101453
0.0128333
0.00659084
0.0111595
0.0040224
0.00996649
0.00225792
0.00922329
0.00115853
0.00882944
0.00065732
0.00856736
0.000474053
0.00837195
0.000342548
0.00821862
0.000198496
0.00811286
9.06073e-05
0.00803929
4.65576e-05
0.00799233
2.9012e-05
0.00803234
1.02194e-05
0.00818562
-5.1773e-05
0.00850831
-0.000138952
0.00891973
-0.000205165
-0.000277541
0.0202381
0.0276808
0.029976
0.0311445
0.0264247
0.0299155
0.0172169
0.0194885
0.0142031
0.00969459
0.0123202
0.00590842
0.0110513
0.00347829
0.0102278
0.00209865
0.00964873
0.00143221
0.00915123
0.00104124
0.00882325
0.000724989
0.00864388
0.00049301
0.00857886
0.000330331
0.00856468
0.000275196
0.00861756
0.000162561
0.00874986
3.80043e-05
0.0089633
-9.62989e-05
0.0094001
-0.000284707
0.00971152
-3.78298e-05
0.00025166
0.0260797
0.019222
0.0267635
0.0296958
0.0269096
0.0290198
0.0214391
0.0241972
0.0160387
0.0149102
0.0137273
0.0083032
0.0122743
0.00501231
0.0111557
0.00329446
0.0103502
0.00231281
0.00973455
0.00162468
0.00940039
0.00110161
0.00931255
0.000830368
0.00930857
0.00065302
0.00937406
0.000406642
0.00946155
6.54306e-05
0.00941256
-0.000258963
0.00898517
-0.000684235
0.00832122
-0.00109022
0.0075798
-0.00192063
-0.0108339
0.029477
0.00689262
0.0280399
0.0299583
0.0255265
0.03053
0.0207518
0.0283053
0.0177184
0.0175947
0.0157165
0.0105838
0.0138935
0.00703991
0.0123969
0.00481656
0.0113251
0.00332671
0.0106135
0.00227261
0.0102079
0.00157008
0.0100596
0.00117273
0.0100305
0.000893439
0.00986043
0.000498443
0.00956045
0.000209583
0.00908189
-0.000207669
0.00855973
-0.00083684
0.00878784
-0.00208405
0.0158272
-0.010832
-0.0148617
0.0186575
0.00512705
0.0237053
0.0244986
0.0274865
0.0265844
0.0279484
0.0280393
0.0231097
0.0229678
0.0183646
0.0154477
0.0157629
0.00977381
0.0138361
0.00649755
0.0124521
0.00439009
0.011585
0.00296052
0.0111042
0.00205438
0.0109143
0.00153492
0.0108685
0.00106765
0.0104109
0.00093756
0.00970578
0.000734755
0.00808241
0.00119796
0.00635871
0.00041455
0.0150994
-0.0164988
0.020559
-0.0193726
-0.0140947
0.018769
0.00353956
0.0255681
0.0182968
0.0271488
0.0246713
0.0288017
0.0267081
0.0243239
0.0279597
0.0203312
0.0193683
0.0178356
0.0125079
0.0155609
0.00850547
0.0138535
0.00570702
0.0128975
0.00388483
0.0123277
0.00279238
0.0121897
0.00181642
0.0119954
0.00113924
0.0108425
0.00172137
0.00903026
0.00139742
0.0064909
0.000490021
0.0139598
-0.0253777
0.0294368
-0.0296753
0.0216755
-0.0138932
-0.0108859
0.0197592
0.000714299
0.0287903
0.00838682
0.0266062
0.0262289
0.0275567
0.0255965
0.0278454
0.0276985
0.0244993
0.0231059
0.0200975
0.0164997
0.0174027
0.0106352
0.0154633
0.00715749
0.01432
0.00499195
0.0139863
0.00323118
0.0130471
0.00224665
0.00963318
0.00355504
0.00725262
0.00130491
0.0112062
-0.0221451
0.0348934
-0.02039
0.0337538
-0.0172593
0.0231898
-0.0152917
0.0214088
-0.0120149
-0.00942703
0.0166335
0.000894488
0.0197676
0.00528058
0.0261846
0.0191318
0.0275529
0.0242972
0.0291881
0.0256682
0.0257762
0.0261451
0.0226837
0.020234
0.0198796
0.0134039
0.0175868
0.00891442
0.0165998
0.0060746
0.0139548
0.00562425
0.00787928
0.00704626
0.00722837
-4.63372e-05
0.0376273
-0.027747
0.0401873
-0.0202037
0.0298095
-0.0155327
0.027638
-0.0126859
0.0240987
-0.0115823
0.0220393
-0.0102427
-0.00825396
0.0171615
0.000626055
0.0192571
0.00262423
0.0268238
0.0106161
0.0261027
0.0249413
0.0270972
0.0240149
0.0305369
0.0215126
0.028141
0.0217279
0.0235112
0.0173061
0.0207544
0.011543
0.0162063
0.0108344
0.00888769
0.0116092
0.0181258
-0.00446376
0.0496945
-0.0314167
0.0438239
-0.0222475
0.0310331
-0.0138632
0.0281013
-0.0138325
0.0267679
-0.0108548
0.024571
-0.00974064
0.0226019
-0.00852529
-0.0070965
0.0170841
0.000348836
0.0178215
0.00154002
0.0232122
0.00453502
0.0270599
0.0198141
0.0263727
0.0238807
0.0268283
0.0207694
0.0327657
0.0157625
0.0326549
0.0171794
0.0213048
0.0215959
0.0140322
0.0153425
0.0272894
-0.0100626
0.0561817
-0.03358
0.0422108
-0.0166171
0.0343613
-0.0114591
0.0303305
-0.0109667
0.0283183
-0.00983446
0.0270989
-0.00855407
0.0249925
-0.00770399
0.0230755
-0.00696854
-0.0055939
0.017075
0.000135163
0.0178981
0.000667771
0.0196259
0.00261253
0.0297884
0.00868402
0.029172
0.0246533
0.0301813
0.0200294
0.0313772
0.0145738
0.0339933
0.0126507
0.0346937
0.0165256
0.0467325
-0.00217172
0.0674164
-0.0323243
0.043725
-0.0109202
0.0374451
-0.00846131
0.0340117
-0.00763296
0.0309193
-0.00779589
0.0290117
-0.00671452
0.0275627
-0.00555094
0.0258474
-0.00515984
0.023826
-0.00500873
-0.00386876
0.0167274
0.000121865
0.0167136
0.000503693
0.0177781
0.00175945
0.0248293
0.00240579
0.0328149
0.0167666
0.0378047
0.0168258
0.0463182
0.0114924
0.0479497
0.00710675
0.0605909
0.000864818
0.0671869
-0.00673983
0.0470818
-0.00704431
0.0426014
-0.00669296
0.0379218
-0.00441529
0.0342836
-0.0038356
0.0319722
-0.00379754
0.0300173
-0.00323329
0.0282852
-0.00273156
0.0267465
-0.00258314
0.0246894
-0.00255976
-0.00197851
0.016825
0.0170042
0.0181337
0.0192953
0.036342
0.052814
0.0580394
0.0603422
0.0586096
0.0530357
0.0503789
0.0439301
0.0386036
0.0348015
0.0327688
0.0310403
0.0291968
0.0276139
0.0253769
)
;

boundaryField
{
    inlet
    {
        type            calculated;
        value           nonuniform List<scalar> 
40
(
-0.00419991
-0.00419991
-0.00419991
-0.00419991
-0.00419991
-0.00419991
-0.00419991
-0.00419991
-0.00419991
-0.00419991
-0.00419991
-0.00419991
-0.00419991
-0.00419991
-0.00419991
-0.00419991
-0.00419991
-0.00419991
-0.00419991
-0.00419991
-0.0167996
-0.0167996
-0.0167996
-0.0167996
-0.0167996
-0.0167996
-0.0167996
-0.0167996
-0.0167996
-0.0167996
-0.0167996
-0.0167996
-0.0167996
-0.0167996
-0.0167996
-0.0167996
-0.0167996
-0.0167996
-0.0167996
-0.0167996
)
;
    }
    outlet
    {
        type            calculated;
        value           nonuniform List<scalar> 
20
(
0.00765664
0.0072273
0.00722355
0.00768619
0.00807928
0.00842235
0.00890773
0.00952507
0.0100357
0.0141868
0.0168357
0.0187399
0.0199332
0.0204121
0.0209624
0.021447
0.0217664
0.0221583
0.0226307
0.0232382
)
;
    }
    top
    {
        type            symmetryPlane;
        value           uniform 0;
    }
    bottom
    {
        type            symmetryPlane;
        value           uniform 0;
    }
    step
    {
        type            calculated;
        value           uniform 0;
    }
    defaultFaces
    {
        type            empty;
        value           nonuniform 0();
    }
}


// ************************************************************************* //
