/*--------------------------------*- C++ -*----------------------------------*\
  =========                 |
  \\      /  F ield         | OpenFOAM: The Open Source CFD Toolbox
   \\    /   O peration     | Website:  https://openfoam.org
    \\  /    A nd           | Version:  6.0
     \\/     M anipulation  |
\*---------------------------------------------------------------------------*/
FoamFile
{
    version     2.0;
    format      ascii;
    class       volScalarField;
    location    "1";
    object      T;
}
// * * * * * * * * * * * * * * * * * * * * * * * * * * * * * * * * * * * * * //

dimensions      [0 0 0 1 0 0 0];

internalField   nonuniform List<scalar> 
1200
(
1
1.00001
1.00002
1.00004
1.0001
1.00022
1.0005
1.00113
1.00255
1.00576
1.01307
1.02975
1.06831
1.16052
1.38692
2.20661
2.84277
1.32513
2.50253
2.47667
1
1.00001
1.00002
1.00004
1.0001
1.00022
1.0005
1.00113
1.00255
1.00578
1.0131
1.02984
1.06855
1.16129
1.38807
2.23806
2.80897
1.31756
2.51296
2.47032
1
1.00001
1.00002
1.00004
1.0001
1.00022
1.0005
1.00113
1.00256
1.0058
1.01316
1.03
1.06898
1.16261
1.39111
2.28113
2.77776
1.30388
2.52875
2.49296
1
1.00001
1.00002
1.00004
1.0001
1.00022
1.0005
1.00114
1.00257
1.00583
1.01324
1.03021
1.06958
1.1644
1.39647
2.32671
2.7685
1.28578
2.54094
2.49938
1
1.00001
1.00002
1.00004
1.0001
1.00022
1.00051
1.00114
1.00259
1.00586
1.01332
1.03043
1.07025
1.16639
1.40379
2.36364
2.77742
1.28209
2.55551
2.46061
1
1.00001
1.00002
1.00004
1.0001
1.00023
1.00051
1.00115
1.0026
1.00589
1.01339
1.03062
1.07084
1.16816
1.41263
2.38075
2.81109
1.29236
2.56062
2.4057
1
1.00001
1.00002
1.00004
1.0001
1.00023
1.00051
1.00116
1.00262
1.00592
1.01344
1.03073
1.07121
1.16925
1.42122
2.372
2.84936
1.32873
2.55559
2.32731
1
1.00001
1.00002
1.00004
1.0001
1.00023
1.00052
1.00117
1.00263
1.00594
1.01347
1.03075
1.07126
1.16934
1.42823
2.32936
2.84506
1.41717
2.52598
2.22919
1
1.00001
1.00002
1.00005
1.0001
1.00023
1.00052
1.00118
1.00265
1.00598
1.01352
1.03076
1.07107
1.16819
1.43027
2.23338
2.93681
1.54027
2.40573
2.11734
1
1.00001
1.00002
1.00005
1.00011
1.00024
1.00053
1.0012
1.00269
1.00604
1.01363
1.0309
1.07109
1.16696
1.42853
2.11794
3.04217
1.65123
2.23156
2.02612
1
1.00001
1.00002
1.00005
1.00011
1.00025
1.00055
1.00123
1.00274
1.00615
1.01383
1.03126
1.07168
1.16719
1.43007
2.03007
3.09
1.73066
2.04533
1.95425
1
1.00001
1.00002
1.00005
1.00011
1.00026
1.00057
1.00127
1.00283
1.00632
1.01415
1.0319
1.073
1.16884
1.44426
1.99003
3.12584
1.80004
1.87746
1.90747
1
1.00001
1.00002
1.00005
1.00012
1.00027
1.0006
1.00134
1.00296
1.00658
1.01465
1.03288
1.07513
1.17301
1.47128
1.97581
3.17032
1.86414
1.71185
1.87309
1
1.00001
1.00002
1.00005
1.00011
1.00027
1.00062
1.0014
1.00313
1.00696
1.01542
1.03438
1.0782
1.17971
1.49986
1.99027
3.24685
1.93799
1.54566
1.8648
1
1.00001
1.00002
1.00004
1.0001
1.00025
1.0006
1.00142
1.00326
1.00739
1.01651
1.03671
1.08283
1.19012
1.53005
2.03954
3.33436
2.00728
1.37342
1.8705
1
1
1.00001
1.00003
1.00009
1.00022
1.00055
1.00134
1.00321
1.00753
1.01739
1.03968
1.09048
1.20801
1.5669
2.13694
3.40445
2.08483
1.26686
1.90654
1
1
1.00001
1.00003
1.00007
1.00019
1.00047
1.00119
1.00295
1.00717
1.01715
1.04063
1.09657
1.23242
1.63812
2.35576
3.56027
2.17602
1.14487
1.95999
1
1
1.00001
1.00002
1.00006
1.00015
1.00039
1.00099
1.00254
1.0064
1.01587
1.0389
1.09556
1.24049
1.6913
2.59797
3.93178
2.34125
1.09815
2.09842
1
1
1.00001
1.00002
1.00005
1.00012
1.0003
1.00079
1.00205
1.00533
1.01377
1.03517
1.08965
1.23249
1.67304
2.6065
3.91958
2.9703
1.23557
2.22021
1
1
1.00001
1.00002
1.00004
1.0001
1.00025
1.00063
1.00162
1.00426
1.01129
1.02991
1.07906
1.21122
1.60732
2.54642
3.67489
4.79119
1.66414
2.33825
1
1
1.00001
1.00002
1.00004
1.00009
1.0002
1.00045
1.00105
1.00248
1.006
1.0149
1.03793
1.09969
1.27793
1.84194
2.71015
4.25345
2.22557
2.51923
1
1
1.00001
1.00002
1.00004
1.00008
1.00018
1.00041
1.00091
1.00203
1.00456
1.01032
1.02363
1.05512
1.13231
1.33621
1.88993
3.72975
2.42318
2.76021
1
1
1.00001
1.00001
1.00003
1.00008
1.00017
1.00037
1.00083
1.00185
1.00413
1.00923
1.0207
1.04682
1.10781
1.2588
1.65999
3.02217
2.70115
2.76109
1
1
1.00001
1.00001
1.00003
1.00007
1.00015
1.00033
1.00072
1.00162
1.0036
1.00804
1.01802
1.04061
1.09279
1.21927
1.53856
2.62131
2.67064
2.61618
1
1
1
1.00001
1.00002
1.00005
1.00012
1.00026
1.00058
1.0013
1.0029
1.00648
1.01454
1.03279
1.07474
1.17561
1.42413
2.29702
2.49151
2.471
1
1
1
1.00001
1.00001
1.00003
1.00007
1.00015
1.00034
1.00076
1.0017
1.00381
1.00855
1.01928
1.04372
1.10112
1.23844
1.66409
2.24789
2.31502
1
1
1
1
1.00001
1.00002
1.00004
1.00008
1.00018
1.0004
1.00088
1.00197
1.00441
1.00986
1.02215
1.05024
1.11532
1.28605
1.73581
2.05293
1
1
1
1
1
1.00001
1.00001
1.00003
1.00006
1.00014
1.00031
1.00067
1.00147
1.00321
1.00703
1.01541
1.03433
1.07538
1.21125
1.51908
1
1
1
1
1
1
1.00001
1.00002
1.00004
1.00008
1.00018
1.00039
1.00087
1.00191
1.0042
1.00927
1.02042
1.04602
1.09769
1.31395
1
1
1
1
1
1
1.00001
1.00001
1.00003
1.00006
1.00012
1.00027
1.00061
1.00134
1.00298
1.00662
1.01466
1.03335
1.07028
1.22023
1
1
1
1
1
1
1
1.00001
1.00001
1.00003
1.00006
1.00013
1.00029
1.00063
1.00139
1.00305
1.00671
1.01481
1.03263
1.07479
1
1
1
1
1
1
1
1
1.00001
1.00002
1.00005
1.0001
1.00022
1.0005
1.0011
1.00245
1.00545
1.01213
1.02712
1.0608
1
1
1
1
1
1
1
1
1.00001
1.00002
1.00004
1.00008
1.00018
1.0004
1.00088
1.00196
1.00437
1.00975
1.02184
1.04936
1
1
1
1
1
1
1
1
1
1.00001
1.00002
1.00005
1.0001
1.00022
1.00049
1.00109
1.0024
1.0053
1.01185
1.02558
1
1
1
1
1
1
1
1
1
1.00001
1.00002
1.00003
1.00008
1.00017
1.00038
1.00084
1.00188
1.00419
1.00976
1.02013
1
1
1
1
1
1
1
1
1
1
1.00001
1.00002
1.00005
1.00012
1.00027
1.0006
1.00135
1.00304
1.00693
1.01512
1
1
1
1
1
1
1
1
1
1
1.00001
1.00001
1.00003
1.00007
1.00016
1.00035
1.00079
1.00175
1.00391
1.00842
1
1
1
1
1
1
1
1
1
1
1
1.00001
1.00002
1.00004
1.0001
1.00022
1.00049
1.00108
1.00245
1.00505
1
1
1
1
1
1
1
1
1
1
1
1.00001
1.00002
1.00003
1.00007
1.00017
1.00038
1.00084
1.00197
1.00408
1
1
1
1
1
1
1
1
1
1
1
1.00001
1.00001
1.00003
1.00006
1.00012
1.00027
1.0006
1.00138
1.00286
2.76217
2.73867
2.75255
2.84475
2.83036
2.82874
2.8248
2.8302
2.85611
2.90148
2.9476
2.98825
2.99916
2.99286
2.9361
2.69403
2.45334
2.09264
1.9616
1.66381
2.77008
2.7431
2.73761
2.73017
2.70014
2.64085
2.60964
2.59382
2.5906
2.60193
2.63724
2.67517
2.69948
2.70269
2.7009
2.6798
2.6082
2.29402
2.13495
1.7874
2.66962
2.67887
2.66313
2.63074
2.59914
2.5473
2.51189
2.4808
2.46238
2.45926
2.46932
2.49658
2.52694
2.53562
2.54631
2.53332
2.49059
2.26246
2.12093
1.80044
2.56539
2.59486
2.59807
2.5838
2.52574
2.44513
2.37432
2.32961
2.30597
2.29579
2.29646
2.30259
2.31928
2.32073
2.31737
2.26249
2.19977
2.02277
1.92532
1.70793
2.46537
2.48424
2.51516
2.49554
2.43985
2.36336
2.30824
2.26519
2.23675
2.20525
2.18757
2.14418
2.11878
2.06579
2.04518
1.99526
1.9604
1.85932
1.79325
1.63723
2.37726
2.43719
2.43136
2.4027
2.32845
2.23711
2.17498
2.14714
2.12762
2.08728
2.02697
1.9581
1.91388
1.88496
1.87797
1.86446
1.85201
1.79328
1.73974
1.59347
2.22975
2.30237
2.31787
2.28319
2.21016
2.12058
2.06805
2.04685
2.03028
1.98564
1.91614
1.84841
1.81559
1.79373
1.78714
1.76955
1.7522
1.69252
1.64835
1.5295
2.07989
2.21842
2.27113
2.24338
2.169
2.07926
2.04056
2.01888
1.97026
1.88589
1.82008
1.76991
1.75387
1.72319
1.70667
1.66419
1.63788
1.57685
1.5428
1.45765
1.92815
2.06878
2.17771
2.16416
2.10837
2.03945
1.98629
1.92625
1.85727
1.7998
1.76981
1.73606
1.70984
1.65371
1.62219
1.564
1.53402
1.48399
1.45781
1.39076
1.76503
1.91436
2.02217
2.07618
2.05245
2.00287
1.95026
1.8785
1.81789
1.7777
1.74978
1.69252
1.62322
1.55759
1.52158
1.48657
1.47376
1.47836
1.51986
1.48999
1.60642
1.82162
1.92831
2.02742
2.02038
1.96756
1.89475
1.81225
1.75262
1.71612
1.67743
1.61783
1.55168
1.50295
1.4615
1.43432
1.44686
1.50369
1.5458
1.47925
1.49115
1.77867
1.82032
1.91142
1.92026
1.86844
1.78723
1.73214
1.69805
1.67177
1.63452
1.56892
1.49323
1.43794
1.39306
1.39288
1.4257
1.51573
1.49189
1.44213
1.31322
1.66468
1.76026
1.79556
1.81447
1.77442
1.72346
1.69615
1.66528
1.62715
1.56766
1.49724
1.42459
1.37996
1.3704
1.38694
1.55724
1.47139
1.46866
1.40273
1.1474
1.4958
1.69151
1.71112
1.71527
1.69045
1.63931
1.63454
1.62188
1.58587
1.53812
1.4506
1.39825
1.40322
1.53429
1.49007
1.43427
1.41863
1.3895
1.34957
1.13737
1.37838
1.60132
1.62369
1.64156
1.65505
1.62979
1.62464
1.61994
1.58992
1.49704
1.4498
1.48193
1.56281
1.53109
1.45557
1.39818
1.33885
1.30196
1.28318
1.0822
1.23892
1.53543
1.57019
1.57703
1.62711
1.63405
1.63309
1.62014
1.55127
1.50098
1.49851
1.51765
1.52774
1.50085
1.39086
1.35207
1.29591
1.26269
1.24417
1.04164
1.13635
1.34954
1.49246
1.54069
1.58547
1.60052
1.59448
1.59833
1.56802
1.54769
1.52145
1.53121
1.51866
1.43804
1.34532
1.32024
1.27856
1.24572
1.22569
1.02742
1.07941
1.23024
1.3737
1.44673
1.49844
1.58113
1.63235
1.63064
1.61926
1.61408
1.58552
1.54019
1.48454
1.40109
1.33491
1.31041
1.27728
1.23551
1.20794
1.02387
1.0629
1.17892
1.28357
1.3923
1.45629
1.59224
1.77095
1.73378
1.70029
1.67176
1.61069
1.52255
1.45349
1.39443
1.34487
1.31951
1.27876
1.22408
1.19417
1.01542
1.04523
1.09766
1.22436
1.41316
1.46414
1.70839
1.75666
1.75305
1.68972
1.62902
1.57345
1.509
1.45521
1.40925
1.36424
1.32705
1.27425
1.21471
1.18664
)
;

boundaryField
{
    inlet
    {
        type            fixedValue;
        value           uniform 1;
    }
    outlet
    {
        type            inletOutlet;
        inletValue      uniform 1;
        value           nonuniform List<scalar> 
20
(
1.66386
1.78745
1.80048
1.70796
1.63725
1.59348
1.52952
1.45765
1.39077
1.48994
1.47923
1.44198
1.40259
1.34962
1.28312
1.24415
1.22568
1.20794
1.19418
1.18664
)
;
    }
    top
    {
        type            symmetryPlane;
    }
    bottom
    {
        type            symmetryPlane;
    }
    step
    {
        type            zeroGradient;
    }
    defaultFaces
    {
        type            empty;
    }
}


// ************************************************************************* //
