/*--------------------------------*- C++ -*----------------------------------*\
  =========                 |
  \\      /  F ield         | OpenFOAM: The Open Source CFD Toolbox
   \\    /   O peration     | Website:  https://openfoam.org
    \\  /    A nd           | Version:  6.0
     \\/     M anipulation  |
\*---------------------------------------------------------------------------*/
FoamFile
{
    version     2.0;
    format      ascii;
    class       volScalarField;
    location    "1";
    object      T;
}
// * * * * * * * * * * * * * * * * * * * * * * * * * * * * * * * * * * * * * //

dimensions      [0 0 0 1 0 0 0];

internalField   nonuniform List<scalar> 
24000
(
0.884134
0.841033
0.818337
0.801944
0.789317
0.780674
0.772793
0.767873
0.765496
0.765753
0.767548
0.773957
0.792284
0.841286
0.976062
1.40167
2.75313
2.63366
2.63765
2.44849
0.884134
0.841033
0.818337
0.801944
0.789317
0.780674
0.772793
0.767873
0.765496
0.765753
0.767548
0.773957
0.792284
0.841287
0.976066
1.40169
2.75331
2.63378
2.63821
2.46143
0.884134
0.841033
0.818337
0.801944
0.789317
0.780674
0.772793
0.767872
0.765496
0.765753
0.767548
0.773957
0.792283
0.841287
0.97607
1.40171
2.75353
2.63395
2.639
2.46925
0.884134
0.841033
0.818337
0.801943
0.789317
0.780674
0.772793
0.767872
0.765496
0.765753
0.767547
0.773956
0.792282
0.841286
0.976072
1.40173
2.75366
2.63417
2.63973
2.47885
0.884134
0.841032
0.818337
0.801943
0.789317
0.780674
0.772793
0.767872
0.765496
0.765752
0.767546
0.773955
0.79228
0.841281
0.976067
1.40174
2.75364
2.63445
2.64055
2.48868
0.884134
0.841032
0.818338
0.801943
0.789317
0.780674
0.772794
0.767871
0.765494
0.765751
0.767544
0.773952
0.792274
0.841269
0.976049
1.40171
2.7534
2.63481
2.64148
2.49859
0.884134
0.841032
0.818338
0.801942
0.789317
0.780673
0.772794
0.76787
0.765492
0.765748
0.767541
0.773947
0.792264
0.841248
0.976008
1.40162
2.75291
2.63526
2.6427
2.50724
0.884135
0.841031
0.818338
0.801941
0.789318
0.780673
0.772794
0.767868
0.765489
0.765745
0.767536
0.773938
0.792247
0.841212
0.975933
1.40141
2.7521
2.63579
2.64433
2.51358
0.884135
0.84103
0.818339
0.80194
0.789318
0.780672
0.772795
0.767865
0.765484
0.765739
0.767529
0.773925
0.79222
0.841152
0.975802
1.40102
2.75086
2.63645
2.64564
2.52321
0.884136
0.841029
0.81834
0.801939
0.789319
0.780671
0.772795
0.767862
0.765477
0.765731
0.767517
0.773904
0.792178
0.841057
0.975587
1.40033
2.74914
2.6371
2.64746
2.52726
0.884137
0.841027
0.818341
0.801937
0.789321
0.780669
0.772796
0.767856
0.765467
0.765719
0.7675
0.773875
0.792116
0.840914
0.975254
1.39922
2.74677
2.63772
2.64902
2.53298
0.884139
0.841025
0.818343
0.801934
0.789322
0.780667
0.772797
0.767849
0.765453
0.765702
0.767476
0.773832
0.792026
0.840705
0.974754
1.39751
2.7436
2.63811
2.65042
2.53784
0.884141
0.841022
0.818344
0.80193
0.789325
0.780664
0.772798
0.767839
0.765433
0.765679
0.767443
0.773772
0.791899
0.840406
0.974028
1.39491
2.73967
2.63832
2.6518
2.54045
0.884143
0.841018
0.818347
0.801926
0.789328
0.78066
0.7728
0.767826
0.765406
0.765648
0.767399
0.77369
0.791724
0.83999
0.973
1.3912
2.73434
2.63884
2.65167
2.54239
0.884146
0.841013
0.81835
0.80192
0.789332
0.780655
0.772802
0.767809
0.765371
0.765606
0.767339
0.773581
0.791488
0.839426
0.971584
1.38611
2.72728
2.63975
2.65007
2.54229
0.884152
0.841008
0.818353
0.801911
0.78934
0.78065
0.772805
0.767786
0.765325
0.765553
0.767262
0.773438
0.791175
0.838673
0.969673
1.37924
2.71821
2.63947
2.64623
2.54056
0.884161
0.840998
0.81836
0.801902
0.789349
0.780642
0.772809
0.767759
0.765269
0.765485
0.767163
0.773252
0.790767
0.837681
0.967121
1.37019
2.7055
2.63833
2.63767
2.53562
0.884173
0.840986
0.818371
0.801892
0.78936
0.780629
0.772815
0.767728
0.765199
0.765402
0.767038
0.773014
0.790239
0.836395
0.963771
1.35837
2.68783
2.6365
2.62885
2.52505
0.884187
0.840971
0.818386
0.801879
0.789372
0.780615
0.772823
0.76769
0.765112
0.765297
0.76688
0.772712
0.789564
0.834733
0.959361
1.34268
2.6632
2.63215
2.60987
2.50459
0.884203
0.840954
0.818402
0.801865
0.789385
0.780599
0.772832
0.767647
0.765005
0.765167
0.766685
0.772338
0.788721
0.832621
0.953589
1.32133
2.62952
2.61926
2.5915
2.46026
0.997684
0.989717
0.98179
0.971259
0.963706
0.956687
0.951511
0.947714
0.947735
0.94846
0.951984
0.962237
0.98858
1.05443
1.22289
1.71161
3.09333
2.5688
2.808
2.74521
0.997684
0.989717
0.98179
0.971259
0.963706
0.956687
0.951511
0.947714
0.947735
0.94846
0.951984
0.962237
0.988581
1.05443
1.2229
1.7117
3.09287
2.56938
2.80854
2.75176
0.997684
0.989717
0.98179
0.971259
0.963706
0.956687
0.951511
0.947714
0.947735
0.94846
0.951985
0.962238
0.988583
1.05444
1.22291
1.71189
3.09196
2.57037
2.80919
2.75496
0.997684
0.989717
0.98179
0.971259
0.963706
0.956687
0.951512
0.947714
0.947735
0.94846
0.951985
0.962239
0.988585
1.05445
1.22292
1.71215
3.09049
2.5719
2.80993
2.75758
0.997684
0.989717
0.98179
0.971259
0.963706
0.956687
0.951512
0.947713
0.947735
0.948459
0.951984
0.962238
0.988586
1.05445
1.22293
1.71245
3.08833
2.57413
2.8107
2.76061
0.997684
0.989717
0.98179
0.971258
0.963706
0.956687
0.951512
0.947713
0.947734
0.948458
0.951983
0.962236
0.988582
1.05445
1.22291
1.71278
3.08535
2.57714
2.81149
2.76312
0.997685
0.989717
0.981791
0.971258
0.963706
0.956687
0.951512
0.947711
0.947732
0.948456
0.951979
0.96223
0.988572
1.05443
1.22286
1.71308
3.08141
2.58101
2.81219
2.76509
0.997685
0.989716
0.981792
0.971257
0.963707
0.956686
0.951513
0.947709
0.947729
0.948452
0.951974
0.96222
0.988552
1.05439
1.22276
1.71329
3.07638
2.58586
2.81259
2.76493
0.997686
0.989716
0.981793
0.971256
0.963707
0.956686
0.951513
0.947705
0.947725
0.948446
0.951964
0.962204
0.988519
1.05432
1.22259
1.71331
3.07013
2.5917
2.8131
2.76448
0.997687
0.989715
0.981794
0.971255
0.963709
0.956685
0.951514
0.9477
0.947719
0.948437
0.95195
0.962178
0.988465
1.05421
1.22231
1.71302
3.06252
2.59861
2.81339
2.76277
0.997689
0.989713
0.981796
0.971253
0.96371
0.956683
0.951515
0.947692
0.947709
0.948424
0.95193
0.962139
0.988384
1.05403
1.22188
1.71225
3.05344
2.60648
2.81297
2.75833
0.997691
0.989711
0.981798
0.971251
0.963713
0.956681
0.951516
0.947682
0.947696
0.948406
0.9519
0.962082
0.988265
1.05377
1.22125
1.71079
3.04268
2.61528
2.81195
2.75378
0.997695
0.989708
0.981802
0.971248
0.963716
0.956678
0.951518
0.947667
0.947678
0.948381
0.951859
0.962003
0.988097
1.05339
1.22035
1.70823
3.03175
2.62335
2.80946
2.74388
0.9977
0.989704
0.981806
0.971244
0.963721
0.956674
0.95152
0.947647
0.947654
0.948348
0.951803
0.961895
0.987865
1.05285
1.2191
1.70433
3.01939
2.63067
2.80611
2.73612
0.997706
0.989699
0.981811
0.971239
0.963727
0.956668
0.951523
0.947621
0.947622
0.948303
0.951729
0.961749
0.987551
1.05213
1.21738
1.69879
3.00441
2.63948
2.79933
2.72015
0.997709
0.989697
0.981815
0.971238
0.963726
0.956667
0.951523
0.947592
0.947576
0.948244
0.951633
0.961559
0.987137
1.05116
1.21507
1.69106
2.98705
2.64519
2.79219
2.70674
0.997703
0.989703
0.981811
0.971243
0.963722
0.956671
0.951513
0.947564
0.947517
0.948168
0.951508
0.961311
0.986596
1.04989
1.212
1.68074
2.96446
2.65013
2.77701
2.68322
0.997698
0.989709
0.981804
0.97125
0.963717
0.956676
0.9515
0.947529
0.947444
0.948072
0.95135
0.960997
0.985904
1.04826
1.20808
1.66678
2.94498
2.66045
2.76352
2.65782
0.99769
0.989717
0.981796
0.971259
0.963712
0.95668
0.951485
0.947489
0.947354
0.947955
0.951154
0.960604
0.985034
1.04618
1.20305
1.64843
2.92502
2.66246
2.73546
2.62016
0.997683
0.989724
0.98179
0.971267
0.963707
0.95668
0.951473
0.947443
0.94724
0.947808
0.950915
0.960128
0.983973
1.04361
1.19665
1.62529
2.89432
2.65787
2.72047
2.56558
1.0247
1.03088
1.02707
1.02291
1.01898
1.0137
1.01002
1.00723
1.00724
1.00788
1.0118
1.0233
1.05243
1.12401
1.30344
1.80927
3.22407
2.28097
2.76786
2.78655
1.0247
1.03088
1.02707
1.02291
1.01898
1.0137
1.01002
1.00723
1.00724
1.00788
1.0118
1.0233
1.05243
1.12402
1.30346
1.8094
3.22396
2.28106
2.76876
2.79082
1.0247
1.03088
1.02707
1.02291
1.01898
1.0137
1.01002
1.00723
1.00724
1.00788
1.01181
1.02331
1.05244
1.12404
1.30351
1.80969
3.22336
2.28184
2.76986
2.79549
1.0247
1.03088
1.02707
1.02291
1.01898
1.0137
1.01002
1.00723
1.00724
1.00788
1.01181
1.02331
1.05244
1.12406
1.30355
1.81014
3.22217
2.28357
2.77129
2.79805
1.0247
1.03088
1.02707
1.02291
1.01898
1.0137
1.01002
1.00723
1.00724
1.00788
1.01181
1.02331
1.05245
1.12408
1.30359
1.81073
3.22027
2.28648
2.77304
2.79941
1.0247
1.03088
1.02707
1.02291
1.01898
1.0137
1.01002
1.00723
1.00724
1.00788
1.01181
1.02331
1.05245
1.12409
1.3036
1.8114
3.21757
2.29081
2.77497
2.7992
1.0247
1.03088
1.02707
1.02291
1.01898
1.0137
1.01002
1.00723
1.00724
1.00788
1.0118
1.02331
1.05245
1.1241
1.30359
1.81208
3.21405
2.29659
2.77655
2.79831
1.0247
1.03088
1.02707
1.0229
1.01898
1.0137
1.01001
1.00723
1.00724
1.00788
1.0118
1.0233
1.05244
1.12408
1.30352
1.8127
3.20959
2.30373
2.77805
2.79623
1.0247
1.03088
1.02708
1.0229
1.01898
1.0137
1.01001
1.00723
1.00723
1.00787
1.01179
1.02329
1.05241
1.12402
1.30338
1.81316
3.20407
2.3124
2.77946
2.79112
1.0247
1.03088
1.02708
1.0229
1.01898
1.0137
1.01001
1.00722
1.00723
1.00786
1.01178
1.02326
1.05236
1.12393
1.30315
1.8133
3.19753
2.32267
2.77959
2.78633
1.0247
1.03088
1.02708
1.0229
1.01898
1.0137
1.01001
1.00722
1.00722
1.00785
1.01176
1.02323
1.05228
1.12377
1.30278
1.81297
3.18982
2.33484
2.77953
2.77587
1.0247
1.03088
1.02708
1.0229
1.01899
1.0137
1.01001
1.00721
1.00721
1.00784
1.01173
1.02317
1.05217
1.12352
1.30221
1.81193
3.18109
2.34803
2.77816
2.76853
1.0247
1.03088
1.02708
1.0229
1.01899
1.0137
1.01001
1.00719
1.0072
1.00782
1.0117
1.02309
1.05201
1.12316
1.30137
1.81002
3.16935
2.36528
2.7746
2.75293
1.0247
1.03088
1.02708
1.0229
1.01899
1.0137
1.01001
1.00717
1.00718
1.00779
1.01164
1.02299
1.05178
1.12264
1.30018
1.80689
3.15572
2.38419
2.77104
2.74199
1.0247
1.03088
1.02709
1.02289
1.019
1.01369
1.01
1.00715
1.00716
1.00775
1.01157
1.02284
1.05146
1.12194
1.29854
1.80213
3.13943
2.4053
2.76325
2.71986
1.02471
1.03088
1.02709
1.02289
1.019
1.01369
1.01
1.00712
1.00713
1.0077
1.01148
1.02265
1.05105
1.12098
1.29635
1.79509
3.12336
2.42434
2.75619
2.70249
1.02471
1.03088
1.0271
1.02288
1.01901
1.01368
1.00999
1.00707
1.00709
1.00764
1.01136
1.02241
1.05051
1.11973
1.29346
1.78532
3.10513
2.44365
2.74046
2.673
1.02471
1.03087
1.02711
1.02287
1.01902
1.01368
1.00998
1.00702
1.00704
1.00756
1.01121
1.02209
1.04982
1.11812
1.28972
1.77216
3.08441
2.46172
2.72939
2.6456
1.02471
1.03087
1.02712
1.02286
1.01903
1.01366
1.00997
1.00696
1.00698
1.00747
1.01103
1.02171
1.04896
1.11609
1.2849
1.75511
3.0581
2.47988
2.70334
2.60338
1.02471
1.03087
1.02714
1.02284
1.01905
1.01364
1.00997
1.00689
1.00691
1.00735
1.01081
1.02124
1.04792
1.1136
1.27881
1.7339
3.02237
2.49779
2.69602
2.5505
1.02131
1.03451
1.04049
1.04281
1.04318
1.04201
1.04072
1.04048
1.04049
1.04212
1.04733
1.06059
1.09238
1.16825
1.35775
1.84642
3.30145
1.97042
2.68566
2.82695
1.02131
1.03451
1.04049
1.04281
1.04318
1.04201
1.04072
1.04048
1.04049
1.04212
1.04733
1.06059
1.09239
1.16827
1.35781
1.84652
3.30161
1.97042
2.68773
2.82954
1.02131
1.03451
1.04049
1.04281
1.04318
1.04201
1.04072
1.04048
1.04049
1.04212
1.04733
1.06059
1.0924
1.1683
1.3579
1.84679
3.30127
1.97178
2.68978
2.83118
1.02131
1.03451
1.04049
1.04281
1.04318
1.04201
1.04072
1.04048
1.04049
1.04213
1.04733
1.0606
1.09241
1.16834
1.35801
1.84726
3.30029
1.97491
2.69264
2.83225
1.02131
1.03451
1.04049
1.04281
1.04318
1.04201
1.04072
1.04048
1.04049
1.04213
1.04733
1.06061
1.09243
1.16838
1.35812
1.84792
3.29873
1.97979
2.6961
2.83146
1.02131
1.03451
1.04049
1.04281
1.04318
1.04201
1.04072
1.04048
1.04049
1.04213
1.04734
1.06061
1.09244
1.16842
1.35821
1.84875
3.29653
1.98681
2.69957
2.82951
1.02131
1.03451
1.04049
1.04281
1.04318
1.04201
1.04072
1.04048
1.04049
1.04213
1.04734
1.06061
1.09245
1.16845
1.35826
1.84972
3.29369
1.9961
2.70441
2.8249
1.02131
1.03451
1.04049
1.04281
1.04318
1.04201
1.04072
1.04048
1.04049
1.04212
1.04733
1.06061
1.09245
1.16846
1.35826
1.85077
3.29022
2.00786
2.70799
2.82107
1.02131
1.03451
1.04049
1.04281
1.04318
1.04201
1.04072
1.04048
1.04049
1.04212
1.04733
1.0606
1.09243
1.16843
1.35817
1.85184
3.28613
2.02179
2.7122
2.81297
1.02131
1.03451
1.04049
1.04281
1.04318
1.04201
1.04072
1.04047
1.04048
1.04211
1.04732
1.06058
1.09239
1.16837
1.35798
1.85287
3.28124
2.03751
2.71523
2.80715
1.02131
1.03451
1.04049
1.04281
1.04318
1.04201
1.04071
1.04047
1.04048
1.0421
1.0473
1.06055
1.09233
1.16824
1.35764
1.85377
3.27526
2.05581
2.71857
2.79459
1.02131
1.03451
1.04049
1.04282
1.04318
1.04202
1.04071
1.04046
1.04047
1.04209
1.04727
1.0605
1.09222
1.16804
1.35711
1.85443
3.26863
2.07673
2.72021
2.78606
1.02131
1.03451
1.04049
1.04282
1.04318
1.04202
1.04071
1.04045
1.04046
1.04207
1.04724
1.06043
1.09208
1.16773
1.35631
1.85472
3.26099
2.09841
2.72115
2.76788
1.02131
1.03451
1.04049
1.04282
1.04318
1.04202
1.0407
1.04044
1.04044
1.04204
1.04719
1.06033
1.09187
1.16729
1.35514
1.85452
3.25118
2.12533
2.72034
2.75609
1.02131
1.03451
1.04049
1.04282
1.04318
1.04203
1.04069
1.04043
1.04041
1.042
1.04712
1.06019
1.09158
1.16667
1.35354
1.85336
3.24246
2.14907
2.71592
2.73118
1.02131
1.03451
1.04049
1.04282
1.04318
1.04204
1.04067
1.04042
1.04037
1.04195
1.04703
1.06001
1.09119
1.16581
1.35129
1.85141
3.22779
2.18332
2.71227
2.71476
1.02131
1.03451
1.04049
1.04282
1.04318
1.04206
1.04064
1.04041
1.04033
1.04189
1.04691
1.05978
1.09068
1.16469
1.34835
1.84783
3.21362
2.21258
2.70324
2.68046
1.0213
1.03451
1.04048
1.04283
1.04317
1.04208
1.0406
1.04039
1.04027
1.04181
1.04677
1.05948
1.09003
1.16322
1.34447
1.84262
3.19385
2.25063
2.69707
2.65727
1.0213
1.03452
1.04048
1.04283
1.04317
1.04211
1.04056
1.04038
1.0402
1.04171
1.04659
1.05911
1.08922
1.16135
1.33998
1.8293
3.17749
2.278
2.68372
2.6085
1.0213
1.03452
1.04048
1.04283
1.04317
1.0421
1.04054
1.04034
1.04015
1.04161
1.04639
1.05868
1.08824
1.15904
1.33454
1.80994
3.15411
2.31805
2.67822
2.56451
1.01035
1.02121
1.03004
1.03658
1.04081
1.04319
1.04479
1.04597
1.04734
1.0502
1.05669
1.07141
1.10503
1.18329
1.37859
1.84166
3.35298
1.70039
2.58561
2.83069
1.01035
1.02121
1.03004
1.03658
1.04081
1.04319
1.04479
1.04597
1.04734
1.0502
1.05669
1.07141
1.10504
1.18332
1.37868
1.84179
3.35339
1.70009
2.58926
2.83564
1.01035
1.02121
1.03004
1.03658
1.04081
1.04319
1.04479
1.04597
1.04734
1.0502
1.0567
1.07142
1.10506
1.18337
1.37883
1.84221
3.35327
1.70172
2.59349
2.84032
1.01035
1.02121
1.03004
1.03658
1.04081
1.04319
1.04479
1.04597
1.04734
1.0502
1.0567
1.07143
1.10509
1.18343
1.37899
1.84296
3.35234
1.70598
2.59902
2.84173
1.01035
1.02121
1.03004
1.03658
1.04081
1.04319
1.04479
1.04597
1.04734
1.0502
1.0567
1.07144
1.10511
1.1835
1.37915
1.84401
3.35086
1.7124
2.60512
2.84353
1.01035
1.02121
1.03004
1.03658
1.04081
1.04319
1.04479
1.04597
1.04734
1.0502
1.05671
1.07145
1.10514
1.18357
1.37931
1.84537
3.34865
1.72169
2.61107
2.84313
1.01035
1.02121
1.03004
1.03658
1.04081
1.04319
1.04479
1.04597
1.04734
1.0502
1.05671
1.07146
1.10516
1.18363
1.37942
1.84699
3.34583
1.73373
2.61876
2.84166
1.01035
1.02121
1.03004
1.03658
1.04081
1.04319
1.04479
1.04597
1.04734
1.0502
1.05671
1.07146
1.10517
1.18368
1.37947
1.84884
3.34232
1.74897
2.62678
2.83905
1.01035
1.02121
1.03004
1.03658
1.04081
1.04319
1.04479
1.04597
1.04733
1.0502
1.05671
1.07146
1.10517
1.18369
1.37943
1.85082
3.33837
1.76706
2.63285
2.83284
1.01035
1.02121
1.03004
1.03658
1.04081
1.04319
1.04479
1.04597
1.04733
1.0502
1.0567
1.07144
1.10515
1.18366
1.37927
1.85289
3.33389
1.78859
2.64202
2.82767
1.01035
1.02121
1.03004
1.03658
1.04081
1.04319
1.04479
1.04596
1.04733
1.05019
1.05669
1.07142
1.1051
1.18358
1.37898
1.85492
3.32921
1.81136
2.648
2.81622
1.01035
1.02121
1.03004
1.03658
1.04081
1.04319
1.04479
1.04596
1.04732
1.05018
1.05667
1.07138
1.10502
1.18343
1.3785
1.85693
3.32247
1.83882
2.65457
2.80805
1.01035
1.02121
1.03004
1.03658
1.04081
1.04319
1.04479
1.04595
1.04731
1.05016
1.05664
1.07132
1.1049
1.18319
1.37784
1.85852
3.31705
1.8651
2.65959
2.79057
1.01035
1.02121
1.03004
1.03658
1.04081
1.04319
1.04479
1.04594
1.04729
1.05014
1.0566
1.07124
1.10472
1.18283
1.37682
1.85987
3.3092
1.89902
2.66374
2.77903
1.01035
1.02121
1.03004
1.03658
1.04081
1.04319
1.04478
1.04593
1.04728
1.05011
1.05654
1.07112
1.10448
1.18232
1.37547
1.86038
3.30345
1.92983
2.66505
2.7546
1.01035
1.02122
1.03004
1.03658
1.04081
1.04319
1.04478
1.04591
1.04725
1.05007
1.05646
1.07097
1.10414
1.1816
1.37352
1.86029
3.29329
1.97091
2.66816
2.73905
1.01035
1.02122
1.03004
1.03658
1.04081
1.0432
1.04477
1.04589
1.04723
1.05002
1.05636
1.07076
1.1037
1.18064
1.37099
1.85872
3.28659
2.0045
2.66538
2.70629
1.01035
1.02122
1.03003
1.03658
1.04081
1.0432
1.04476
1.04587
1.04719
1.04996
1.05624
1.07051
1.10313
1.17937
1.36755
1.85609
3.27132
2.05541
2.66439
2.68417
1.01035
1.02122
1.03003
1.03659
1.04081
1.0432
1.04475
1.04584
1.04715
1.04988
1.05609
1.07019
1.10241
1.17776
1.36329
1.85089
3.2611
2.09002
2.6612
2.63494
1.01035
1.02122
1.03003
1.03658
1.0408
1.04319
1.04473
1.04582
1.04711
1.0498
1.05591
1.0698
1.10154
1.17576
1.35793
1.84214
3.24329
2.14689
2.66166
2.59548
1.00364
1.00928
1.01616
1.02258
1.02782
1.03174
1.03487
1.03745
1.03984
1.04352
1.05096
1.06673
1.10155
1.18099
1.37918
1.81727
3.40769
1.48459
2.49239
2.83802
1.00364
1.00928
1.01616
1.02258
1.02782
1.03174
1.03487
1.03745
1.03984
1.04352
1.05096
1.06673
1.10156
1.18103
1.37932
1.81745
3.40828
1.48386
2.4986
2.84301
1.00364
1.00928
1.01616
1.02258
1.02782
1.03174
1.03487
1.03745
1.03984
1.04352
1.05096
1.06674
1.10159
1.1811
1.37952
1.81806
3.40831
1.4857
2.50508
2.85447
1.00364
1.00928
1.01616
1.02258
1.02782
1.03174
1.03487
1.03745
1.03984
1.04353
1.05097
1.06676
1.10162
1.18119
1.37973
1.81917
3.40735
1.49097
2.51372
2.85734
1.00364
1.00928
1.01616
1.02258
1.02782
1.03174
1.03487
1.03745
1.03984
1.04353
1.05097
1.06677
1.10166
1.18128
1.37996
1.8207
3.40587
1.49876
2.52289
2.86005
1.00364
1.00928
1.01616
1.02258
1.02782
1.03174
1.03487
1.03745
1.03984
1.04353
1.05098
1.06679
1.1017
1.18139
1.38017
1.82268
3.40355
1.50996
2.53327
2.86125
1.00364
1.00928
1.01616
1.02258
1.02782
1.03174
1.03487
1.03745
1.03984
1.04353
1.05099
1.0668
1.10173
1.18148
1.38034
1.82507
3.40054
1.5245
2.54288
2.86055
1.00364
1.00928
1.01616
1.02258
1.02782
1.03174
1.03487
1.03745
1.03984
1.04353
1.05099
1.06681
1.10176
1.18156
1.38044
1.82783
3.39687
1.54252
2.55587
2.85874
1.00364
1.00928
1.01616
1.02258
1.02782
1.03174
1.03487
1.03745
1.03984
1.04353
1.05099
1.06682
1.10177
1.18162
1.38046
1.83085
3.39274
1.56382
2.56514
2.85378
1.00364
1.00928
1.01616
1.02258
1.02782
1.03174
1.03487
1.03744
1.03984
1.04353
1.05099
1.06681
1.10177
1.18164
1.38035
1.83411
3.38776
1.58961
2.57919
2.84917
1.00364
1.00928
1.01616
1.02258
1.02782
1.03174
1.03487
1.03744
1.03984
1.04353
1.05098
1.0668
1.10174
1.18161
1.38012
1.83733
3.38334
1.61674
2.58872
2.83873
1.00364
1.00928
1.01616
1.02258
1.02782
1.03174
1.03487
1.03744
1.03983
1.04352
1.05096
1.06677
1.10169
1.18152
1.37968
1.84069
3.37707
1.65039
2.60162
2.83111
1.00364
1.00928
1.01616
1.02258
1.02782
1.03174
1.03487
1.03744
1.03983
1.04351
1.05094
1.06673
1.1016
1.18135
1.3791
1.84368
3.37199
1.682
2.60928
2.81456
1.00363
1.00928
1.01616
1.02258
1.02782
1.03174
1.03487
1.03743
1.03982
1.04349
1.05091
1.06666
1.10146
1.18107
1.37821
1.84663
3.36277
1.72168
2.6213
2.80358
1.00363
1.00928
1.01616
1.02258
1.02782
1.03174
1.03487
1.03743
1.03981
1.04347
1.05086
1.06657
1.10126
1.18068
1.37707
1.84875
3.35717
1.75653
2.62632
2.78027
1.00363
1.00928
1.01616
1.02258
1.02782
1.03174
1.03486
1.03742
1.03979
1.04344
1.0508
1.06645
1.10099
1.1801
1.37539
1.8506
3.34615
1.80445
2.63528
2.7653
1.00363
1.00928
1.01616
1.02258
1.02782
1.03174
1.03486
1.03741
1.03977
1.0434
1.05073
1.06628
1.10063
1.17933
1.37328
1.85087
3.34085
1.84264
2.63763
2.73386
1.00363
1.00928
1.01616
1.02258
1.02782
1.03174
1.03486
1.0374
1.03975
1.04335
1.05063
1.06606
1.10015
1.17828
1.37033
1.85039
3.32709
1.89859
2.64235
2.71307
1.00363
1.00928
1.01616
1.02258
1.02781
1.03174
1.03485
1.03738
1.03973
1.0433
1.0505
1.06579
1.09955
1.17694
1.36671
1.84756
3.32109
1.93926
2.64424
2.66388
1.00364
1.00928
1.01616
1.02258
1.02781
1.03174
1.03485
1.03737
1.0397
1.04323
1.05035
1.06546
1.0988
1.17523
1.36199
1.84321
3.3068
2.00479
2.6511
2.62847
1.00076
1.00298
1.00617
1.0106
1.01503
1.01896
1.02234
1.02529
1.02799
1.03183
1.03952
1.05565
1.0909
1.17063
1.3698
1.786
3.4527
1.31806
2.41976
2.84383
1.00076
1.00298
1.00617
1.0106
1.01503
1.01896
1.02234
1.02529
1.02799
1.03183
1.03953
1.05566
1.09092
1.17068
1.37
1.78622
3.4532
1.31703
2.4278
2.85102
1.00076
1.00298
1.00617
1.0106
1.01503
1.01896
1.02234
1.02529
1.02799
1.03183
1.03953
1.05567
1.09095
1.17077
1.37026
1.78703
3.45312
1.31928
2.43573
2.85938
1.00076
1.00298
1.00617
1.0106
1.01503
1.01896
1.02234
1.02529
1.02799
1.03184
1.03954
1.05569
1.091
1.17088
1.37054
1.78849
3.45191
1.32564
2.44578
2.86864
1.00076
1.00298
1.00617
1.0106
1.01503
1.01896
1.02234
1.02529
1.02799
1.03184
1.03955
1.05571
1.09105
1.17101
1.37083
1.79049
3.45015
1.33481
2.45676
2.87234
1.00076
1.00298
1.00617
1.0106
1.01503
1.01896
1.02234
1.02529
1.02799
1.03184
1.03956
1.05573
1.0911
1.17114
1.37111
1.79305
3.44751
1.34768
2.46984
2.87491
1.00076
1.00298
1.00617
1.0106
1.01503
1.01896
1.02234
1.02529
1.02799
1.03184
1.03956
1.05575
1.09115
1.17128
1.37135
1.79613
3.44404
1.36427
2.48094
2.87472
1.00076
1.00298
1.00617
1.0106
1.01503
1.01896
1.02234
1.02529
1.02799
1.03185
1.03957
1.05577
1.09119
1.1714
1.37154
1.79967
3.43989
1.38455
2.49673
2.87363
1.00076
1.00298
1.00617
1.0106
1.01503
1.01896
1.02234
1.02529
1.02799
1.03185
1.03957
1.05578
1.09122
1.1715
1.37165
1.80358
3.43525
1.40815
2.50847
2.87
1.00076
1.00298
1.00616
1.0106
1.01503
1.01896
1.02234
1.02529
1.02799
1.03185
1.03958
1.05579
1.09124
1.17157
1.37162
1.80787
3.42943
1.43696
2.52557
2.86607
1.00076
1.00298
1.00616
1.0106
1.01503
1.01896
1.02234
1.02529
1.02799
1.03185
1.03957
1.05578
1.09124
1.1716
1.3715
1.81219
3.42444
1.46685
2.53705
2.85692
1.00076
1.00298
1.00616
1.01061
1.01503
1.01896
1.02234
1.02529
1.02799
1.03184
1.03957
1.05577
1.09121
1.17157
1.37115
1.8168
3.41735
1.50404
2.55426
2.85006
1.00076
1.00298
1.00617
1.01061
1.01503
1.01896
1.02234
1.02529
1.02798
1.03184
1.03955
1.05574
1.09115
1.17147
1.37068
1.82107
3.41243
1.54059
2.56569
2.83507
1.00076
1.00298
1.00617
1.01061
1.01503
1.01896
1.02234
1.02529
1.02798
1.03183
1.03953
1.0557
1.09105
1.17129
1.3699
1.82545
3.40398
1.58576
2.58198
2.82496
1.00076
1.00298
1.00617
1.0106
1.01503
1.01896
1.02234
1.02528
1.02797
1.03181
1.0395
1.05563
1.0909
1.171
1.36897
1.82904
3.3984
1.62507
2.59111
2.80345
1.00076
1.00298
1.00617
1.0106
1.01503
1.01896
1.02234
1.02528
1.02796
1.03179
1.03945
1.05553
1.09069
1.17057
1.36759
1.83253
3.38706
1.67682
2.6041
2.78942
1.00076
1.00298
1.00617
1.0106
1.01503
1.01896
1.02234
1.02528
1.02795
1.03176
1.03939
1.0554
1.09041
1.16997
1.36593
1.83461
3.3831
1.7184
2.61008
2.75949
1.00076
1.00298
1.00617
1.0106
1.01503
1.01896
1.02234
1.02527
1.02794
1.03173
1.03932
1.05523
1.09003
1.16915
1.3635
1.8363
3.37043
1.77972
2.61945
2.74003
1.00076
1.00298
1.00617
1.0106
1.01503
1.01895
1.02234
1.02526
1.02793
1.03169
1.03922
1.05502
1.08954
1.16808
1.36057
1.83569
3.36841
1.8228
2.62359
2.69059
1.00076
1.00298
1.00617
1.0106
1.01503
1.01895
1.02234
1.02526
1.02791
1.03164
1.0391
1.05474
1.08891
1.16668
1.35658
1.83418
3.35495
1.89598
2.63386
2.66048
1.0001
1.00046
1.00138
1.00324
1.00587
1.00871
1.01145
1.0141
1.01676
1.02057
1.02825
1.0444
1.07971
1.15939
1.35895
1.75634
3.49534
1.19367
2.35057
2.84226
1.0001
1.00046
1.00138
1.00324
1.00587
1.00871
1.01145
1.0141
1.01676
1.02057
1.02825
1.04441
1.07973
1.15946
1.35931
1.75659
3.49536
1.1923
2.35898
2.85288
1.0001
1.00046
1.00138
1.00324
1.00587
1.00871
1.01145
1.0141
1.01676
1.02057
1.02826
1.04443
1.07978
1.15957
1.35954
1.75764
3.49493
1.19499
2.36857
2.86284
1.0001
1.00046
1.00138
1.00324
1.00587
1.00871
1.01145
1.0141
1.01676
1.02058
1.02827
1.04445
1.07983
1.1597
1.35969
1.75956
3.49333
1.20237
2.37998
2.8693
1.0001
1.00046
1.00138
1.00324
1.00587
1.00871
1.01145
1.0141
1.01676
1.02058
1.02828
1.04447
1.07988
1.15985
1.36004
1.76207
3.49105
1.21283
2.39055
2.8759
1.0001
1.00046
1.00138
1.00324
1.00587
1.00871
1.01145
1.0141
1.01676
1.02058
1.02829
1.0445
1.07995
1.16001
1.3604
1.76524
3.48787
1.22703
2.40524
2.88166
1.0001
1.00046
1.00138
1.00324
1.00587
1.00871
1.01145
1.0141
1.01676
1.02059
1.0283
1.04452
1.08001
1.16016
1.36073
1.76903
3.48366
1.24514
2.41713
2.8833
1.0001
1.00046
1.00138
1.00324
1.00587
1.00871
1.01145
1.0141
1.01676
1.02059
1.02831
1.04454
1.08006
1.16031
1.361
1.77335
3.47871
1.26701
2.43439
2.88378
1.0001
1.00046
1.00138
1.00324
1.00587
1.00871
1.01145
1.0141
1.01676
1.02059
1.02831
1.04457
1.08011
1.16046
1.3612
1.77809
3.47326
1.29226
2.44822
2.88274
1.0001
1.00046
1.00138
1.00324
1.00587
1.00871
1.01145
1.0141
1.01676
1.02059
1.02832
1.04458
1.08015
1.16058
1.36128
1.78332
3.46653
1.32273
2.46699
2.8804
1.0001
1.00046
1.00138
1.00324
1.00587
1.00871
1.01145
1.0141
1.01676
1.0206
1.02832
1.04459
1.08017
1.16067
1.36128
1.78864
3.46047
1.3547
2.48155
2.87451
1.0001
1.00046
1.00138
1.00324
1.00587
1.00871
1.01145
1.0141
1.01676
1.02059
1.02832
1.04459
1.08017
1.1607
1.36105
1.79435
3.45252
1.39343
2.50046
2.86922
1.0001
1.00046
1.00138
1.00324
1.00587
1.00871
1.01145
1.0141
1.01676
1.02059
1.02832
1.04458
1.08014
1.16067
1.3607
1.79982
3.44615
1.43241
2.51466
2.85739
1.0001
1.00046
1.00138
1.00324
1.00587
1.00871
1.01145
1.0141
1.01676
1.02059
1.0283
1.04455
1.08007
1.16056
1.36005
1.80547
3.43724
1.48041
2.53423
2.84885
1.0001
1.00046
1.00138
1.00324
1.00587
1.00871
1.01145
1.0141
1.01675
1.02058
1.02828
1.0445
1.07997
1.16036
1.35926
1.81035
3.43232
1.52418
2.54673
2.83051
1.0001
1.00046
1.00138
1.00324
1.00587
1.0087
1.01145
1.0141
1.01675
1.02056
1.02825
1.04443
1.07981
1.16004
1.35807
1.81529
3.42088
1.57996
2.56423
2.81795
1.0001
1.00046
1.00138
1.00324
1.00587
1.0087
1.01145
1.0141
1.01675
1.02055
1.02821
1.04433
1.07959
1.15959
1.35675
1.81877
3.41617
1.62381
2.57254
2.79067
1.0001
1.00046
1.00138
1.00324
1.00587
1.0087
1.01145
1.0141
1.01674
1.02053
1.02815
1.0442
1.07929
1.15896
1.35475
1.82213
3.40283
1.68851
2.58626
2.77263
1.0001
1.00046
1.00138
1.00324
1.00587
1.0087
1.01145
1.0141
1.01673
1.0205
1.02808
1.04403
1.07891
1.15811
1.35241
1.8232
3.40247
1.73366
2.59235
2.72217
1.0001
1.00046
1.00138
1.00324
1.00587
1.0087
1.01145
1.0141
1.01672
1.02046
1.02798
1.04381
1.0784
1.15697
1.34904
1.82372
3.39041
1.81107
2.60456
2.69983
0.999882
0.999757
0.999744
1.00008
1.00096
1.00222
1.00394
1.00598
1.00842
1.01213
1.0197
1.03573
1.07093
1.14985
1.35575
1.73506
3.52895
1.10814
2.28803
2.83766
0.999882
0.999757
0.999744
1.00008
1.00096
1.00222
1.00394
1.00598
1.00842
1.01213
1.01971
1.03574
1.07095
1.14991
1.35622
1.73569
3.52797
1.10653
2.29773
2.8498
0.999882
0.999757
0.999744
1.00008
1.00096
1.00222
1.00394
1.00598
1.00842
1.01214
1.01971
1.03576
1.071
1.15004
1.35632
1.73687
3.52673
1.10987
2.30895
2.86185
0.999882
0.999757
0.999744
1.00008
1.00096
1.00222
1.00394
1.00598
1.00843
1.01214
1.01972
1.03578
1.07105
1.15022
1.35602
1.73871
3.52453
1.11806
2.32236
2.875
0.999882
0.999757
0.999744
1.00008
1.00096
1.00222
1.00394
1.00598
1.00843
1.01214
1.01973
1.03581
1.07111
1.15046
1.35546
1.74111
3.52174
1.12957
2.3362
2.87964
0.999882
0.999757
0.999744
1.00008
1.00096
1.00222
1.00394
1.00598
1.00843
1.01215
1.01975
1.03584
1.07116
1.15074
1.35453
1.74408
3.51826
1.14503
2.35273
2.88729
0.999882
0.999757
0.999744
1.00008
1.00096
1.00222
1.00394
1.00598
1.00843
1.01215
1.01976
1.03587
1.07122
1.15104
1.35313
1.74767
3.5142
1.16435
2.3668
2.89149
0.999882
0.999757
0.999744
1.00008
1.00096
1.00222
1.00394
1.00598
1.00843
1.01215
1.01977
1.03589
1.07127
1.15128
1.35192
1.75255
3.50918
1.18739
2.38558
2.89374
0.999882
0.999757
0.999744
1.00008
1.00096
1.00222
1.00394
1.00598
1.00843
1.01216
1.01978
1.03592
1.07133
1.15145
1.35216
1.75798
3.50287
1.21364
2.40187
2.89359
0.999882
0.999757
0.999744
1.00008
1.00096
1.00222
1.00394
1.00598
1.00843
1.01216
1.01979
1.03594
1.07139
1.15161
1.35234
1.7639
3.49531
1.24502
2.42282
2.89245
0.999882
0.999757
0.999744
1.00008
1.00096
1.00222
1.00394
1.00598
1.00843
1.01216
1.01979
1.03596
1.07143
1.15174
1.35245
1.76999
3.48818
1.27821
2.4399
2.88877
0.999882
0.999757
0.999744
1.00008
1.00096
1.00222
1.00394
1.00598
1.00843
1.01217
1.0198
1.03597
1.07145
1.15183
1.35235
1.7765
3.47951
1.31762
2.46171
2.88449
0.999882
0.999757
0.999744
1.00008
1.00096
1.00222
1.00394
1.00598
1.00843
1.01217
1.0198
1.03597
1.07145
1.15186
1.35213
1.78286
3.47201
1.35787
2.47804
2.87462
0.999882
0.999757
0.999744
1.00008
1.00096
1.00222
1.00394
1.00598
1.00843
1.01216
1.01979
1.03595
1.07141
1.1518
1.35161
1.78942
3.4622
1.40656
2.5007
2.86699
0.999882
0.999757
0.999744
1.00008
1.00096
1.00222
1.00394
1.00598
1.00843
1.01216
1.01978
1.03592
1.07133
1.15167
1.35095
1.79528
3.45661
1.45209
2.51546
2.8503
0.999882
0.999757
0.999744
1.00008
1.00096
1.00222
1.00394
1.00599
1.00843
1.01215
1.01975
1.03586
1.07121
1.15143
1.34988
1.80128
3.44553
1.51104
2.53698
2.8384
0.999882
0.999757
0.999744
1.00008
1.00095
1.00222
1.00394
1.00599
1.00843
1.01214
1.01972
1.03579
1.07104
1.15109
1.34875
1.80585
3.44164
1.55759
2.54828
2.81228
0.999882
0.999757
0.999744
1.00008
1.00095
1.00222
1.00394
1.00599
1.00842
1.01212
1.01968
1.03568
1.0708
1.15058
1.34705
1.81049
3.4271
1.62471
2.56567
2.79461
0.999882
0.999757
0.999744
1.00008
1.00095
1.00222
1.00394
1.00599
1.00842
1.0121
1.01962
1.03555
1.07048
1.14991
1.34515
1.81282
3.42771
1.67099
2.57457
2.74437
0.999882
0.999757
0.999744
1.00008
1.00095
1.00222
1.00394
1.00599
1.00841
1.01207
1.01954
1.03536
1.07006
1.14897
1.34227
1.81496
3.41581
1.75134
2.58889
2.72321
0.999863
0.999595
0.999255
0.99901
0.999083
0.999421
1.00019
1.00176
1.00402
1.00765
1.01514
1.03106
1.06613
1.14449
1.35531
1.71674
3.55794
1.07123
2.26136
2.83441
0.999863
0.999595
0.999255
0.99901
0.999083
0.999421
1.00019
1.00176
1.00402
1.00766
1.01515
1.03107
1.06615