/*--------------------------------*- C++ -*----------------------------------*\
  =========                 |
  \\      /  F ield         | OpenFOAM: The Open Source CFD Toolbox
   \\    /   O peration     | Website:  https://openfoam.org
    \\  /    A nd           | Version:  6.0
     \\/     M anipulation  |
\*---------------------------------------------------------------------------*/
FoamFile
{
    version     2.0;
    format      ascii;
    class       volVectorField;
    location    "1";
    object      U;
}
// * * * * * * * * * * * * * * * * * * * * * * * * * * * * * * * * * * * * * //

dimensions      [0 1 -1 0 0 0 0];

internalField   nonuniform List<vector> 
1200
(
(3 -2.26284e-09 0)
(2.99999 -1.40806e-08 0)
(2.99999 -4.62235e-08 0)
(2.99997 -1.19929e-07 0)
(2.99992 -2.8036e-07 0)
(2.99982 -6.27402e-07 0)
(2.9996 -1.37985e-06 0)
(2.9991 -3.01538e-06 0)
(2.99797 -6.60963e-06 0)
(2.99541 -1.47289e-05 0)
(2.98958 -3.39925e-05 0)
(2.9762 -8.19514e-05 0)
(2.94491 -0.000209313 0)
(2.86855 -0.00055385 0)
(2.66191 -0.00164666 0)
(1.58558 -0.00514875 0)
(-1.64427 -0.0219754 0)
(-2.77078 0.00358192 0)
(-1.37468 0.021567 0)
(-0.868261 0.0141995 0)
(3 -6.95482e-09 0)
(2.99999 -4.30361e-08 0)
(2.99999 -1.40512e-07 0)
(2.99997 -3.63456e-07 0)
(2.99992 -8.50039e-07 0)
(2.99982 -1.90883e-06 0)
(2.9996 -4.21936e-06 0)
(2.9991 -9.26719e-06 0)
(2.99797 -2.03778e-05 0)
(2.9954 -4.537e-05 0)
(2.98955 -0.000103944 0)
(2.97614 -0.000247347 0)
(2.94475 -0.000620558 0)
(2.86805 -0.00161975 0)
(2.66029 -0.0047292 0)
(1.57009 -0.0147989 0)
(-1.65634 -0.056415 0)
(-2.76335 -0.00851225 0)
(-1.34207 0.0650668 0)
(-0.847099 0.0457987 0)
(3 -1.20069e-08 0)
(2.99999 -7.35076e-08 0)
(2.99999 -2.37174e-07 0)
(2.99997 -6.07803e-07 0)
(2.99992 -1.41582e-06 0)
(2.99982 -3.18306e-06 0)
(2.9996 -7.06513e-06 0)
(2.9991 -1.55795e-05 0)
(2.99796 -3.42766e-05 0)
(2.99538 -7.59028e-05 0)
(2.98951 -0.000171741 0)
(2.97602 -0.000402358 0)
(2.94445 -0.000992977 0)
(2.86712 -0.00257445 0)
(2.65721 -0.00742721 0)
(1.54156 -0.0237134 0)
(-1.68169 -0.0781785 0)
(-2.75462 -0.00868929 0)
(-1.32383 0.124225 0)
(-0.837272 0.0699533 0)
(3 -1.7587e-08 0)
(2.99999 -1.05873e-07 0)
(2.99999 -3.3454e-07 0)
(2.99997 -8.39903e-07 0)
(2.99992 -1.92762e-06 0)
(2.99982 -4.30158e-06 0)
(2.9996 -9.53076e-06 0)
(2.99909 -2.10114e-05 0)
(2.99795 -4.60578e-05 0)
(2.99535 -0.000100878 0)
(2.98944 -0.000223883 0)
(2.97586 -0.000513235 0)
(2.94402 -0.0012445 0)
(2.86581 -0.00321995 0)
(2.65272 -0.00928991 0)
(1.499 -0.0303743 0)
(-1.71373 -0.0778896 0)
(-2.74068 0.00252475 0)
(-1.30759 0.185644 0)
(-0.847436 0.0869118 0)
(3 -2.4536e-08 0)
(2.99999 -1.44117e-07 0)
(2.99998 -4.41025e-07 0)
(2.99997 -1.0707e-06 0)
(2.99992 -2.38853e-06 0)
(2.99982 -5.22436e-06 0)
(2.99959 -1.14336e-05 0)
(2.99908 -2.4997e-05 0)
(2.99793 -5.42552e-05 0)
(2.99532 -0.000116805 0)
(2.98937 -0.000251906 0)
(2.97569 -0.000556393 0)
(2.94354 -0.0013011 0)
(2.86433 -0.00331456 0)
(2.64753 -0.00961045 0)
(1.4534 -0.0325399 0)
(-1.75018 -0.0465012 0)
(-2.72487 0.0208037 0)
(-1.29645 0.244811 0)
(-0.883683 0.086913 0)
(3 -3.44219e-08 0)
(2.99999 -1.95887e-07 0)
(2.99998 -5.75589e-07 0)
(2.99996 -1.34411e-06 0)
(2.99992 -2.90358e-06 0)
(2.99982 -6.19454e-06 0)
(2.99959 -1.3298e-05 0)
(2.99908 -2.86019e-05 0)
(2.99792 -6.10023e-05 0)
(2.99529 -0.000128135 0)
(2.9893 -0.000265692 0)
(2.97552 -0.00055418 0)
(2.94311 -0.00120924 0)
(2.86298 -0.00292915 0)
(2.6425 -0.00837897 0)
(1.41639 -0.029474 0)
(-1.78966 0.0139685 0)
(-2.70203 0.0486599 0)
(-1.29657 0.297227 0)
(-0.943173 0.0703955 0)
(3 -4.74302e-08 0)
(2.99999 -2.60724e-07 0)
(2.99998 -7.34161e-07 0)
(2.99996 -1.66397e-06 0)
(2.99992 -3.53955e-06 0)
(2.99982 -7.49443e-06 0)
(2.99959 -1.59912e-05 0)
(2.99907 -3.41416e-05 0)
(2.9979 -7.20898e-05 0)
(2.99525 -0.000148949 0)
(2.98923 -0.000298957 0)
(2.97538 -0.000585349 0)
(2.94278 -0.00114703 0)
(2.86201 -0.00245034 0)
(2.63866 -0.00640153 0)
(1.40306 -0.0226152 0)
(-1.83843 0.0968191 0)
(-2.66886 0.0896304 0)
(-1.30958 0.339294 0)
(-1.0255 0.0340899 0)
(3 -5.7843e-08 0)
(2.99999 -3.07255e-07 0)
(2.99998 -8.32006e-07 0)
(2.99996 -1.87374e-06 0)
(2.99992 -4.07937e-06 0)
(2.99981 -8.93506e-06 0)
(2.99958 -1.9644e-05 0)
(2.99906 -4.2882e-05 0)
(2.99788 -9.21046e-05 0)
(2.99521 -0.000193075 0)
(2.98916 -0.000391123 0)
(2.97525 -0.000758505 0)
(2.94255 -0.00139699 0)
(2.86149 -0.00253824 0)
(2.63652 -0.00501028 0)
(1.42789 -0.0132346 0)
(-1.91323 0.193598 0)
(-2.61942 0.151994 0)
(-1.33968 0.352339 0)
(-1.12545 -0.0190591 0)
(3 -5.05912e-08 0)
(2.99999 -2.57007e-07 0)
(2.99998 -6.67255e-07 0)
(2.99996 -1.57878e-06 0)
(2.99992 -3.85489e-06 0)
(2.99981 -9.50043e-06 0)
(2.99958 -2.28727e-05 0)
(2.99904 -5.31989e-05 0)
(2.99785 -0.000119649 0)
(2.99515 -0.000260878 0)
(2.98904 -0.000550678 0)
(2.97506 -0.00111895 0)
(2.94227 -0.00215789 0)
(2.86123 -0.00393406 0)
(2.63696 -0.0066094 0)
(1.50131 -0.00931831 0)
(-1.88312 0.283847 0)
(-2.56897 0.240245 0)
(-1.41352 0.295835 0)
(-1.23246 -0.0751047 0)
(3 -7.73062e-09 0)
(2.99999 -1.62901e-08 0)
(2.99998 6.59297e-09 0)
(2.99996 -2.41762e-07 0)
(2.99992 -1.79437e-06 0)
(2.99981 -7.20949e-06 0)
(2.99957 -2.22619e-05 0)
(2.99903 -5.949e-05 0)
(2.99781 -0.000145594 0)
(2.99507 -0.000336526 0)
(2.98887 -0.000746494 0)
(2.97472 -0.00160045 0)
(2.94168 -0.00330918 0)
(2.86043 -0.00660671 0)
(2.63747 -0.0125927 0)
(1.601 -0.0221278 0)
(-1.78674 0.317485 0)
(-2.52782 0.340776 0)
(-1.53792 0.183692 0)
(-1.32245 -0.116435 0)
(3 7.37888e-08 0)
(2.99999 4.35193e-07 0)
(2.99998 1.27187e-06 0)
(2.99996 2.46377e-06 0)
(2.99991 3.12713e-06 0)
(2.9998 5.335e-07 0)
(2.99956 -1.22396e-05 0)
(2.999 -5.11944e-05 0)
(2.99776 -0.000151534 0)
(2.99495 -0.000388897 0)
(2.98862 -0.000922974 0)
(2.97419 -0.00208899 0)
(2.94059 -0.00456288 0)
(2.85826 -0.00979797 0)
(2.63384 -0.0209963 0)
(1.68553 -0.047204 0)
(-1.66098 0.262388 0)
(-2.4962 0.435902 0)
(-1.69269 0.0772621 0)
(-1.39043 -0.136021 0)
(3 1.70138e-07 0)
(2.99999 9.7732e-07 0)
(2.99998 2.85403e-06 0)
(2.99996 6.19282e-06 0)
(2.99991 1.09731e-05 0)
(2.9998 1.5517e-05 0)
(2.99955 1.34282e-05 0)
(2.99898 -1.30405e-05 0)
(2.99769 -0.000106531 0)
(2.99481 -0.000362341 0)
(2.98829 -0.000985547 0)
(2.97346 -0.00241746 0)
(2.93895 -0.00558347 0)
(2.85447 -0.0126552 0)
(2.62422 -0.0292078 0)
(1.72908 -0.0724531 0)
(-1.50547 0.151848 0)
(-2.46946 0.528587 0)
(-1.84685 0.0058173 0)
(-1.43771 -0.134615 0)
(3 2.42459e-07 0)
(2.99999 1.39965e-06 0)
(2.99999 4.18601e-06 0)
(2.99997 9.80071e-06 0)
(2.99992 1.99769e-05 0)
(2.99981 3.62076e-05 0)
(2.99955 5.67378e-05 0)
(2.99896 6.8423e-05 0)
(2.99764 2.83966e-05 0)
(2.99465 -0.000173156 0)
(2.98791 -0.000784835 0)
(2.97255 -0.00234319 0)
(2.93678 -0.00597746 0)
(2.84898 -0.014348 0)
(2.60848 -0.0351174 0)
(1.72815 -0.0917641 0)
(-1.33039 0.0487751 0)
(-2.44639 0.633542 0)
(-2.00514 -0.0381914 0)
(-1.46969 -0.117725 0)
(3 2.63101e-07 0)
(3 1.53984e-06 0)
(2.99999 4.75513e-06 0)
(2.99997 1.19173e-05 0)
(2.99992 2.69258e-05 0)
(2.99982 5.62823e-05 0)
(2.99956 0.000108398 0)
(2.99897 0.000187657 0)
(2.99761 0.0002745 0)
(2.99452 0.000275359 0)
(2.98752 -8.10488e-05 0)
(2.97154 -0.00143188 0)
(2.93418 -0.00510027 0)
(2.84202 -0.013967 0)
(2.58646 -0.0372615 0)
(1.68328 -0.103453 0)
(-1.14476 -0.0131038 0)
(-2.42493 0.760949 0)
(-2.15813 -0.0688099 0)
(-1.48706 -0.0842046 0)
(3 2.30477e-07 0)
(3 1.37585e-06 0)
(2.99999 4.41643e-06 0)
(2.99997 1.18353e-05 0)
(2.99993 2.92155e-05 0)
(2.99983 6.79723e-05 0)
(2.99959 0.000149158 0)
(2.99902 0.000306187 0)
(2.99766 0.000578116 0)
(2.99452 0.000970384 0)
(2.98727 0.00133217 0)
(2.97058 0.00107179 0)
(2.93132 -0.00138426 0)
(2.83363 -0.00950607 0)
(2.55719 -0.0344042 0)
(1.59535 -0.105496 0)
(-0.961818 -0.0257932 0)
(-2.40696 0.90032 0)
(-2.29492 -0.0957554 0)
(-1.4872 -0.0264535 0)
(3 1.65715e-07 0)
(3 1.01583e-06 0)
(2.99999 3.41877e-06 0)
(2.99998 9.83926e-06 0)
(2.99994 2.64441e-05 0)
(2.99986 6.7522e-05 0)
(2.99964 0.000163918 0)
(2.99911 0.000377196 0)
(2.99783 0.000818669 0)
(2.99476 0.00166156 0)
(2.98748 0.00310085 0)
(2.97025 0.00514235 0)
(2.92884 0.00693997 0)
(2.8239 0.00521512 0)
(2.51847 -0.0152107 0)
(1.46225 -0.0953372 0)
(-0.839186 -0.000508629 0)
(-2.40556 1.08547 0)
(-2.38498 -0.106832 0)
(-1.45872 0.0460594 0)
(3 9.83546e-08 0)
(3 6.2324e-07 0)
(2.99999 2.21724e-06 0)
(2.99998 6.88879e-06 0)
(2.99995 2.01831e-05 0)
(2.99988 5.64041e-05 0)
(2.9997 0.000150208 0)
(2.99924 0.00038028 0)
(2.99809 0.000913403 0)
(2.99527 0.00207803 0)
(2.98837 0.00446893 0)
(2.97149 0.00905604 0)
(2.92934 0.0171573 0)
(2.81762 0.029796 0)
(2.47264 0.0396764 0)
(1.26501 0.00772421 0)
(-0.789075 0.319679 0)
(-2.42261 1.31925 0)
(-2.46428 -0.122433 0)
(-1.41634 0.153607 0)
(3 4.93477e-08 0)
(3 3.2403e-07 0)
(2.99999 1.21974e-06 0)
(2.99998 4.07902e-06 0)
(2.99996 1.29793e-05 0)
(2.9999 3.9598e-05 0)
(2.99975 0.000115503 0)
(2.99937 0.000320948 0)
(2.9984 0.000847069 0)
(2.99594 0.00211944 0)
(2.98977 0.00502556 0)
(2.97422 0.0113257 0)
(2.93415 0.0244638 0)
(2.82343 0.0515962 0)
(2.45935 0.106914 0)
(1.17553 0.22297 0)
(-0.455417 0.791037 0)
(-2.34482 1.50712 0)
(-2.48954 -0.0930209 0)
(-1.33069 0.327592 0)
(3 2.30508e-08 0)
(3 1.54674e-07 0)
(2.99999 6.01783e-07 0)
(2.99998 2.10208e-06 0)
(2.99996 7.08262e-06 0)
(2.99991 2.31855e-05 0)
(2.99979 7.33253e-05 0)
(2.99948 0.000222502 0)
(2.99869 0.000644087 0)
(2.99666 0.00177091 0)
(2.99143 0.00461329 0)
(2.97784 0.0114005 0)
(2.94177 0.0269736 0)
(2.83957 0.0629539 0)
(2.49733 0.153295 0)
(1.28592 0.41967 0)
(0.173915 1.13978 0)
(-2.107 1.63831 0)
(-2.42415 0.0539533 0)
(-1.21025 0.52026 0)
(3 1.24175e-08 0)
(3 8.13694e-08 0)
(2.99999 3.03993e-07 0)
(2.99999 1.00924e-06 0)
(2.99997 3.30002e-06 0)
(2.99992 1.08516e-05 0)
(2.99981 3.56196e-05 0)
(2.99956 0.000115068 0)
(2.99891 0.000361261 0)
(2.99727 0.00109252 0)
(2.99299 0.00316729 0)
(2.98165 0.00880532 0)
(2.95088 0.0236579 0)
(2.86227 0.062909 0)
(2.56845 0.174852 0)
(1.49649 0.54734 0)
(0.819674 1.42693 0)
(-0.927236 1.47044 0)
(-2.21379 0.263727 0)
(-1.04003 0.693357 0)
(3 1.09974e-08 0)
(3 6.85429e-08 0)
(2.99999 2.32443e-07 0)
(2.99999 6.57842e-07 0)
(2.99997 1.77494e-06 0)
(2.99993 4.86632e-06 0)
(2.99984 1.39664e-05 0)
(2.99964 4.2096e-05 0)
(2.99917 0.000131287 0)
(2.9981 0.000414801 0)
(2.99555 0.00130316 0)
(2.98935 0.00402286 0)
(2.97374 0.012161 0)
(2.93218 0.0364013 0)
(2.80806 0.112108 0)
(2.32157 0.403772 0)
(1.53948 1.47141 0)
(0.398755 1.09535 0)
(-1.59799 0.597893 0)
(-0.941073 0.855664 0)
(3 1.36875e-08 0)
(3 8.42057e-08 0)
(2.99999 2.77519e-07 0)
(2.99999 7.40386e-07 0)
(2.99997 1.80077e-06 0)
(2.99993 4.2005e-06 0)
(2.99985 9.658e-06 0)
(2.99967 2.23175e-05 0)
(2.99925 5.2759e-05 0)
(2.99834 0.000129777 0)
(2.99628 0.000336111 0)
(2.99164 0.000917637 0)
(2.98101 0.00261675 0)
(2.95607 0.00772298 0)
(2.89465 0.0237205 0)
(2.72785 0.0796227 0)
(2.19101 0.30677 0)
(0.287337 0.535784 0)
(-1.25135 0.708992 0)
(-0.679879 0.953327 0)
(3 1.87584e-08 0)
(3 1.15342e-07 0)
(2.99999 3.79775e-07 0)
(2.99999 1.01137e-06 0)
(2.99997 2.45069e-06 0)
(2.99994 5.67111e-06 0)
(2.99986 1.28243e-05 0)
(2.99969 2.86756e-05 0)
(2.99932 6.38211e-05 0)
(2.99848 0.00014201 0)
(2.9966 0.00031721 0)
(2.99241 0.000714818 0)
(2.98297 0.001636 0)
(2.96134 0.00383924 0)
(2.91017 0.00936174 0)
(2.78036 0.0242702 0)
(2.39731 0.0704322 0)
(0.883088 0.241964 0)
(-0.669374 0.799047 0)
(-0.33057 1.00731 0)
(3 2.62202e-08 0)
(3 1.61171e-07 0)
(3 5.30469e-07 0)
(2.99999 1.41243e-06 0)
(2.99998 3.42267e-06 0)
(2.99995 7.92202e-06 0)
(2.99988 1.79172e-05 0)
(2.99973 4.00505e-05 0)
(2.99941 8.89979e-05 0)
(2.99868 0.00019721 0)
(2.99705 0.000436582 0)
(2.9934 0.000967131 0)
(2.98518 0.0021486 0)
(2.96645 0.00480727 0)
(2.92256 0.0109252 0)
(2.81351 0.025685 0)
(2.50717 0.0647495 0)
(1.50153 0.189825 0)
(0.233222 0.779461 0)
(0.12319 1.03848 0)
(3 3.85503e-08 0)
(3 2.37014e-07 0)
(3 7.80808e-07 0)
(2.99999 2.08309e-06 0)
(2.99998 5.0639e-06 0)
(2.99996 1.1771e-05 0)
(2.99991 2.67604e-05 0)
(2.99979 6.01661e-05 0)
(2.99953 0.000134525 0)
(2.99894 0.000299967 0)
(2.99763 0.000668098 0)
(2.99469 0.00148803 0)
(2.98808 0.00331932 0)
(2.97302 0.00743689 0)
(2.93793 0.0168376 0)
(2.8519 0.0390188 0)
(2.61616 0.0949492 0)
(1.87646 0.255311 0)
(0.853089 0.816808 0)
(0.603137 1.05957 0)
(3 3.87707e-08 0)
(3 2.38309e-07 0)
(3 7.85135e-07 0)
(3 2.09685e-06 0)
(2.99999 5.10777e-06 0)
(2.99998 1.19077e-05 0)
(2.99995 2.71706e-05 0)
(2.99988 6.13505e-05 0)
(2.99973 0.000137831 0)
(2.99939 0.000308937 0)
(2.99863 0.000691852 0)
(2.99693 0.00154954 0)
(2.99311 0.00347476 0)
(2.98444 0.00781738 0)
(2.96452 0.0177205 0)
(2.91714 0.0408522 0)
(2.79476 0.0976768 0)
(2.41021 0.253222 0)
(1.64012 0.730885 0)
(1.21733 0.973784 0)
(3 2.58435e-08 0)
(3 1.58744e-07 0)
(3 5.22595e-07 0)
(3 1.39555e-06 0)
(2.99999 3.40113e-06 0)
(2.99999 7.93685e-06 0)
(2.99997 1.81361e-05 0)
(2.99994 4.10282e-05 0)
(2.99986 9.23934e-05 0)
(2.99968 0.000207686 0)
(2.99928 0.00046665 0)
(2.99841 0.00104897 0)
(2.99644 0.00236079 0)
(2.99203 0.0053259 0)
(2.98205 0.0120733 0)
(2.95905 0.0276522 0)
(2.90377 0.0647921 0)
(2.75164 0.161614 0)
(2.31669 0.443392 0)
(1.82638 0.831453 0)
(3 1.35835e-08 0)
(3 8.34018e-08 0)
(3 2.74328e-07 0)
(3 7.31529e-07 0)
(3 1.7791e-06 0)
(3 4.14009e-06 0)
(2.99999 9.42758e-06 0)
(2.99998 2.12415e-05 0)
(2.99995 4.76195e-05 0)
(2.99989 0.000106518 0)
(2.99975 0.000238086 0)
(2.99945 0.000532194 0)
(2.99881 0.00119042 0)
(2.99739 0.00266665 0)
(2.99429 0.00599132 0)
(2.98741 0.0135437 0)
(2.97187 0.0310375 0)
(2.93453 0.073562 0)
(2.81182 0.197965 0)
(2.53016 0.479433 0)
(3 4.32112e-09 0)
(3 2.64838e-08 0)
(3 8.67314e-08 0)
(3 2.29483e-07 0)
(3 5.51684e-07 0)
(3 1.26431e-06 0)
(2.99999 2.82571e-06 0)
(2.99999 6.23057e-06 0)
(2.99997 1.36356e-05 0)
(2.99993 2.97129e-05 0)
(2.99985 6.45772e-05 0)
(2.99968 0.000140109 0)
(2.99929 0.000303626 0)
(2.99843 0.000657487 0)
(2.99654 0.00142357 0)
(2.99236 0.0030863 0)
(2.98308 0.00671799 0)
(2.96212 0.0148094 0)
(2.91258 0.0345252 0)
(2.75842 0.0860177 0)
(3 2.60911e-09 0)
(3 1.60187e-08 0)
(3 5.2633e-08 0)
(3 1.39889e-07 0)
(3 3.38321e-07 0)
(3 7.81301e-07 0)
(3 1.76246e-06 0)
(2.99999 3.92806e-06 0)
(2.99998 8.70028e-06 0)
(2.99995 1.92086e-05 0)
(2.9999 4.23391e-05 0)
(2.99977 9.32451e-05 0)
(2.9995 0.000205278 0)
(2.99889 0.000451882 0)
(2.99753 0.000995004 0)
(2.99452 0.00219278 0)
(2.98779 0.00484273 0)
(2.97256 0.0107429 0)
(2.93742 0.0241065 0)
(2.8321 0.0552772 0)
(3 1.64321e-09 0)
(3 1.00961e-08 0)
(3 3.32198e-08 0)
(3 8.84772e-08 0)
(3 2.14582e-07 0)
(3 4.9729e-07 0)
(3 1.12651e-06 0)
(3 2.52268e-06 0)
(2.99999 5.61657e-06 0)
(2.99998 1.24682e-05 0)
(2.99995 2.76369e-05 0)
(2.99989 6.1212e-05 0)
(2.99976 0.000135525 0)
(2.99948 0.000300026 0)
(2.99886 0.000664351 0)
(2.99749 0.00147212 0)
(2.99448 0.00326826 0)
(2.98781 0.00728095 0)
(2.97287 0.0163808 0)
(2.93299 0.0374749 0)
(3 5.9126e-10 0)
(3 3.64627e-09 0)
(3 1.20313e-08 0)
(3 3.20271e-08 0)
(3 7.72768e-08 0)
(3 1.77331e-07 0)
(3 3.96049e-07 0)
(3 8.71066e-07 0)
(2.99999 1.89826e-06 0)
(2.99998 4.1123e-06 0)
(2.99996 8.87241e-06 0)
(2.99992 1.9087e-05 0)
(2.99982 4.09769e-05 0)
(2.99959 8.78481e-05 0)
(2.9991 0.000188166 0)
(2.99799 0.000402854 0)
(2.99553 0.000862562 0)
(2.99004 0.00184854 0)
(2.97766 0.00397629 0)
(2.94564 0.00862347 0)
(3 4.90269e-10 0)
(3 3.01684e-09 0)
(3 9.93819e-09 0)
(3 2.64605e-08 0)
(3 6.41092e-08 0)
(3 1.48461e-07 0)
(3 3.36351e-07 0)
(3 7.54218e-07 0)
(2.99999 1.68359e-06 0)
(2.99999 3.75193e-06 0)
(2.99997 8.35905e-06 0)
(2.99994 1.8631e-05 0)
(2.99986 4.15554e-05 0)
(2.99968 9.27607e-05 0)
(2.99928 0.000207219 0)
(2.99839 0.000463202 0)
(2.99641 0.00103608 0)
(2.99197 0.00231967 0)
(2.98195 0.00520632 0)
(2.95714 0.0117487 0)
(3 4.08492e-10 0)
(3 2.49505e-09 0)
(3 8.1461e-09 0)
(3 2.15351e-08 0)
(3 5.19507e-08 0)
(3 1.20109e-07 0)
(3 2.72298e-07 0)
(3 6.12181e-07 0)
(3 1.37235e-06 0)
(2.99999 3.07527e-06 0)
(2.99998 6.89452e-06 0)
(2.99996 1.54633e-05 0)
(2.99992 3.4679e-05 0)
(2.99981 7.77199e-05 0)
(2.99959 0.000173973 0)
(2.9991 0.00038889 0)
(2.99801 0.000868236 0)
(2.9956 0.00193747 0)
(2.99024 0.00433028 0)
(2.97793 0.00972007 0)
(3 2.58626e-10 0)
(3 1.57821e-09 0)
(3 5.15433e-09 0)
(3 1.36804e-08 0)
(3 3.31659e-08 0)
(3 7.69073e-08 0)
(3 1.74128e-07 0)
(3 3.88696e-07 0)
(3 8.59519e-07 0)
(2.99999 1.88745e-06 0)
(2.99999 4.12173e-06 0)
(2.99997 8.95917e-06 0)
(2.99994 1.93975e-05 0)
(2.99986 4.18579e-05 0)
(2.99969 9.00788e-05 0)
(2.99932 0.00019345 0)
(2.99847 0.000414901 0)
(2.99659 0.000889687 0)
(2.99233 0.00190993 0)
(2.98252 0.004119 0)
(3 1.64273e-10 0)
(3 1.00738e-09 0)
(3 3.31662e-09 0)
(3 8.90524e-09 0)
(3 2.19073e-08 0)
(3 5.16876e-08 0)
(3 1.19346e-07 0)
(3 2.72174e-07 0)
(3 6.15659e-07 0)
(3 1.38417e-06 0)
(2.99999 3.097e-06 0)
(2.99998 6.9036e-06 0)
(2.99996 1.53498e-05 0)
(2.99991 3.40858e-05 0)
(2.99979 7.56943e-05 0)
(2.99953 0.0001683 0)
(2.99893 0.000375021 0)
(2.99759 0.000838126 0)
(2.99453 0.00187769 0)
(2.98754 0.00422746 0)
(3 8.89005e-11 0)
(3 5.45626e-10 0)
(3 1.7983e-09 0)
(3 4.83661e-09 0)
(3 1.19416e-08 0)
(3 2.83758e-08 0)
(3 6.62937e-08 0)
(3 1.53781e-07 0)
(3 3.55693e-07 0)
(3 8.21551e-07 0)
(3 1.89521e-06 0)
(2.99999 4.36518e-06 0)
(2.99997 1.00344e-05 0)
(2.99994 2.30158e-05 0)
(2.99987 5.2677e-05 0)
(2.99972 0.000120348 0)
(2.99937 0.000274616 0)
(2.99859 0.000626427 0)
(2.99685 0.00142953 0)
(2.99298 0.00327063 0)
(3 5.77116e-11 0)
(3 3.54107e-10 0)
(3 1.16327e-09 0)
(3 3.09542e-09 0)
(3 7.51068e-09 0)
(3 1.74459e-08 0)
(3 3.97006e-08 0)
(3 8.9558e-08 0)
(3 2.01521e-07 0)
(3 4.53804e-07 0)
(3 1.02426e-06 0)
(2.99999 2.31778e-06 0)
(2.99998 5.25497e-06 0)
(2.99996 1.19217e-05 0)
(2.99992 2.70175e-05 0)
(2.99982 6.10637e-05 0)
(2.99961 0.000137457 0)
(2.99913 0.000307962 0)
(2.99806 0.000686971 0)
(2.99572 0.00152769 0)
(3 2.89786e-11 0)
(3 1.79224e-10 0)
(3 5.93847e-10 0)
(3 1.58443e-09 0)
(3 3.82687e-09 0)
(3 8.78864e-09 0)
(3 1.96719e-08 0)
(3 4.3517e-08 0)
(3 9.59502e-08 0)
(3 2.12012e-07 0)
(3 4.71094e-07 0)
(2.99999 1.05472e-06 0)
(2.99999 2.38079e-06 0)
(2.99997 5.41438e-06 0)
(2.99994 1.23834e-05 0)
(2.99986 2.84051e-05 0)
(2.9997 6.51535e-05 0)
(2.99932 0.000148982 0)
(2.99848 0.000338772 0)
(2.9966 0.00076572 0)
(3 9.64143e-12 0)
(3 6.03705e-11 0)
(3 2.03752e-10 0)
(3 5.55416e-10 0)
(3 1.37104e-09 0)
(3 3.21513e-09 0)
(3 7.34026e-09 0)
(3 1.65446e-08 0)
(3 3.71244e-08 0)
(3 8.3355e-08 0)
(3 1.87866e-07 0)
(3 4.25867e-07 0)
(2.99999 9.72144e-07 0)
(2.99998 2.23578e-06 0)
(2.99995 5.18021e-06 0)
(2.9999 1.20821e-05 0)
(2.99977 2.83437e-05 0)
(2.99949 6.67769e-05 0)
(2.99888 0.000157576 0)
(2.99755 0.000372555 0)
(0.261598 0.962353 0)
(0.679296 0.871822 0)
(0.971743 0.654436 0)
(1.16297 0.292337 0)
(1.30575 0.0330868 0)
(1.41589 -0.04362 0)
(1.52809 -0.0596017 0)
(1.64137 -0.0502176 0)
(1.75482 -0.0368695 0)
(1.86858 -0.0248026 0)
(1.98208 -0.0165437 0)
(2.09316 -0.0109885 0)
(2.20003 -0.00690412 0)
(2.29798 -0.00557124 0)
(2.38166 -0.0156213 0)
(2.45419 -0.0311051 0)
(2.51418 -0.0465889 0)
(2.56638 -0.0539994 0)
(2.6138 -0.0502203 0)
(2.657 -0.0411171 0)
(0.421484 0.886257 0)
(0.776186 0.633947 0)
(1.04048 0.339313 0)
(1.24127 0.0480667 0)
(1.40798 -0.0958428 0)
(1.54502 -0.128351 0)
(1.66451 -0.118562 0)
(1.77575 -0.0884781 0)
(1.87961 -0.059991 0)
(1.97935 -0.0365321 0)
(2.07575 -0.0191637 0)
(2.16893 -0.00664251 0)
(2.25765 0.00414546 0)
(2.3366 0.0122797 0)
(2.40367 0.0162979 0)
(2.46675 0.0182202 0)
(2.5248 0.0138715 0)
(2.58151 0.00828735 0)
(2.6327 0.00775611 0)
(2.67863 0.00702211 0)
(0.557543 0.876997 0)
(0.890358 0.61756 0)
(1.15798 0.38451 0)
(1.36856 0.245869 0)
(1.53155 0.126703 0)
(1.65493 0.00842391 0)
(1.76687 -0.0403341 0)
(1.87297 -0.0486996 0)
(1.97099 -0.0436508 0)
(2.06498 -0.0345832 0)
(2.15515 -0.0252108 0)
(2.24149 -0.018244 0)
(2.32318 -0.0121431 0)
(2.39708 -0.0088387 0)
(2.46055 0.00129233 0)
(2.51835 0.0111249 0)
(2.56924 0.0189812 0)
(2.61971 0.0211155 0)
(2.66704 0.0160493 0)
(2.71102 0.00683646 0)
(0.724231 0.9364 0)
(1.00909 0.720973 0)
(1.25132 0.46378 0)
(1.44054 0.237477 0)
(1.58394 0.0546647 0)
(1.71938 -0.0635509 0)
(1.84558 -0.0946422 0)
(1.95322 -0.0889284 0)
(2.04873 -0.0700828 0)
(2.13792 -0.0509492 0)
(2.22217 -0.0365563 0)
(2.30265 -0.0291929 0)
(2.37833 -0.024689 0)
(2.447 -0.0244065 0)
(2.50531 -0.0185052 0)
(2.55763 -0.0101481 0)
(2.60494 -0.00274458 0)
(2.6507 0.00127378 0)
(2.69489 -0.00324541 0)
(2.73743 -0.011207 0)
(0.864641 1.00419 0)
(1.10566 0.772729 0)
(1.32496 0.480992 0)
(1.51432 0.259746 0)
(1.67298 0.12994 0)
(1.81093 0.0681766 0)
(1.93266 0.0261401 0)
(2.03717 0.0031582 0)
(2.12738 -0.00844833 0)
(2.2084 -0.0171741 0)
(2.28284 -0.0238183 0)
(2.3536 -0.0293186 0)
(2.42033 -0.0325591 0)
(2.48267 -0.0348262 0)
(2.5388 -0.0310161 0)
(2.58927 -0.0202515 0)
(2.63403 -0.0126244 0)
(2.67705 -0.0108848 0)
(2.71969 -0.0148481 0)
(2.76159 -0.0218112 0)
(1.08966 1.03787 0)
(1.23516 0.774281 0)
(1.42867 0.506492 0)
(1.61125 0.341669 0)
(1.76068 0.221897 0)
(1.88716 0.136117 0)
(1.99852 0.0732158 0)
(2.09441 0.0289883 0)
(2.17747 0.000150859 0)
(2.25389 -0.0173193 0)
(2.32597 -0.0256283 0)
(2.39532 -0.0292052 0)
(2.46112 -0.0301871 0)
(2.52301 -0.0280326 0)
(2.57939 -0.0227293 0)
(2.62937 -0.0166317 0)
(2.67297 -0.0156165 0)
(2.71507 -0.0203928 0)
(2.75712 -0.0278223 0)
(2.7975 -0.0346863 0)
(1.32365 1.02573 0)
(1.35262 0.916708 0)
(1.51192 0.674782 0)
(1.6923 0.457626 0)
(1.83451 0.301608 0)
(1.95685 0.194617 0)
(2.06635 0.121692 0)
(2.16112 0.0733706 0)
(2.24172 0.0416403 0)
(2.3132 0.0234224 0)
(2.37924 0.0123286 0)
(2.44273 0.00258082 0)
(2.50467 -0.00406405 0)
(2.56472 -0.00648623 0)
(2.6198 -0.00448711 0)
(2.66787 -0.00327703 0)
(2.70921 -0.00793804 0)
(2.74902 -0.0161105 0)
(2.7898 -0.0256624 0)
(2.82917 -0.0349991 0)
(1.6539 0.904003 0)
(1.50524 0.945894 0)
(1.58601 0.806749 0)
(1.75833 0.544152 0)
(1.90023 0.379444 0)
(2.02145 0.262836 0)
(2.12753 0.177231 0)
(2.2165 0.112154 0)
(2.29131 0.0663056 0)
(2.3581 0.0390405 0)
(2.42024 0.0208887 0)
(2.48145 0.00675693 0)
(2.54232 -0.000758721 0)
(2.60171 -0.00218819 0)
(2.65568 -0.00091948 0)
(2.70162 -0.00188443 0)
(2.74137 -0.0096617 0)
(2.78085 -0.0198278 0)
(2.82087 -0.0299214 0)
(2.85851 -0.0399764 0)
(1.91501 0.766603 0)
(1.65775 0.929422 0)
(1.66278 0.881088 0)
(1.77616 0.715302 0)
(1.93393 0.51723 0)
(2.05952 0.37071 0)
(2.16453 0.259841 0)
(2.25206 0.176453 0)
(2.32818 0.11894 0)
(2.39743 0.0839916 0)
(2.46115 0.0624765 0)
(2.5235 0.0481244 0)
(2.58543 0.0391112 0)
(2.64452 0.0337491 0)
(2.69692 0.0238276 0)
(2.74075 0.00805212 0)
(2.77863 -0.014082 0)
(2.81656 -0.0422119 0)
(2.85511 -0.090616 0)
(2.88893 -0.197982 0)
(2.11411 0.777235 0)
(1.85633 0.890629 0)
(1.78474 0.906835 0)
(1.8393 0.815273 0)
(1.96602 0.641157 0)
(2.09608 0.470809 0)
(2.20424 0.341921 0)
(2.29561 0.250277 0)
(2.37531 0.185937 0)
(2.44635 0.140171 0)
(2.50943 0.107419 0)
(2.56883 0.0853277 0)
(2.62677 0.0688641 0)
(2.68056 0.0509584 0)
(2.72788 0.0208517 0)
(2.76885 -0.0176078 0)
(2.80576 -0.0686011 0)
(2.83667 -0.152565 0)
(2.85193 -0.320233 0)
(2.93326 -0.517309 0)
(2.34173 0.665773 0)
(2.05182 0.822531 0)
(1.9441 0.898869 0)
(1.93707 0.866268 0)
(2.023 0.712635 0)
(2.13898 0.545384 0)
(2.24525 0.41943 0)
(2.33704 0.323738 0)
(2.41674 0.250855 0)
(2.48664 0.192059 0)
(2.54831 0.146933 0)
(2.60567 0.116425 0)
(2.65987 0.0937825 0)
(2.70843 0.0629811 0)
(2.7528 0.0232362 0)
(2.79225 -0.0264731 0)
(2.82099 -0.102733 0)
(2.82631 -0.275933 0)
(2.85594 -0.51228 0)
(2.92547 -0.549361 0)
(2.55552 0.274113 0)
(2.19046 0.71224 0)
(2.07487 0.847559 0)
(2.03291 0.867596 0)
(2.07816 0.780085 0)
(2.17525 0.634119 0)
(2.28026 0.492136 0)
(2.37237 0.38196 0)
(2.45249 0.299963 0)
(2.52229 0.233993 0)
(2.58408 0.183272 0)
(2.64054 0.145728 0)
(2.69047 0.112967 0)
(2.73544 0.0705891 0)
(2.7788 0.0222744 0)
(2.81389 -0.0465233 0)
(2.82303 -0.187982 0)
(2.83981 -0.541626 0)
(2.88924 -0.566882 0)
(2.93937 -0.53954 0)
(2.68825 0.174769 0)
(2.34275 0.685427 0)
(2.2137 0.787808 0)
(2.14686 0.84438 0)
(2.15091 0.815823 0)
(2.21836 0.698536 0)
(2.31585 0.55376 0)
(2.40913 0.437867 0)
(2.48919 0.349812 0)
(2.5566 0.278542 0)
(2.61543 0.217193 0)
(2.66888 0.160398 0)
(2.71568 0.0938313 0)
(2.75833 0.0146819 0)
(2.79841 -0.130105 0)
(2.81792 -0.427381 0)
(2.82009 -0.642904 0)
(2.90118 -0.68556 0)
(2.93959 -0.620429 0)
(2.97292 -0.53815 0)
(2.84232 0.118303 0)
(2.51055 0.574638 0)
(2.34454 0.717326 0)
(2.26597 0.803156 0)
(2.23163 0.817085 0)
(2.26597 0.749797 0)
(2.34571 0.62207 0)
(2.4381 0.492429 0)
(2.51833 0.393555 0)
(2.5831 0.310258 0)
(2.63757 0.220741 0)
(2.68527 0.116467 0)
(2.72691 -0.0323408 0)
(2.75585 -0.334366 0)
(2.75821 -0.607588 0)
(2.82888 -0.743077 0)
(2.89404 -0.733534 0)
(2.94294 -0.673043 0)
(2.98866 -0.589575 0)
(3.01204 -0.510824 0)
(2.89644 0.0483276 0)
(2.65022 0.323946 0)
(2.43815 0.663936 0)
(2.36535 0.762846 0)
(2.3163 0.805171 0)
(2.32011 0.778808 0)
(2.37591 0.679873 0)
(2.46364 0.538041 0)
(2.54457 0.421187 0)
(2.60278 0.298754 0)
(2.64733 0.156392 0)
(2.68277 -0.0506943 0)
(2.69036 -0.408982 0)
(2.75052 -0.654504 0)
(2.81815 -0.690427 0)
(2.87184 -0.635799 0)
(2.92668 -0.592709 0)
(2.98113 -0.552095 0)
(3.02327 -0.509942 0)
(3.04188 -0.46073 0)
(2.93243 0.043052 0)
(2.78901 0.214523 0)
(2.55887 0.622812 0)
(2.45898 0.732219 0)
(2.40343 0.771417 0)
(2.38387 0.767384 0)
(2.41175 0.707097 0)
(2.48108 0.580063 0)
(2.55719 0.414841 0)
(2.60766 0.218786 0)
(2.64025 -0.0309883 0)
(2.65497 -0.389695 0)
(2.72828 -0.563283 0)
(2.7891 -0.556282 0)
(2.85075 -0.531589 0)
(2.90623 -0.503324 0)
(2.9593 -0.47141 0)
(3.0089 -0.442054 0)
(3.04676 -0.416548 0)
(3.06396 -0.38823 0)
(2.9609 0.0296323 0)
(2.88554 0.131318 0)
(2.68858 0.460221 0)
(2.52822 0.696748 0)
(2.47103 0.720323 0)
(2.45248 0.713869 0)
(2.46196 0.651524 0)
(2.50237 0.531923 0)
(2.55288 0.331983 0)
(2.59665 0.0259955 0)
(2.63088 -0.296415 0)
(2.69747 -0.423405 0)
(2.75263 -0.422567 0)
(2.82465 -0.412336 0)
(2.88505 -0.395936 0)
(2.93288 -0.382233 0)
(2.98383 -0.360066 0)
(3.02866 -0.341881 0)
(3.06384 -0.324969 0)
(3.08042 -0.305036 0)
(2.97608 0.0145942 0)
(2.932 0.0638923 0)
(2.81975 0.222289 0)
(2.61195 0.561019 0)
(2.52707 0.639679 0)
(2.50862 0.630127 0)
(2.5126 0.481616 0)
(2.53364 0.290396 0)
(2.56 0.0992754 0)
(2.60083 -0.127059 0)
(2.66941 -0.254378 0)
(2.71887 -0.276093 0)
(2.7899 -0.268397 0)
(2.85627 -0.263274 0)
(2.90774 -0.271735 0)
(2.95375 -0.264783 0)
(3.0019 -0.24993 0)
(3.04333 -0.239766 0)
(3.07693 -0.232286 0)
(3.09277 -0.218153 0)
(2.98134 0.00755382 0)
(2.94875 0.0332254 0)
(2.87374 0.110832 0)
(2.71327 0.327468 0)
(2.58921 0.553607 0)
(2.53979 0.530173 0)
(2.52245 0.240692 0)
(2.54852 0.074253 0)
(2.59001 -0.0516829 0)
(2.63911 -0.117587 0)
(2.6928 -0.14784 0)
(2.76541 -0.142772 0)
(2.82722 -0.130827 0)
(2.87931 -0.127083 0)
(2.92566 -0.132837 0)
(2.97222 -0.126785 0)
(3.0169 -0.114457 0)
(3.05309 -0.109351 0)
(3.08521 -0.110241 0)
(3.10152 -0.108593 0)
(2.98643 0.00369224 0)
(2.96406 0.0163391 0)
(2.91713 0.0533919 0)
(2.82521 0.13728 0)
(2.65259 0.369755 0)
(2.51578 0.373565 0)
(2.50251 0.19141 0)
(2.56963 0.118789 0)
(2.62104 0.0770987 0)
(2.66776 0.0587109 0)
(2.72692 0.0464339 0)
(2.79324 0.0485154 0)
(2.85061 0.0613163 0)
(2.89633 0.0748262 0)
(2.93845 0.0859646 0)
(2.9827 0.0967808 0)
(3.02399 0.103363 0)
(3.05652 0.101067 0)
(3.08654 0.0900528 0)
(3.10235 0.0742483 0)
)
;

boundaryField
{
    inlet
    {
        type            fixedValue;
        value           uniform (3 0 0);
    }
    outlet
    {
        type            inletOutlet;
        inletValue      uniform (3 0 0);
        value           nonuniform List<vector> 
20
(
(2.657 -0.0411171 0)
(2.67863 0.00702211 0)
(2.71102 0.00683646 0)
(2.73743 -0.011207 0)
(2.76159 -0.0218112 0)
(2.7975 -0.0346863 0)
(2.82917 -0.0349991 0)
(2.85851 -0.0399764 0)
(2.88893 -0.197982 0)
(2.93326 -0.517309 0)
(2.92547 -0.549361 0)
(2.93937 -0.53954 0)
(2.97292 -0.53815 0)
(3.01204 -0.510824 0)
(3.04188 -0.46073 0)
(3.06396 -0.38823 0)
(3.08042 -0.305036 0)
(3.09277 -0.218153 0)
(3.10152 -0.108593 0)
(3.10235 0.0742483 0)
)
;
    }
    top
    {
        type            symmetryPlane;
    }
    bottom
    {
        type            symmetryPlane;
    }
    step
    {
        type            slip;
    }
    defaultFaces
    {
        type            empty;
    }
}


// ************************************************************************* //
