/*--------------------------------*- C++ -*----------------------------------*\
  =========                 |
  \\      /  F ield         | OpenFOAM: The Open Source CFD Toolbox
   \\    /   O peration     | Website:  https://openfoam.org
    \\  /    A nd           | Version:  6.0
     \\/     M anipulation  |
\*---------------------------------------------------------------------------*/
FoamFile
{
    version     2.0;
    format      ascii;
    class       volVectorField;
    location    "1";
    object      U;
}
// * * * * * * * * * * * * * * * * * * * * * * * * * * * * * * * * * * * * * //

dimensions      [0 1 -1 0 0 0 0];

internalField   nonuniform List<vector> 
24000
(
(3.08437 5.11069e-09 -0.139453)
(3.11012 2.75613e-09 -0.150103)
(3.12414 8.12045e-09 -0.152755)
(3.13443 3.87507e-09 -0.152589)
(3.14183 8.73562e-09 -0.152315)
(3.14741 6.8839e-09 -0.151823)
(3.152 2.19014e-08 -0.151164)
(3.15508 2.62857e-08 -0.150922)
(3.15579 5.6554e-08 -0.151175)
(3.15522 1.07773e-07 -0.151417)
(3.15317 1.91496e-07 -0.15214)
(3.14724 3.18661e-07 -0.154072)
(3.13149 4.7954e-07 -0.158866)
(3.09003 5.64137e-07 -0.170586)
(2.9728 -8.31028e-08 -0.200616)
(2.57963 -5.32544e-06 -0.289578)
(1.02317 -5.0355e-05 -0.564962)
(-0.23098 0.000193504 -0.588959)
(0.0117892 0.00130622 -0.582459)
(0.294551 -0.00162953 -0.552717)
(3.08437 1.59334e-08 -0.139453)
(3.11012 9.31321e-09 -0.150103)
(3.12414 2.64068e-08 -0.152755)
(3.13443 1.27746e-08 -0.152589)
(3.14183 2.92499e-08 -0.152315)
(3.14741 2.27611e-08 -0.151823)
(3.152 7.23417e-08 -0.151164)
(3.15508 8.07111e-08 -0.150922)
(3.15579 2.25718e-07 -0.151175)
(3.15522 4.3872e-07 -0.151417)
(3.15317 7.66694e-07 -0.15214)
(3.14724 1.27309e-06 -0.154073)
(3.13149 2.00714e-06 -0.158867)
(3.09003 2.84798e-06 -0.170587)
(2.9728 2.47804e-06 -0.200619)
(2.5796 -8.04136e-06 -0.289586)
(1.02309 -0.000113517 -0.565016)
(-0.231521 0.000999353 -0.588891)
(0.011118 0.0041448 -0.582361)
(0.289559 -0.00157304 -0.555291)
(3.08437 2.90129e-08 -0.139453)
(3.11012 1.77005e-08 -0.150103)
(3.12414 4.94308e-08 -0.152755)
(3.13443 2.33537e-08 -0.152589)
(3.14183 5.57809e-08 -0.152315)
(3.14741 4.29574e-08 -0.151823)
(3.152 1.40103e-07 -0.151164)
(3.15508 1.36154e-07 -0.150922)
(3.15579 5.54777e-07 -0.151175)
(3.15522 1.10361e-06 -0.151417)
(3.15317 1.89908e-06 -0.15214)
(3.14724 3.14055e-06 -0.154073)
(3.13149 5.13966e-06 -0.158867)
(3.09003 8.2838e-06 -0.170588)
(2.9728 1.21235e-05 -0.200622)
(2.57957 8.10261e-06 -0.289599)
(1.02308 -0.000100498 -0.565101)
(-0.232054 0.00272492 -0.588713)
(0.0103558 0.00803937 -0.582158)
(0.28718 0.00336833 -0.556271)
(3.08437 4.59761e-08 -0.139453)
(3.11012 2.84121e-08 -0.150103)
(3.12414 7.95339e-08 -0.152755)
(3.13443 3.53329e-08 -0.152589)
(3.14183 9.02896e-08 -0.152315)
(3.14741 6.76626e-08 -0.151823)
(3.152 2.33756e-07 -0.151164)
(3.15508 1.9e-07 -0.150922)
(3.15579 1.14917e-06 -0.151175)
(3.15522 2.32689e-06 -0.151417)
(3.15317 3.96537e-06 -0.15214)
(3.14724 6.53568e-06 -0.154073)
(3.13149 1.09301e-05 -0.158868)
(3.09003 1.88132e-05 -0.17059)
(2.9728 3.26706e-05 -0.200627)
(2.57954 5.10824e-05 -0.289614)
(1.02328 1.10719e-05 -0.565191)
(-0.232067 0.00555021 -0.588412)
(0.0101371 0.0136901 -0.581706)
(0.285699 0.0120548 -0.55696)
(3.08437 6.88258e-08 -0.139453)
(3.11012 4.25774e-08 -0.150103)
(3.12414 1.19942e-07 -0.152755)
(3.13443 4.92241e-08 -0.152589)
(3.14183 1.36542e-07 -0.152315)
(3.14741 9.67305e-08 -0.151823)
(3.152 3.63413e-07 -0.151164)
(3.15508 2.42746e-07 -0.150921)
(3.15579 2.13031e-06 -0.151175)
(3.15522 4.36419e-06 -0.151417)
(3.15318 7.39592e-06 -0.15214)
(3.14725 1.2167e-05 -0.154073)
(3.13149 2.06142e-05 -0.158868)
(3.09003 3.67886e-05 -0.17059)
(2.9728 6.89968e-05 -0.20063)
(2.57952 0.00013234 -0.289627)
(1.02386 0.000263416 -0.565257)
(-0.23124 0.00965208 -0.587975)
(0.010903 0.0213944 -0.580998)
(0.285 0.0248995 -0.557166)
(3.08437 1.00544e-07 -0.139454)
(3.11012 6.11318e-08 -0.150103)
(3.12414 1.74187e-07 -0.152755)
(3.13443 6.53866e-08 -0.152589)
(3.14183 1.98602e-07 -0.152315)
(3.14741 1.30256e-07 -0.151823)
(3.152 5.41603e-07 -0.151164)
(3.15508 2.94121e-07 -0.150921)
(3.15579 3.63689e-06 -0.151175)
(3.15522 7.5119e-06 -0.151417)
(3.15318 1.26965e-05 -0.15214)
(3.14725 2.08799e-05 -0.154072)
(3.1315 3.56966e-05 -0.158867)
(3.09004 6.51715e-05 -0.170589)
(2.97282 0.000127685 -0.200629)
(2.57955 0.000268739 -0.289631)
(1.02502 0.000707767 -0.565277)
(-0.229304 0.0152059 -0.587393)
(0.0129411 0.0313999 -0.580016)
(0.285481 0.0421899 -0.556876)
(3.08437 1.4394e-07 -0.139454)
(3.11012 8.59589e-08 -0.150103)
(3.12414 2.46753e-07 -0.152755)
(3.13443 8.50776e-08 -0.152589)
(3.14183 2.81787e-07 -0.152315)
(3.14741 1.65489e-07 -0.151823)
(3.152 7.8424e-07 -0.151164)
(3.15508 3.46235e-07 -0.150921)
(3.1558 5.84002e-06 -0.151174)
(3.15523 1.21361e-05 -0.151417)
(3.15318 2.05014e-05 -0.152139)
(3.14725 3.37667e-05 -0.154071)
(3.13151 5.8203e-05 -0.158865)
(3.09006 0.00010814 -0.170586)
(2.97286 0.000218475 -0.200623)
(2.57963 0.000487 -0.289621)
(1.02696 0.00143251 -0.565237)
(-0.225959 0.0224065 -0.586648)
(0.0166084 0.0439996 -0.578764)
(0.287745 0.0640051 -0.55587)
(3.08437 2.03098e-07 -0.139454)
(3.11012 1.18589e-07 -0.150103)
(3.12414 3.42621e-07 -0.152755)
(3.13443 1.09442e-07 -0.152589)
(3.14183 3.92168e-07 -0.152315)
(3.14741 1.98974e-07 -0.151823)
(3.152 1.11223e-06 -0.151164)
(3.15508 3.97785e-07 -0.15092)
(3.1558 8.95789e-06 -0.151174)
(3.15523 1.87041e-05 -0.151416)
(3.15318 3.16269e-05 -0.152138)
(3.14726 5.22574e-05 -0.154069)
(3.13152 9.08523e-05 -0.158862)
(3.09009 0.000171431 -0.170579)
(2.97293 0.000354876 -0.200609)
(2.57983 0.000824032 -0.289583)
(1.02994 0.0025664 -0.565111)
(-0.220917 0.0314591 -0.585723)
(0.0221476 0.0596217 -0.577238)
(0.291731 0.0891247 -0.553975)
(3.08437 2.8477e-07 -0.139454)
(3.11012 1.59432e-07 -0.150102)
(3.12414 4.67074e-07 -0.152755)
(3.13443 1.37574e-07 -0.152589)
(3.14183 5.3376e-07 -0.152315)
(3.14741 2.292e-07 -0.151822)
(3.152 1.55347e-06 -0.151165)
(3.15508 4.37161e-07 -0.150919)
(3.1558 1.3263e-05 -0.151173)
(3.15523 2.78053e-05 -0.151415)
(3.15319 4.70978e-05 -0.152137)
(3.14727 7.81453e-05 -0.154066)
(3.13155 0.000137054 -0.158855)
(3.09014 0.000262221 -0.170565)
(2.97305 0.000553669 -0.20058)
(2.5802 0.00132509 -0.289501)
(1.03426 0.00426647 -0.564866)
(-0.213871 0.0426096 -0.584607)
(0.0295242 0.0782848 -0.575273)
(0.296336 0.118246 -0.552344)
(3.08437 3.95367e-07 -0.139454)
(3.11012 2.09618e-07 -0.150102)
(3.12414 6.26635e-07 -0.152755)
(3.13443 1.67147e-07 -0.152588)
(3.14183 7.09493e-07 -0.152316)
(3.14741 2.49523e-07 -0.151822)
(3.152 2.13912e-06 -0.151165)
(3.15509 4.55538e-07 -0.150918)
(3.15581 1.90876e-05 -0.151172)
(3.15524 4.01504e-05 -0.151413)
(3.1532 6.81385e-05 -0.152134)
(3.14729 0.000113552 -0.154061)
(3.13158 0.000200814 -0.158845)
(3.09022 0.000388921 -0.170544)
(2.97325 0.000834566 -0.200532)
(2.58084 0.00204375 -0.289354)
(1.04025 0.00671602 -0.56447)
(-0.204534 0.0560887 -0.583255)
(0.039046 0.100294 -0.573027)
(0.302936 0.151233 -0.54918)
(3.08437 5.37215e-07 -0.139454)
(3.11012 2.72523e-07 -0.150102)
(3.12414 8.28598e-07 -0.152756)
(3.13443 1.94742e-07 -0.152588)
(3.14183 9.26621e-07 -0.152316)
(3.14741 2.47567e-07 -0.151822)
(3.152 2.896e-06 -0.151165)
(3.15509 4.51594e-07 -0.150916)
(3.15581 2.68178e-05 -0.15117)
(3.15525 5.65598e-05 -0.151411)
(3.15321 9.616e-05 -0.15213)
(3.14731 0.000160921 -0.154054)
(3.13163 0.000286761 -0.15883)
(3.09034 0.000561343 -0.17051)
(2.97355 0.00122105 -0.200456)
(2.58186 0.00304668 -0.289112)
(1.04831 0.010153 -0.563874)
(-0.19249 0.0721047 -0.58164)
(0.0506467 0.126007 -0.570296)
(0.310166 0.187787 -0.545983)
(3.08437 7.14358e-07 -0.139454)
(3.11012 3.49188e-07 -0.150101)
(3.12414 1.0756e-06 -0.152756)
(3.13443 2.13803e-07 -0.152587)
(3.14183 1.18571e-06 -0.152316)
(3.14741 2.02826e-07 -0.151821)
(3.152 3.85958e-06 -0.151166)
(3.15509 4.37451e-07 -0.150913)
(3.15583 3.68842e-05 -0.151168)
(3.15526 7.79372e-05 -0.151408)
(3.15323 0.000132727 -0.152125)
(3.14735 0.00022299 -0.154043)
(3.13171 0.000400142 -0.158808)
(3.09052 0.000790737 -0.170461)
(2.97402 0.00174048 -0.200342)
(2.58342 0.00441634 -0.288737)
(1.05893 0.014949 -0.56302)
(-0.177211 0.0906375 -0.579713)
(0.0643617 0.155566 -0.567078)
(0.318288 0.228828 -0.542245)
(3.08437 9.31575e-07 -0.139455)
(3.11012 4.35235e-07 -0.150101)
(3.12414 1.36266e-06 -0.152756)
(3.13443 2.0303e-07 -0.152587)
(3.14183 1.47981e-06 -0.152317)
(3.14741 1.05143e-07 -0.151821)
(3.152 5.0575e-06 -0.151166)
(3.1551 3.89435e-07 -0.15091)
(3.15584 4.9723e-05 -0.151164)
(3.15528 0.000105235 -0.151403)
(3.15326 0.000179504 -0.152117)
(3.1474 0.000302691 -0.154028)
(3.13182 0.000546607 -0.158776)
(3.09078 0.00108926 -0.17039)
(2.97469 0.0024221 -0.200176)
(2.58577 0.00623043 -0.288171)
(1.0728 0.0212835 -0.561879)
(-0.160655 0.112234 -0.577396)
(0.0793247 0.189748 -0.563384)
(0.327074 0.274635 -0.537671)
(3.08437 1.17624e-06 -0.139455)
(3.11012 5.29713e-07 -0.1501)
(3.12414 1.65628e-06 -0.152757)
(3.13443 1.5196e-07 -0.152586)
(3.14183 1.78475e-06 -0.152317)
(3.14741 -6.15854e-08 -0.15182)
(3.152 6.51969e-06 -0.151167)
(3.15511 2.75736e-07 -0.150905)
(3.15586 6.57667e-05 -0.15116)
(3.15531 0.000139406 -0.151397)
(3.1533 0.000238185 -0.152107)
(3.14747 0.00040308 -0.154008)
(3.13197 0.00073217 -0.158733)
(3.09113 0.00146996 -0.170291)
(2.97564 0.00329635 -0.199941)
(2.58912 0.00855997 -0.287367)
(1.09038 0.0292133 -0.560316)
(-0.142388 0.138078 -0.574681)
(0.0956277 0.229206 -0.558893)
(0.336149 0.325637 -0.532653)
(3.08437 1.39579e-06 -0.139456)
(3.11012 6.10273e-07 -0.150099)
(3.12414 1.80751e-06 -0.152757)
(3.13443 9.11931e-08 -0.152585)
(3.14183 1.88665e-06 -0.152318)
(3.14741 -3.67046e-07 -0.151819)
(3.152 8.25903e-06 -0.151168)
(3.15512 5.31827e-08 -0.150898)
(3.15589 8.54409e-05 -0.151154)
(3.15534 0.000181393 -0.151389)
(3.15335 0.000310455 -0.152093)
(3.14756 0.000527284 -0.153981)
(3.13217 0.00096335 -0.158674)
(3.09161 0.00194791 -0.170158)
(2.97694 0.0044013 -0.199619)
(2.5937 0.0115143 -0.286265)
(1.11241 0.0391581 -0.558239)
(-0.120947 0.169413 -0.571562)
(0.113831 0.274751 -0.553601)
(0.345633 0.382894 -0.526781)
(3.08437 1.54404e-06 -0.139456)
(3.11012 6.05437e-07 -0.150098)
(3.12414 1.59473e-06 -0.152758)
(3.13443 -1.84056e-07 -0.152583)
(3.14183 1.86453e-06 -0.15232)
(3.14741 -1.0344e-06 -0.151818)
(3.152 1.01657e-05 -0.15117)
(3.15513 -4.34611e-07 -0.150889)
(3.15592 0.000108818 -0.151146)
(3.15538 0.000231697 -0.151379)
(3.15341 0.000397699 -0.152075)
(3.14768 0.000678735 -0.153945)
(3.13243 0.00124856 -0.158598)
(3.09224 0.00254421 -0.169981)
(2.97869 0.00579334 -0.199188)
(2.59986 0.0152615 -0.284786)
(1.14022 0.0516498 -0.555519)
(-0.0954455 0.207273 -0.567619)
(0.134341 0.327709 -0.54735)
(0.355583 0.447937 -0.520226)
(3.08437 1.73485e-06 -0.139458)
(3.11012 5.45714e-07 -0.150096)
(3.12414 1.47581e-06 -0.152759)
(3.13443 -6.08069e-07 -0.152582)
(3.14183 2.45527e-06 -0.152321)
(3.14741 -2.46773e-06 -0.151816)
(3.152 1.2735e-05 -0.151171)
(3.15515 -1.52765e-06 -0.150879)
(3.15596 0.0001358 -0.151137)
(3.15543 0.000290619 -0.151366)
(3.15349 0.00050112 -0.152053)
(3.14784 0.000860803 -0.153899)
(3.13277 0.00159635 -0.158498)
(3.09308 0.00328015 -0.169749)
(2.98102 0.00752823 -0.198614)
(2.60801 0.0199719 -0.282839)
(1.17438 0.067412 -0.551759)
(-0.066135 0.253583 -0.562884)
(0.157285 0.389679 -0.539615)
(0.366097 0.523333 -0.51251)
(3.08437 2.05241e-06 -0.13946)
(3.11012 5.60955e-07 -0.150093)
(3.12414 1.91056e-06 -0.152761)
(3.13443 -1.12065e-06 -0.15258)
(3.14183 3.91593e-06 -0.152323)
(3.14741 -5.59597e-06 -0.151813)
(3.152 1.73083e-05 -0.151173)
(3.15517 -4.44213e-06 -0.150867)
(3.15602 0.000166347 -0.151126)
(3.1555 0.000359356 -0.151351)
(3.1536 0.000623566 -0.152025)
(3.14804 0.00107926 -0.153841)
(3.13322 0.00201938 -0.15837)
(3.09418 0.00418822 -0.169451)
(2.98407 0.00970344 -0.197872)
(2.61875 0.0259945 -0.280322)
(1.2169 0.0877694 -0.546535)
(-0.0315887 0.311472 -0.557292)
(0.183513 0.4636 -0.53147)
(0.377796 0.613149 -0.503247)
(3.08437 2.42899e-06 -0.139462)
(3.11012 7.43548e-07 -0.15009)
(3.12413 2.89754e-06 -0.152764)
(3.13443 -1.78803e-06 -0.152577)
(3.14183 6.27202e-06 -0.152326)
(3.14742 -1.12444e-05 -0.15181)
(3.152 2.54095e-05 -0.151175)
(3.1552 -1.18208e-05 -0.150852)
(3.15608 0.000199302 -0.151112)
(3.15558 0.000438277 -0.151332)
(3.15373 0.000766179 -0.15199)
(3.14829 0.00133396 -0.153769)
(3.13379 0.00251413 -0.15821)
(3.09559 0.00526688 -0.169074)
(2.9881 0.0123655 -0.196913)
(2.63304 0.0336956 -0.277035)
(1.27259 0.114341 -0.539543)
(0.00859255 0.38786 -0.550065)
(0.214 0.552774 -0.521392)
(0.391307 0.723572 -0.491479)
(3.08437 2.88849e-06 -0.139464)
(3.11012 1.02784e-06 -0.150087)
(3.12413 4.30357e-06 -0.152767)
(3.13443 -2.33743e-06 -0.152574)
(3.14182 9.40551e-06 -0.152328)
(3.14742 -1.80572e-05 -0.151806)
(3.152 3.73535e-05 -0.151177)
(3.15523 -2.20431e-05 -0.150837)
(3.15616 0.000237786 -0.151094)
(3.15568 0.000533723 -0.151307)
(3.15389 0.000942865 -0.151947)
(3.14861 0.00165521 -0.153682)
(3.13451 0.00314663 -0.158016)
(3.09741 0.0066702 -0.168608)
(2.99341 0.0159415 -0.195692)
(2.65238 0.0446057 -0.27268)
(1.34739 0.153863 -0.530212)
(0.0553119 0.499633 -0.539518)
(0.24768 0.668156 -0.512486)
(0.407844 0.874215 -0.47433)
(3.00706 4.09972e-09 -0.0225423)
(3.0173 6.71261e-09 -0.0336618)
(3.02733 1.01507e-08 -0.0379792)
(3.03713 7.76173e-09 -0.0412287)
(3.0446 1.2771e-08 -0.0430541)
(3.0507 8.35139e-09 -0.0439872)
(3.05581 2.84954e-08 -0.0446399)
(3.05901 -5.8546e-10 -0.0453581)
(3.05967 -2.78436e-08 -0.0458345)
(3.05928 -5.04595e-08 -0.0459862)
(3.05676 -1.11419e-07 -0.0463809)
(3.04885 -3.38136e-07 -0.0472707)
(3.02779 -1.08478e-06 -0.0492043)
(2.9737 -3.32691e-06 -0.0534572)
(2.8283 -1.00103e-05 -0.0632349)
(2.37142 -3.37297e-05 -0.0889612)
(0.466793 -0.000163335 -0.159273)
(-0.986917 0.000932423 -0.161737)
(-0.354431 0.00417838 -0.170756)
(0.157165 0.00668108 -0.168411)
(3.00706 1.26427e-08 -0.0225423)
(3.0173 2.08961e-08 -0.0336618)
(3.02733 3.19068e-08 -0.0379792)
(3.03713 2.35658e-08 -0.0412287)
(3.0446 3.96335e-08 -0.0430541)
(3.0507 2.64711e-08 -0.0439872)
(3.05581 8.68344e-08 -0.0446399)
(3.05901 1.47942e-08 -0.0453582)
(3.05967 -8.60188e-10 -0.0458345)
(3.05928 8.81984e-09 -0.0459863)
(3.05676 -5.84402e-08 -0.046381)
(3.04885 -5.23708e-07 -0.0472709)
(3.02778 -2.30257e-06 -0.0492048)
(2.9737 -7.94027e-06 -0.0534583)
(2.82829 -2.50799e-05 -0.0632376)
(2.37137 -8.72143e-05 -0.0889715)
(0.466959 -0.000453316 -0.159265)
(-0.986249 0.00349002 -0.161703)
(-0.351854 0.0132919 -0.170611)
(0.155339 0.0226481 -0.168359)
(3.00706 2.24871e-08 -0.0225423)
(3.0173 3.7261e-08 -0.0336618)
(3.02733 5.74073e-08 -0.0379792)
(3.03713 4.06444e-08 -0.0412287)
(3.0446 7.0429e-08 -0.0430541)
(3.0507 4.72981e-08 -0.0439872)
(3.05581 1.48009e-07 -0.0446399)
(3.05901 7.74352e-08 -0.0453582)
(3.05967 2.6677e-07 -0.0458346)
(3.05928 5.35253e-07 -0.0459863)
(3.05676 7.97588e-07 -0.0463812)
(3.04885 7.11482e-07 -0.0472712)
(3.02778 -7.99064e-07 -0.0492057)
(2.97369 -6.86196e-06 -0.0534604)
(2.82827 -2.70539e-05 -0.0632423)
(2.37127 -0.00010663 -0.0889907)
(0.467569 -0.000648157 -0.15926)
(-0.984332 0.00746966 -0.161627)
(-0.347837 0.0247771 -0.17033)
(0.158005 0.0440772 -0.167744)
(3.00706 3.46757e-08 -0.0225423)
(3.0173 5.73799e-08 -0.0336618)
(3.02733 8.92098e-08 -0.0379793)
(3.03713 5.96914e-08 -0.0412287)
(3.0446 1.07439e-07 -0.0430541)
(3.0507 7.15168e-08 -0.0439872)
(3.05581 2.1378e-07 -0.0446399)
(3.05901 2.15291e-07 -0.0453582)
(3.05967 9.27289e-07 -0.0458346)
(3.05928 1.82722e-06 -0.0459864)
(3.05676 2.96784e-06 -0.0463813)
(3.04885 4.25582e-06 -0.0472717)
(3.02778 5.07558e-06 -0.0492067)
(2.97369 3.21147e-06 -0.0534631)
(2.82825 -9.00901e-06 -0.0632485)
(2.37115 -7.71243e-05 -0.0890177)
(0.468866 -0.000689083 -0.159258)
(-0.980784 0.0129203 -0.161511)
(-0.342007 0.0388843 -0.169892)
(0.162321 0.0693432 -0.166773)
(3.00706 5.04495e-08 -0.0225423)
(3.0173 8.32928e-08 -0.0336618)
(3.02733 1.30583e-07 -0.0379793)
(3.03713 8.10093e-08 -0.0412287)
(3.0446 1.53195e-07 -0.0430541)
(3.0507 1.00073e-07 -0.0439872)
(3.05581 2.8755e-07 -0.0446399)
(3.05901 4.56909e-07 -0.0453582)
(3.05967 2.14092e-06 -0.0458347)
(3.05928 4.20013e-06 -0.0459865)
(3.05676 6.99048e-06 -0.0463815)
(3.04885 1.10298e-05 -0.0472721)
(3.02778 1.69855e-05 -0.0492079)
(2.97369 2.55197e-05 -0.0534659)
(2.82824 3.58245e-05 -0.0632548)
(2.37102 1.64848e-05 -0.0890494)
(0.471099 -0.000506077 -0.159252)
(-0.975272 0.0199535 -0.161364)
(-0.334172 0.0558036 -0.169288)
(0.167478 0.0979628 -0.165567)
(3.00706 7.15211e-08 -0.0225423)
(3.0173 1.17467e-07 -0.0336618)
(3.02733 1.85115e-07 -0.0379793)
(3.03713 1.05519e-07 -0.0412287)
(3.0446 2.10904e-07 -0.0430541)
(3.0507 1.32326e-07 -0.0439872)
(3.05581 3.74053e-07 -0.04464)
(3.05901 8.3439e-07 -0.0453581)
(3.05967 4.08648e-06 -0.0458349)
(3.05928 8.00671e-06 -0.0459866)
(3.05676 1.34681e-05 -0.0463817)
(3.04885 2.20634e-05 -0.0472725)
(3.02779 3.67784e-05 -0.0492088)
(2.97369 6.35786e-05 -0.0534684)
(2.82824 0.000114654 -0.0632603)
(2.37093 0.000191117 -0.089082)
(0.474475 -2.392e-05 -0.159229)
(-0.967526 0.0287244 -0.161187)
(-0.324252 0.0757312 -0.168513)
(0.173935 0.130017 -0.164105)
(3.00706 9.96677e-08 -0.0225424)
(3.0173 1.62953e-07 -0.0336618)
(3.02733 2.57403e-07 -0.0379793)
(3.03713 1.33224e-07 -0.0412287)
(3.0446 2.85145e-07 -0.0430541)
(3.0507 1.68676e-07 -0.0439871)
(3.05581 4.80317e-07 -0.04464)
(3.05901 1.38387e-06 -0.0453578)
(3.05967 6.97609e-06 -0.0458351)
(3.05928 1.36692e-05 -0.0459868)
(3.05676 2.3128e-05 -0.0463818)
(3.04886 3.86162e-05 -0.0472727)
(3.02779 6.67705e-05 -0.0492094)
(2.97371 0.000122003 -0.05347)
(2.82826 0.000237639 -0.0632638)
(2.37092 0.000473273 -0.0891122)
(0.479236 0.000846359 -0.159162)
(-0.957227 0.0394043 -0.160986)
(-0.312157 0.0987982 -0.167552)
(0.181761 0.165469 -0.16242)
(3.00706 1.37345e-07 -0.0225424)
(3.0173 2.23437e-07 -0.0336618)
(3.02733 3.52769e-07 -0.0379793)
(3.03713 1.65201e-07 -0.0412286)
(3.0446 3.81452e-07 -0.0430542)
(3.0507 2.07695e-07 -0.0439871)
(3.05581 6.16203e-07 -0.0446401)
(3.05901 2.14945e-06 -0.0453574)
(3.05967 1.10787e-05 -0.0458353)
(3.05928 2.17235e-05 -0.0459869)
(3.05677 3.69054e-05 -0.0463818)
(3.04887 6.23515e-05 -0.0472726)
(3.02781 0.000110145 -0.0492093)
(2.97374 0.00020746 -0.0534703)
(2.82833 0.000420212 -0.0632643)
(2.37105 0.000904363 -0.0891371)
(0.485736 0.00223478 -0.159038)
(-0.943971 0.0521972 -0.160764)
(-0.297875 0.125145 -0.166396)
(0.191286 0.204067 -0.160457)
(3.00706 1.88298e-07 -0.0225424)
(3.0173 3.0327e-07 -0.0336618)
(3.02733 4.7634e-07 -0.0379794)
(3.03713 2.04976e-07 -0.0412285)
(3.0446 5.05885e-07 -0.0430542)
(3.0507 2.4303e-07 -0.0439871)
(3.05581 7.93517e-07 -0.0446403)
(3.05902 3.1888e-06 -0.0453568)
(3.05968 1.6741e-05 -0.0458357)
(3.05929 3.28554e-05 -0.045987)
(3.05678 5.59998e-05 -0.0463816)
(3.04888 9.54359e-05 -0.0472721)
(3.02784 0.000171138 -0.0492084)
(2.9738 0.000328992 -0.0534688)
(2.82847 0.000683497 -0.0632608)
(2.3714 0.00154007 -0.0891523)
(0.494356 0.00433053 -0.158846)
(-0.927375 0.0673044 -0.16052)
(-0.281512 0.154934 -0.165075)
(0.201791 0.245811 -0.158312)
(3.00706 2.56153e-07 -0.0225425)
(3.0173 4.06918e-07 -0.0336617)
(3.02733 6.33734e-07 -0.0379795)
(3.03713 2.53401e-07 -0.0412284)
(3.0446 6.64662e-07 -0.0430543)
(3.0507 2.70565e-07 -0.043987)
(3.05581 1.0273e-06 -0.0446405)
(3.05902 4.57526e-06 -0.0453558)
(3.05968 2.43914e-05 -0.0458361)
(3.05929 4.79107e-05 -0.045987)
(3.05679 8.18833e-05 -0.0463812)
(3.0489 0.000140513 -0.0472711)
(3.02788 0.000254896 -0.0492063)
(2.9739 0.000497523 -0.0534646)
(2.8287 0.0010527 -0.0632517)
(2.37208 0.0024451 -0.0891521)
(0.505495 0.00735024 -0.158574)
(-0.907087 0.0849544 -0.160257)
(-0.263007 0.188341 -0.163549)
(0.213381 0.290638 -0.15599)
(3.00706 3.42448e-07 -0.0225426)
(3.0173 5.38122e-07 -0.0336617)
(3.02733 8.3313e-07 -0.0379796)
(3.03713 3.06015e-07 -0.0412283)
(3.0446 8.61159e-07 -0.0430545)
(3.0507 2.91072e-07 -0.0439869)
(3.05581 1.3406e-06 -0.0446408)
(3.05903 6.4052e-06 -0.0453543)
(3.05969 3.45362e-05 -0.0458368)
(3.05931 6.78832e-05 -0.0459871)
(3.0568 0.000116278 -0.0463806)
(3.04893 0.000200659 -0.0472694)
(3.02795 0.000367382 -0.0492026)
(2.97406 0.000725661 -0.053457)
(2.82906 0.00155682 -0.0632348)
(2.37326 0.00369499 -0.089128)
(0.519589 0.0115583 -0.158212)
(-0.882757 0.105409 -0.159964)
(-0.242446 0.225643 -0.16182)
(0.225848 0.338791 -0.153384)
(3.00706 4.49375e-07 -0.0225427)
(3.0173 7.00486e-07 -0.0336616)
(3.02733 1.07904e-06 -0.0379797)
(3.03713 3.55523e-07 -0.0412281)
(3.0446 1.10229e-06 -0.0430547)
(3.0507 3.08938e-07 -0.0439868)
(3.05582 1.76441e-06 -0.0446413)
(3.05903 8.79903e-06 -0.0453522)
(3.0597 4.77549e-05 -0.0458378)
(3.05932 9.38988e-05 -0.0459872)
(3.05683 0.000161135 -0.0463795)
(3.04898 0.000279376 -0.0472666)
(3.02805 0.000515449 -0.0491967)
(2.97428 0.00102808 -0.0534448)
(2.82962 0.00222978 -0.0632077)
(2.37511 0.00537826 -0.0890702)
(0.537165 0.0173145 -0.157744)
(-0.85408 0.128907 -0.159633)
(-0.220113 0.267081 -0.159863)
(0.238594 0.390492 -0.150704)
(3.00706 5.79722e-07 -0.0225428)
(3.0173 8.95743e-07 -0.0336615)
(3.02733 1.37365e-06 -0.0379799)
(3.03713 4.02567e-07 -0.0412279)
(3.0446 1.38777e-06 -0.0430549)
(3.0507 3.14481e-07 -0.0439866)
(3.05582 2.36036e-06 -0.0446419)
(3.05904 1.19175e-05 -0.0453493)
(3.05972 6.46727e-05 -0.045839)
(3.05934 0.000127139 -0.0459872)
(3.05686 0.000218489 -0.0463781)
(3.04904 0.00038032 -0.0472627)
(3.02819 0.000706273 -0.0491882)
(2.9746 0.00142022 -0.0534263)
(2.83042 0.00310832 -0.0631669)
(2.37787 0.00759137 -0.0889584)
(0.558458 0.024853 -0.15726)
(-0.825384 0.156108 -0.15911)
(-0.196481 0.313113 -0.157671)
(0.251874 0.446021 -0.147647)
(3.00706 7.32306e-07 -0.022543)
(3.0173 1.12192e-06 -0.0336613)
(3.02733 1.7019e-06 -0.0379801)
(3.03713 4.51791e-07 -0.0412276)
(3.0446 1.73234e-06 -0.0430553)
(3.0507 3.27947e-07 -0.0439863)
(3.05582 3.23551e-06 -0.0446427)
(3.05905 1.59158e-05 -0.0453453)
(3.05974 8.5928e-05 -0.0458408)
(3.05937 0.000168805 -0.0459873)
(3.05691 0.000290404 -0.046376)
(3.04913 0.000507232 -0.0472572)
(3.02838 0.000947339 -0.049176)
(2.97505 0.00191865 -0.0533998)
(2.83156 0.00423286 -0.0631085)
(2.38181 0.0104421 -0.0887832)
(0.58464 0.034355 -0.156689)
(-0.795116 0.187546 -0.15837)
(-0.171659 0.364055 -0.155281)
(0.264821 0.505936 -0.144665)
(3.00706 9.39527e-07 -0.0225432)
(3.0173 1.40961e-06 -0.0336611)
(3.02733 1.99118e-06 -0.0379803)
(3.03713 5.29021e-07 -0.0412272)
(3.0446 2.20283e-06 -0.0430558)
(3.0507 4.18994e-07 -0.0439859)
(3.05582 4.58234e-06 -0.0446437)
(3.05907 2.07879e-05 -0.0453402)
(3.05977 0.000112209 -0.045843)
(3.05941 0.000220205 -0.0459874)
(3.05697 0.000378999 -0.0463732)
(3.04925 0.000663908 -0.0472498)
(3.02864 0.00124657 -0.0491596)
(2.97565 0.0025416 -0.0533635)
(2.83313 0.00564764 -0.0630273)
(2.38727 0.0140489 -0.0885299)
(0.616575 0.0463342 -0.155948)
(-0.760634 0.224173 -0.15758)
(-0.145016 0.420405 -0.152595)
(0.277753 0.571026 -0.1412)
(3.00706 1.22252e-06 -0.0225434)
(3.0173 1.79051e-06 -0.033661)
(3.02733 2.29321e-06 -0.0379805)
(3.03713 7.1413e-07 -0.041227)
(3.0446 2.891e-06 -0.0430559)
(3.0507 4.37123e-07 -0.0439857)
(3.05582 6.73292e-06 -0.0446448)
(3.05909 2.68352e-05 -0.0453337)
(3.05981 0.000143758 -0.0458458)
(3.05946 0.000281798 -0.0459874)
(3.05705 0.000485465 -0.0463697)
(3.0494 0.000853525 -0.0472401)
(3.02898 0.00161224 -0.0491377)
(2.97646 0.00331053 -0.0533148)
(2.83523 0.00741024 -0.0629179)
(2.39466 0.0185797 -0.0881746)
(0.6559 0.0612579 -0.155035)
(-0.720632 0.266516 -0.156494)
(-0.117719 0.482746 -0.149765)
(0.290124 0.642395 -0.137878)
(3.00706 1.52952e-06 -0.0225434)
(3.0173 2.24411e-06 -0.0336611)
(3.02732 2.84559e-06 -0.0379804)
(3.03713 9.2692e-07 -0.0412269)
(3.0446 3.92338e-06 -0.043056)
(3.0507 -1.26284e-07 -0.0439855)
(3.05583 1.04478e-05 -0.0446458)
(3.05912 3.41233e-05 -0.0453258)
(3.05986 0.000179898 -0.0458493)
(3.05952 0.000352583 -0.0459875)
(3.05715 0.000609383 -0.0463651)
(3.0496 0.00107776 -0.0472276)
(3.02942 0.00205071 -0.0491097)
(2.97751 0.00424187 -0.0532516)
(2.83802 0.00955803 -0.062774)
(2.40445 0.0241216 -0.0877031)
(0.704572 0.0792256 -0.153808)
(-0.674904 0.31591 -0.155266)
(-0.0880247 0.552009 -0.146523)
(0.302096 0.722062 -0.134086)
(3.00706 1.86372e-06 -0.0225435)
(3.0173 2.78358e-06 -0.0336613)
(3.02732 3.74014e-06 -0.0379802)
(3.03713 1.06228e-06 -0.0412269)
(3.04459 5.57571e-06 -0.0430563)
(3.0507 -1.98116e-06 -0.0439851)
(3.05583 1.73892e-05 -0.0446468)
(3.05915 4.01634e-05 -0.0453161)
(3.05992 0.000218979 -0.045854)
(3.05959 0.000431971 -0.0459879)
(3.05727 0.000751671 -0.0463597)
(3.04986 0.00133961 -0.0472124)
(3.02999 0.00256887 -0.0490747)
(2.97887 0.00535397 -0.0531722)
(2.84162 0.012155 -0.062594)
(2.41695 0.0309123 -0.0870721)
(0.763313 0.101088 -0.152682)
(-0.623387 0.37524 -0.154258)
(-0.0561568 0.628867 -0.143586)
(0.313953 0.812867 -0.130366)
(3.00706 2.23646e-06 -0.0225435)
(3.0173 3.44041e-06 -0.0336614)
(3.02732 5.00164e-06 -0.03798)
(3.03713 1.25406e-06 -0.0412267)
(3.04459 8.02561e-06 -0.0430567)
(3.05071 -5.92294e-06 -0.043984)
(3.05584 3.02268e-05 -0.0446481)
(3.05919 3.556e-05 -0.0453043)
(3.05999 0.000260336 -0.0458606)
(3.05969 0.000525885 -0.0459889)
(3.05743 0.000919184 -0.0463535)
(3.05017 0.00163852 -0.0471942)
(3.0307 0.00314951 -0.0490328)
(2.98058 0.00660668 -0.0530764)
(2.84623 0.015154 -0.0623746)
(2.43303 0.0390226 -0.0862715)
(0.836801 0.127157 -0.15158)
(-0.56367 0.448802 -0.152778)
(-0.0210223 0.712554 -0.140565)
(0.325991 0.919295 -0.126291)
(3.00706 2.61762e-06 -0.0225436)
(3.0173 4.17465e-06 -0.0336615)
(3.02732 6.36296e-06 -0.0379799)
(3.03713 1.29242e-06 -0.0412263)
(3.04459 1.05669e-05 -0.0430574)
(3.05071 -1.17327e-05 -0.0439817)
(3.05585 4.7646e-05 -0.0446498)
(3.05923 1.68142e-05 -0.0452925)
(3.06008 0.000305098 -0.0458666)
(3.0598 0.000638882 -0.0459901)
(3.05762 0.00111782 -0.0463471)
(3.05055 0.00197921 -0.0471743)
(3.03156 0.00379297 -0.0489857)
(2.9827 0.0079925 -0.0529667)
(2.85203 0.0185504 -0.0621191)
(2.4534 0.0486327 -0.0853355)
(0.933226 0.155547 -0.15027)
(-0.491958 0.53824 -0.151132)
(0.0206044 0.800844 -0.139658)
(0.340761 1.05718 -0.121661)
(2.97874 1.67263e-09 0.000346283)
(2.97498 5.37224e-09 -0.00403585)
(2.97783 8.27946e-09 -0.00715572)
(2.9813 9.72128e-09 -0.0104635)
(2.98547 1.10088e-08 -0.0125851)
(2.98977 1.1554e-08 -0.0140845)
(2.99341 3.07696e-08 -0.0151396)
(2.99552 -5.17999e-08 -0.0162086)
(2.99604 -1.41939e-07 -0.016467)
(2.99556 -2.83807e-07 -0.0166618)
(2.99247 -6.05926e-07 -0.0170062)
(2.98312 -1.45049e-06 -0.0175945)
(2.95898 -3.70116e-06 -0.0186479)
(2.89838 -9.71204e-06 -0.020676)
(2.73859 -2.654e-05 -0.0249108)
(2.24464 -8.07547e-05 -0.0351448)
(0.0479613 -0.000291604 -0.0616551)
(-1.51713 0.00182086 -0.0685828)
(-0.64925 0.00738231 -0.078025)
(0.0334556 0.0160772 -0.0761295)
(2.97874 4.98446e-09 0.000346282)
(2.97498 1.61774e-08 -0.00403585)
(2.97783 2.50552e-08 -0.00715572)
(2.9813 2.92826e-08 -0.0104635)
(2.98547 3.29029e-08 -0.0125851)
(2.98977 3.38742e-08 -0.0140845)
(2.99341 8.6622e-08 -0.0151396)
(2.99552 -1.17327e-07 -0.0162086)
(2.99604 -3.32722e-07 -0.016467)
(2.99556 -6.74888e-07 -0.0166618)
(2.99247 -1.49051e-06 -0.0170063)
(2.98312 -3.71004e-06 -0.0175947)
(2.95897 -9.73635e-06 -0.0186486)
(2.89837 -2.59225e-05 -0.0206776)
(2.73857 -7.09149e-05 -0.0249148)
(2.24453 -0.000215459 -0.0351564)
(0.0483879 -0.000877985 -0.0616716)
(-1.51733 0.00622104 -0.0685291)
(-0.644149 0.0230087 -0.0779107)
(0.0394225 0.0471669 -0.0758632)
(2.97874 8.39635e-09 0.000346281)
(2.97498 2.73392e-08 -0.00403585)
(2.97783 4.27419e-08 -0.00715572)
(2.9813 4.9731e-08 -0.0104635)
(2.98547 5.49655e-08 -0.0125851)
(2.98977 5.3967e-08 -0.0140845)
(2.99341 1.2595e-07 -0.0151396)
(2.99552 -7.33266e-08 -0.0162086)
(2.99604 -2.56046e-07 -0.016467)
(2.99556 -5.60951e-07 -0.0166619)
(2.99247 -1.449e-06 -0.0170065)
(2.98312 -4.19134e-06 -0.0175953)
(2.95897 -1.21047e-05 -0.0186498)
(2.89835 -3.39477e-05 -0.0206805)
(2.73852 -9.50979e-05 -0.0249217)
(2.24432 -0.000295468 -0.0351775)
(0.0496637 -0.00142383 -0.0617158)
(-1.51588 0.0122537 -0.0684482)
(-0.636765 0.0421931 -0.0776829)
(0.0468664 0.084426 -0.0752972)
(2.97874 1.21884e-08 0.000346279)
(2.97498 3.94523e-08 -0.00403585)
(2.97783 6.23559e-08 -0.00715572)
(2.9813 7.21022e-08 -0.0104635)
(2.98547 7.76978e-08 -0.0125851)
(2.98977 7.05464e-08 -0.0140845)
(2.99341 1.39018e-07 -0.0151396)
(2.99552 1.44199e-07 -0.0162087)
(2.99604 2.44811e-07 -0.0164671)
(2.99556 3.52541e-07 -0.016662)
(2.99247 4.73164e-08 -0.0170068)
(2.98311 -1.92605e-06 -0.017596)
(2.95896 -8.96853e-06 -0.0186515)
(2.89834 -3.02211e-05 -0.0206843)
(2.73846 -9.24336e-05 -0.0249307)
(2.24402 -0.000309408 -0.0352069)
(0.0520159 -0.00181692 -0.0617936)
(-1.51229 0.0198744 -0.0683472)
(-0.627083 0.0642706 -0.077338)
(0.05649 0.124511 -0.0744231)
(2.97874 1.66778e-08 0.000346276)
(2.97498 5.33196e-08 -0.00403585)
(2.97783 8.49884e-08 -0.00715572)
(2.9813 9.72848e-08 -0.0104635)
(2.98547 1.01472e-07 -0.0125851)
(2.98977 8.23283e-08 -0.0140845)
(2.99341 1.17284e-07 -0.0151396)
(2.99552 5.98645e-07 -0.0162087)
(2.99604 1.32544e-06 -0.0164672)
(2.99556 2.35856e-06 -0.0166622)
(2.99247 3.52326e-06 -0.0170072)
(2.98311 4.04851e-06 -0.0175968)
(2.95896 1.53727e-06 -0.0186535)
(2.89832 -1.09317e-05 -0.020689)
(2.73841 -5.48807e-05 -0.0249413)
(2.24365 -0.000237307 -0.0352439)
(0.0557117 -0.00193286 -0.0619044)
(-1.50626 0.0291201 -0.0682337)
(-0.615103 0.0892546 -0.0768829)
(0.06788 0.166438 -0.073356)
(2.97874 2.23165e-08 0.000346271)
(2.97498 6.9815e-08 -0.00403585)
(2.97783 1.11919e-07 -0.00715572)
(2.9813 1.26498e-07 -0.0104634)
(2.98547 1.26967e-07 -0.0125851)
(2.98977 8.78593e-08 -0.0140845)
(2.99341 5.35107e-08 -0.0151396)
(2.99552 1.36063e-06 -0.0162086)
(2.99604 3.15674e-06 -0.0164673)
(2.99556 5.77632e-06 -0.0166624)
(2.99247 9.54199e-06 -0.0170076)
(2.98311 1.47412e-05 -0.0175978)
(2.95895 2.13198e-05 -0.0186556)
(2.89831 2.77574e-05 -0.020694)
(2.73836 2.56348e-05 -0.0249526)
(2.24326 -6.07982e-05 -0.035286)