/*--------------------------------*- C++ -*----------------------------------*\
  =========                 |
  \\      /  F ield         | OpenFOAM: The Open Source CFD Toolbox
   \\    /   O peration     | Website:  https://openfoam.org
    \\  /    A nd           | Version:  6.0
     \\/     M anipulation  |
\*---------------------------------------------------------------------------*/
FoamFile
{
    version     2.0;
    format      ascii;
    class       volScalarField;
    location    "2.000067";
    object      p;
}
// * * * * * * * * * * * * * * * * * * * * * * * * * * * * * * * * * * * * * //

dimensions      [1 -1 -2 0 0 0 0];

internalField   nonuniform List<scalar> 
2700
(
1
1
1
1
1
1
1
1
1
1
1
1
1
1
1
2.34551
9.15292
10.6264
10.5932
10.676
10.8995
11.3807
11.7806
11.752
11.3821
11.012
11.1965
11.684
12.1761
12.365
1
1
1
1
1
1
1
1
1
1
1
1
1
1
1
2.31817
9.03842
10.6119
10.7886
11.0389
11.1997
11.2159
11.2478
11.5203
11.8137
11.9516
11.9629
11.8653
11.7605
11.9236
1
1
1
1
1
1
1
1
1
1
1
1
1
1
1
2.30972
8.98298
10.42
10.8248
11.2137
11.3585
11.187
11.0411
11.0912
11.6636
12.5729
12.6534
12.2091
11.568
11.1706
1
1
1
1
1
1
1
1
1
1
1
1
1
1
1
2.28978
8.96029
10.5298
10.8535
11.0593
11.1699
11.2599
11.2131
11.4005
11.9
12.1638
12.116
11.9256
11.579
11.6899
1
1
1
1
1
1
1
1
1
1
1
1
1
1
1
2.25747
8.9935
10.6973
10.6915
10.775
10.8872
11.2539
11.7324
11.8525
11.6115
11.2611
11.3547
11.8131
12.0167
12.3438
1
1
1
1
1
1
1
1
1
1
1
1
1
1
1
2.22428
9.02663
10.7122
10.5715
10.6013
10.8348
11.2706
11.7921
12.0017
11.5059
10.9417
10.8944
11.2226
12.4278
12.9575
1
1
1
1
1
1
1
1
1
1
1
1
1
1
1
2.13792
8.92935
10.5215
10.5384
10.7526
11.1759
11.4302
11.4335
11.4348
11.4261
11.3393
11.5586
12.0477
12.2185
12.171
1
1
1
1
1
1
1
1
1
1
1
1
1
1
1
2.04443
8.72729
10.2583
10.5811
11.1445
11.3936
11.3961
11.1062
10.8618
11.3316
12.1273
12.4266
12.3303
11.7245
11.3038
1
1
1
1
1
1
1
1
1
1
1
1
1
1
1
1.94443
8.56117
10.3138
10.8221
11.1597
11.3027
11.1198
10.968
10.9923
11.6028
12.3074
12.6548
12.2883
11.475
11.2692
1
1
1
1
1
1
1
1
1
1
1
1
1
1
1
1.86535
8.45981
10.7399
10.9171
10.9263
10.7808
10.8877
11.1572
11.7715
11.9628
11.9556
11.7438
11.4096
11.5501
12.0657
1
1
1
1
1
1
1
1
1
1
1
1
1
1
1
1.82474
8.51511
10.8502
10.8862
10.728
10.4714
10.5819
11.4516
12.1183
12.1774
11.6413
10.8919
10.847
11.6946
12.7555
1
1
1
1
1
1
1
1
1
1
1
1
1
1
1
1.73921
8.43499
10.765
10.5692
10.4837
10.5772
11.1276
11.6655
11.8357
11.4916
10.8541
10.8268
11.0421
11.9803
12.0949
1
1
1
1
1
1
1
1
1
1
1
1
1
1
1
1.62942
8.13605
10.5382
10.3184
10.397
11.096
11.6411
11.5136
11.1102
10.7442
10.9367
11.6697
12.2486
11.8537
11.2761
1
1
1
1
1
1
1
1
1
1
1
1
1
1
1
1.50029
7.8104
10.2925
10.2537
10.7059
11.3552
11.5996
11.4465
10.566
10.3
10.7839
12.3544
12.9047
11.5915
10.6387
1
1
1
1
1
1
1
1
1
1
1
1
1
1
1
1.36974
7.52922
10.198
10.6189
11.2281
11.2249
11.0919
10.6359
10.7356
11.0684
12.0626
12.188
12.0978
11.4679
11.2303
1
1
1
1
1
1
1
1
1
1
1
1
1
1
1
1.26075
7.3708
10.4141
10.9919
11.2621
11.1506
10.4502
10.1588
10.8884
12.2694
12.3365
11.7002
10.4211
11.2294
12.3177
1
1
1
1
1
1
1
1
1
1
1
1
1
1
1
1.15881
7.39711
10.8142
10.8946
11.0394
10.6038
10.2907
10.4014
11.5943
12.2666
12.3701
10.6998
9.94296
10.7979
12.5818
1
1
1
1
1
1
1
1
1
1
1
1
1
1
1
1.05809
7.19911
10.7922
10.6552
10.4093
10.2487
10.4817
11.5447
11.747
11.6669
10.8845
10.504
10.343
10.9749
12.2706
1
1
1
1
1
1
1
1
1
1
1
1
1
1
1
1.00481
6.82353
10.5906
10.3432
9.98367
9.97856
11.0676
11.86
11.7989
10.8028
10.1903
10.4064
11.0946
11.7068
11.6657
1
1
1
1
1
1
1
1
1
1
1
1
1
1
1
1.00066
6.30744
10.1596
10.0413
10.091
10.8675
11.4632
11.5127
11.1676
10.0771
10.2694
11.4556
12.3965
11.8869
10.4443
1
1
1
1
1
1
1
1
1
1
1
1
1
1
1
1.00023
5.9601
9.9795
9.96789
10.8641
11.4012
11.3975
11.2214
10.2657
9.90365
10.5557
12.2554
12.4402
11.4446
9.99446
1
1
1
1
1
1
1
1
1
1
1
1
1
1
1
1.00001
5.71182
9.94347
10.5855
11.0349
11.3512
11.4161
10.2942
9.98955
10.3061
11.7787
12.2943
12.6811
10.751
9.86697
1
1
1
1
1
1
1
1
1
1
1
1
1
1
1
0.999986
5.58493
10.2179
10.7531
10.8562
10.939
10.2222
10.1666
10.4392
11.8554
11.8473
11.5275
10.0879
10.4791
11.3321
1
1
1
1
1
1
1
1
1
1
1
1
1
1
1
0.999989
5.21535
10.2549
10.7155
10.8386
10.1378
9.72558
9.79846
11.4134
12.0829
11.9374
10.0946
8.91808
10.0475
11.8117
1
1
1
1
1
1
1
1
1
1
1
1
1
1
1
0.999997
4.78353
10.0399
10.2027
9.97055
9.9232
9.96772
10.8953
11.4334
11.6677
11.0106
9.13987
8.82027
9.71316
12.0647
1
1
1
1
1
1
1
1
1
1
1
1
1
1
1
1
4.22633
9.67812
9.78391
9.66491
9.79923
10.8614
11.3929
11.2639
10.8324
9.66997
8.86412
8.57775
9.88469
11.9399
1
1
1
1
1
1
1
1
1
1
1
1
1
1
1
1
3.80182
9.27057
9.68504
9.83878
10.7335
11.2275
11.2731
10.964
9.241
9.43487
9.81132
11.0947
10.9331
10.6173
1
1
1
1
1
1
1
1
1
1
1
1
1
1
1
1
3.44219
8.87242
9.92582
10.7281
11.0559
11.1022
11.0336
9.6866
9.2047
9.52274
12.1627
12.0646
10.8971
8.65195
1
1
1
1
1
1
1
1
1
1
1
1
1
1
1
1
3.24372
9.13758
10.5931
10.8801
10.9709
10.8457
9.79957
9.51553
9.35366
11.4202
12.2504
11.9866
10.2681
7.66754
1
1
1
1
1
1
1
1
1
1
1
1
1
1
1
1
2.79982
9.31729
10.5589
10.5947
10.4488
9.71264
9.62743
10.0196
11.4167
11.4538
11.5193
11.6858
8.37571
6.88855
1
1
1
1
1
1
1
1
1
1
1
1
1
1
1
1
1.73435
8.19882
10.1847
10.0024
9.98254
10.1605
10.4039
10.6075
10.5314
10.1111
9.40962
8.89093
8.70172
6.96502
1
1
1
1
1
1
1
1
1
1
1
1
1
1
1
1
1.0328
6.2061
9.86213
10.0265
10.1167
10.1022
10.0321
9.86616
9.68002
9.46357
9.27607
8.8234
7.89573
6.59515
1
1
1
1
1
1
1
1
1
1
1
1
1
1
1
1
0.999962
3.73646
9.29467
9.88501
9.85803
9.77086
9.64397
9.53683
9.41602
9.18835
8.82398
8.22289
7.24658
5.98265
1
1
1
1
1
1
1
1
1
1
1
1
1
1
1
1
0.999998
1.60975
7.87883
9.74624
9.65633
9.564
9.43661
9.28312
9.06475
8.7549
8.32458
7.74609
6.89736
5.89083
1
1
1
1
1
1
1
1
1
1
1
1
1
1
1
1
0.999999
1.02191
5.3477
9.31205
9.38347
9.31879
9.17848
8.96589
8.7049
8.40346
8.02878
7.45891
6.68257
5.85561
1
1
1
1
1
1
1
1
1
1
1
1
1
1
1
1
1
0.999984
2.23422
8.09368
9.20269
9.09379
8.98522
8.77415
8.49476
8.1625
7.76846
7.2602
6.63037
5.92011
1
1
1
1
1
1
1
1
1
1
1
1
1
1
1
1
1
0.999996
1.07936
5.41466
8.8399
8.90222
8.82139
8.60727
8.31043
7.9677
7.56988
7.12004
6.59416
5.99891
1
1
1
1
1
1
1
1
1
1
1
1
1
1
1
1
1
1
1.00028
1.95109
7.55809
8.79733
8.60835
8.43168
8.16249
7.83754
7.46259
7.0425
6.56058
6.04769
1
1
1
1
1
1
1
1
1
1
1
1
1
1
1
1
1
1
1
1.04565
4.60028
8.2923
8.37197
8.20722
7.98581
7.70387
7.36871
6.98545
6.54262
6.09259
1
1
1
1
1
1
1
1
1
1
1
1
1
1
1
1
1
1
1
1.00013
1.55471
6.3911
8.27198
8.07379
7.87128
7.60401
7.29432
6.94103
6.54523
6.14287
1
1
1
1
1
1
1
1
1
1
1
1
1
1
1
1
1
1
1
1
1.01564
2.71119
7.36412
7.98732
7.74615
7.49797
7.21289
6.89407
6.54654
6.18843
1
1
1
1
1
1
1
1
1
1
1
1
1
1
1
1
1
1
1
1
1.00006
1.13693
4.51125
7.66623
7.64604
7.42074
7.15789
6.86386
6.55694
6.2293
1
1
1
1
1
1
1
1
1
1
1
1
1
1
1
1
1
1
1
1
1
1.00132
1.57357
5.54002
7.52343
7.35067
7.11361
6.83996
6.56008
6.25003
1
1
1
1
1
1
1
1
1
1
1
1
1
1
1
1
1
1
1
1
1
1
1.01716
2.13233
6.10965
7.30761
7.0745
6.82183
6.56838
6.27095
1
1
1
1
1
1
1
1
1
1
1
1
1
1
1
1
1
1
1
1
1
1
1.00008
1.06257
2.75805
6.38795
7.08831
6.81408
6.57171
6.2974
1
1
1
1
1
1
1
1
1
1
1
1
1
1
1
1
1
1
1
1
1
1
1
1.00053
1.14971
3.36542
6.43615
6.84458
6.57644
6.31297
1
1
1
1
1
1
1
1
1
1
1
1
1
1
1
1
1
1
1
1
1
1
1
1
1.00204
1.28049
3.81209
6.34933
6.60537
6.35233
1
1
1
1
1
1
1
1
1
1
1
1
1
1
1
1
1
1
1
1
1
1
1
1
1.00001
1.00572
1.4236
4.03747
6.19195
6.42813
1
1
1
1
1
1
1
1
1
1
1
1
1
1
1
1
1
1
1
1
1
1
1
1
1
1.00002
1.01172
1.52968
4.08701
6.12138
1
1
1
1
1
1
1
1
1
1
1
1
1
1
1
1
1
1
1
1
1
1
1
1
1
1
1.00006
1.01801
1.57872
4.31578
1
1
1
1
1
1
1
1
1
1
1
1
1
1
1
1
1
1
1
1
1
1
1
1
1
1
1
1.00012
1.01991
1.78272
1
1
1
1
1
1
1
1
1
1
1
1
1
1
1
1
1
1
1
1
1
1
1
1
1
1
1
1
1.00013
1.03545
1
1
1
1
1
1
1
1
1
1
1
1
1
1
1
1
1
1
1
1
1
1
1
1
1
1
1
1
1
1.00014
1
1
1
1
1
1
1
1
1
1
1
1
1
1
1
1
1
1
1
1
1
1
1
1
1
1
1
1
1
1
1
1
1
1
1
1
1
1
1
1
1
1
1
1
1
1
1
1
1
1
1
1
1
1
1
1
1
1
1
1
1
1
1
1
1
1
1
1
1
1
1
1
1
1
1
1
1
1
1
1
1
1
1
1
1
1
1
1
1
1
1
1
1
1
1
1
1
1
1
1
1
1
1
1
1
1
1
1
1
1
1
1
1
1
1
1
1
1
1
1
1
1
1
1
1
1
1
1
1
1
1
1
1
1
1
1
1
1
1
1
1
1
1
1
1
1
1
1
1
1
1
1
1
1
1
1
1
1
1
1
1
1
1
1
1
1
1
1
1
1
1
1
1
1
1
1
1
1
1
1
1
1
1
1
1
1
1
1
1
1
1
1
1
1
1
1
1
1
1
1
1
1
1
1
1
1
1
1
1
1
1.06204
0.568314
0.853915
1.12251
1.17375
1.20667
1.2406
1.25169
1.25902
1.28811
1.29892
1.29934
1.46892
3.42271
5.2786
5.51736
5.10792
4.71538
4.42263
4.14188
3.87724
3.64188
3.45179
3.28001
3.10182
2.91449
2.72501
2.54398
2.40831
2.21896
2.4204
0.89894
0.938814
1.02671
1.10337
1.17063
1.20465
1.22723
1.25628
1.28933
1.30541
1.31796
1.63396
3.14524
4.8331
5.26097
5.03697
4.73544
4.4474
4.16763
3.89059
3.64567
3.43927
3.25948
3.08555
2.91299
2.74287
2.57087
2.42381
2.21771
3.118
1.26814
0.967054
0.966131
1.06159
1.16889
1.21788
1.22661
1.24882
1.28058
1.29992
1.35315
1.92937
2.77918
4.24503
5.23619
5.0618
4.7269
4.43411
4.17651
3.92356
3.67967
3.44814
3.24105
3.04924
2.87269
2.71882
2.57666
2.44999
2.23329
3.57592
1.80521
1.20325
0.964582
1.00378
1.07436
1.15713
1.21443
1.25407
1.2774
1.29326
1.45749
2.39777
2.65469
3.35678
4.58099
4.99511
4.7172
4.41672
4.16874
3.93317
3.68288
3.4407
3.23554
3.05088
2.87734
2.71712
2.56583
2.44215
2.23665
3.96003
2.30837
1.48677
1.03108
1.0337
1.03617
1.09278
1.19133
1.29372
1.30428
1.32434
1.73679
2.85542
2.77115
2.83034
3.65234
4.6413
4.72485
4.43057
4.15792
3.92626
3.68524
3.43529
3.21715
3.03563
2.87895
2.73526
2.58384
2.44135
2.2226
4.27627
2.75746
1.79852
1.25792
1.12302
1.04251
1.06711
1.15063
1.25841
1.28276
1.37775
2.16978
3.0285
2.9287
2.78424
2.91879
3.93595
4.52632
4.43538
4.17981
3.91472
3.67675
3.43403
3.21006
3.02405
2.8702
2.7321
2.58477
2.44112
2.22052
4.53516
3.10677
2.11419
1.49707
1.22578
1.05963
1.07251
1.12158
1.2136
1.25043
1.53961
2.60998
3.00862
2.91414
2.74667
2.63213
3.07515
4.03904
4.33496
4.16953
3.91162
3.66145
3.42495
3.20346
3.0117
2.85158
2.71103
2.56745
2.43304
2.2231
4.72563
3.40216
2.37206
1.77155
1.3853
1.11177
1.11519
1.11992
1.15653
1.21367
1.85377
2.90016
2.93791
2.85931
2.71152
2.57269
2.56619
3.25466
4.09299
4.12013
3.90995
3.64944
3.41859
3.20349
3.00294
2.82595
2.67768
2.54307
2.42542
2.22735
4.87554
3.65657
2.60904
2.02342
1.54406
1.22002
1.17435
1.11483
1.11734
1.25364
2.22885
2.92011
2.93791
2.81395
2.68508
2.53677
2.43247
2.59219
3.41441
3.94848
3.86643
3.63908
3.41139
3.20477
3.0103
2.82178
2.65211
2.50933
2.40807
2.22688
5.03017
3.84357
2.8425
2.23967
1.69612
1.40291
1.24802
1.10493
1.09874
1.41703
2.5034
2.89636
2.89722
2.77124
2.66226
2.55325
2.41392
2.32878
2.64715
3.4318
3.70157
3.59978
3.38848
3.18456
3.00621
2.82936
2.65225
2.50062
2.39506
2.2167
5.16818
4.01757
3.05239
2.42934
1.86739
1.59076
1.33222
1.14
1.14957
1.76657
2.64912
2.85659
2.81125
2.72217
2.63387
2.54998
2.411
2.23992
2.20428
2.64654
3.28345
3.45138
3.34536
3.16869
2.98007
2.81608
2.65662
2.50932
2.39499
2.20325
5.30432
4.16
3.26239
2.59243
2.04759
1.77002
1.44281
1.21516
1.28703
2.23932
2.72541
2.75264
2.70655
2.64685
2.59187
2.50183
2.36104
2.18602
2.0481
2.09454
2.5818
3.15421
3.27185
3.15398
2.97372
2.79364
2.63681
2.50066
2.38822
2.18992
5.41763
4.27242
3.45402
2.74154
2.24481
1.92846
1.55423
1.29473
1.60725
2.73147
2.77707
2.67828
2.58245
2.53346
2.49363
2.40961
2.26345
2.09807
1.99074
1.92708
2.02422
2.5542
3.07194
3.09898
2.98747
2.79839
2.62058
2.48719
2.37791
2.16883
5.51282
4.3809
3.62632
2.88181
2.44866
2.05768
1.65629
1.43693
2.20064
3.08381
2.93383
2.68947
2.53716
2.39903
2.32514
2.24734
2.12543
1.99976
1.93926
1.88778
1.84114
2.00229
2.54895
2.94056
2.91953
2.8141
2.6354
2.4594
2.31177
2.12582
5.5808
4.49405
3.77354
3.0393
2.62999
2.14076
1.7687
1.74465
2.913
3.2666
3.05589
2.74735
2.51557
2.3475
2.2054
2.09687
2.00558
1.92724
1.89593
1.86975
1.79928
1.77307
2.01668
2.523
2.76095
2.7359
2.63017
2.44204
2.28056
2.08963
5.62541
4.61801
3.89098
3.206
2.77547
2.19426
1.88047
2.34402
3.61217
3.42733
3.126
2.80839
2.52848
2.31149
2.14809
2.03483
1.9302
1.86514
1.87155
1.86524
1.78454
1.67682
1.68098
1.96733
2.40285
2.56535
2.54419
2.42459
2.26953
2.07692
5.67127
4.76235
3.99466
3.37301
2.86199
2.27169
2.05651
3.23815
4.04187
3.67285
3.24249
2.89271
2.58359
2.32785
2.1454
2.00116
1.8906
1.81193
1.80361
1.79383
1.72006
1.6141
1.53449
1.56703
1.84509
2.2415
2.39034
2.35914
2.25234
2.08241
5.74218
4.91475
4.08981
3.53638
2.89978
2.36782
2.55288
4.21753
4.23476
3.82632
3.34608
2.95813
2.6368
2.37584
2.17753
2.01798
1.87393
1.77473
1.72562
1.68167
1.60149
1.53023
1.46847
1.41705
1.45863
1.74545
2.12186
2.23653
2.21191
2.08338
5.88374
5.08084
4.21458
3.64886
2.91825
2.51631
3.52534
4.96689
4.45548
3.93167
3.45659
3.05761
2.72429
2.44891
2.22184
2.03556
1.87426
1.75077
1.65171
1.55057
1.46024
1.42096
1.40596
1.37764
1.33492
1.38587
1.69293
2.0395
2.1441
2.0755
5.8958
5.25464
4.37161
3.70151
2.9952
2.83324
4.804
5.32991
4.72384
4.08224
3.57622
3.15823
2.81049
2.52254
2.27984
2.06319
1.87784
1.73571
1.61496
1.49379
1.38966
1.34696
1.34516
1.34248
1.29982
1.27096
1.3484
1.65629
2.01685
1.99339
5.62452
5.3518
4.48442
3.7217
3.11597
3.72792
5.91234
5.515
4.85052
4.19733
3.67489
3.24572
2.88517
2.58436
2.32848
2.10013
1.90149
1.73553
1.59422
1.46396
1.36105
1.30564
1.2949
1.28942
1.27335
1.23848
1.22079
1.31264
1.63766
1.86297
4.9051
5.10131
4.56205
3.72518
3.28287
5.24926
6.61948
5.75034
4.97212
4.32568
3.79117
3.3477
2.97117
2.65142
2.37515
2.12616
1.91064
1.73362
1.58582
1.45118
1.3432
1.27774
1.25426
1.23269
1.21324
1.1853
1.15433
1.1342
1.23391
1.59504
3.39171
4.94504
4.6325
3.87065
3.86912
6.83498
6.88109
5.94419
5.09829
4.43577
3.88476
3.42065
3.02758
2.69393
2.40515
2.14898
1.92715
1.73898
1.57774
1.44134
1.34103
1.27395
1.22169
1.17094
1.13169
1.11726
1.08641
1.03512
1.02207
1.24487
2.53646
4.86874
4.69278
4.07478
5.25319
8.01304
7.03353
6.05708
5.19899
4.51342
3.95389
3.48619
3.09079
2.74863
2.44368
2.17537
1.95589
1.77129
1.6016
1.45259
1.34726
1.27358
1.19776
1.12433
1.05717
1.04207
1.01929
0.973534
0.95347
1.00864
1.60362
4.48443
4.76157
4.32757
7.2139
8.65542
7.2285
6.15779
5.28738
4.58193
4.00921
3.53754
3.13983
2.78983
2.47305
2.19256
1.962
1.77537
1.61174
1.47444
1.36351
1.26386
1.17491
1.08739
1.0162
0.989315
0.957996
0.922106
0.91192
0.917517
1.11301
3.86126
4.51788
5.08572
9.08895
8.90139
7.41118
6.24516
5.3543
4.63987
4.05535
3.57214
3.16594
2.81499
2.50377
2.23204
1.99941
1.80472
1.63326
1.49398
1.37774
1.26609
1.166
1.06763
0.995359
0.954811
0.916712
0.88037
0.880059
0.879067
1.00139
3.04937
4.09811
6.75622
10.3375
9.02573
7.497
6.32096
5.43074
4.71161
4.1149
3.61789
3.19859
2.83779
2.52363
2.25278
2.0207
1.82919
1.65687
1.50982
1.38493
1.27191
1.15908
1.0526
0.983821
0.934939
0.88903
0.852091
0.855187
0.847493
0.999947
2.0912
3.6751
9.00733
11.2941
9.1487
7.53659
6.35265
5.46841
4.75275
4.15108
3.64381
3.21423
2.84646
2.52953
2.25981
2.02837
1.82939
1.66309
1.52101
1.39473
1.27503
1.1582
1.05279
0.98415
0.927376
0.875468
0.840061
0.825479
0.803772
0.99998
1.37184
3.38331
10.8883
11.5894
9.16027
7.50541
6.37369
5.51134
4.80025
4.19409
3.67411
3.23076
2.85713
2.54323
2.27595
2.05154
1.84444
1.699
1.56709
1.43407
1.30421
1.18309
1.08608
1.01409
0.945258
0.883451
0.83986
0.809839
0.777453
0.999989
1.06795
4.41083
13.5503
12.2092
9.21586
7.43187
6.34064
5.51217
4.81601
4.21562
3.69374
3.23927
2.85064
2.52636
2.26592
2.04687
1.85825
1.67865
1.52549
1.38834
1.25995
1.13958
1.0539
0.986218
0.918271
0.849734
0.818526
0.784918
0.750994
)
;

boundaryField
{
    inlet
    {
        type            fixedValue;
        value           uniform 1;
    }
    outlet
    {
        type            zeroGradient;
    }
    top
    {
        type            symmetryPlane;
    }
    bottom
    {
        type            symmetryPlane;
    }
    step
    {
        type            zeroGradient;
    }
    defaultFaces
    {
        type            empty;
    }
}


// ************************************************************************* //
