/*--------------------------------*- C++ -*----------------------------------*\
  =========                 |
  \\      /  F ield         | OpenFOAM: The Open Source CFD Toolbox
   \\    /   O peration     | Website:  https://openfoam.org
    \\  /    A nd           | Version:  6.0
     \\/     M anipulation  |
\*---------------------------------------------------------------------------*/
FoamFile
{
    version     2.0;
    format      ascii;
    class       volScalarField;
    location    "2.000067";
    object      rho;
}
// * * * * * * * * * * * * * * * * * * * * * * * * * * * * * * * * * * * * * //

dimensions      [1 -3 0 0 0 0 0];

internalField   nonuniform List<scalar> 
2700
(
1.39997
1.39997
1.39997
1.39997
1.39997
1.39997
1.39997
1.39997
1.39997
1.39997
1.39997
1.39997
1.39997
1.39997
1.39997
2.12354
4.96541
5.46342
5.44177
5.46923
5.55434
5.73327
5.88011
5.86962
5.7318
5.59106
5.64701
5.80697
5.96841
6.02801
1.39997
1.39997
1.39997
1.39997
1.39997
1.39997
1.39997
1.39997
1.39997
1.39997
1.39997
1.39997
1.39997
1.39997
1.39997
2.11089
4.91883
5.45681
5.51382
5.60283
5.66409
5.6745
5.68934
5.78708
5.88802
5.9305
5.92146
5.8727
5.8227
5.87322
1.39997
1.39997
1.39997
1.39997
1.39997
1.39997
1.39997
1.39997
1.39997
1.39997
1.39997
1.39997
1.39997
1.39997
1.39997
2.10181
4.8925
5.38514
5.52797
5.66769
5.72201
5.66449
5.6149
5.63328
5.83571
6.14917
6.1666
5.99582
5.75495
5.60918
1.39997
1.39997
1.39997
1.39997
1.39997
1.39997
1.39997
1.39997
1.39997
1.39997
1.39997
1.39997
1.39997
1.39997
1.39997
2.08943
4.88077
5.42754
5.54028
5.61304
5.65472
5.6916
5.67778
5.74552
5.92023
6.00719
5.97833
5.89649
5.76
5.79366
1.39997
1.39997
1.39997
1.39997
1.39997
1.39997
1.39997
1.39997
1.39997
1.39997
1.39997
1.39997
1.39997
1.39997
1.39997
2.07237
4.89424
5.49343
5.48594
5.51336
5.55507
5.69091
5.86479
5.90748
5.81874
5.68615
5.70866
5.85764
5.91713
6.02571
1.39997
1.39997
1.39997
1.39997
1.39997
1.39997
1.39997
1.39997
1.39997
1.39997
1.39997
1.39997
1.39997
1.39997
1.39997
2.05623
4.91568
5.50325
5.44582
5.45331
5.53851
5.69812
5.88633
5.96087
5.78098
5.57122
5.54392
5.64946
6.06248
6.24142
1.39997
1.39997
1.39997
1.39997
1.39997
1.39997
1.39997
1.39997
1.39997
1.39997
1.39997
1.39997
1.39997
1.39997
1.39997
2.01507
4.89055
5.43833
5.43613
5.51097
5.66363
5.75609
5.75828
5.75808
5.75212
5.71625
5.78271
5.94262
5.9899
5.96815
1.39997
1.39997
1.39997
1.39997
1.39997
1.39997
1.39997
1.39997
1.39997
1.39997
1.39997
1.39997
1.39997
1.39997
1.39997
1.96891
4.8194
5.34363
5.45516
5.65582
5.74364
5.74416
5.63913
5.55008
5.71875
5.99713
6.09202
6.04366
5.81758
5.66326
1.39997
1.39997
1.39997
1.39997
1.39997
1.39997
1.39997
1.39997
1.39997
1.39997
1.39997
1.39997
1.39997
1.39997
1.39997
1.91896
4.75754
5.36615
5.54514
5.66244
5.71132
5.64331
5.58856
5.59777
5.81604
6.06168
6.17325
6.03086
5.72941
5.65178
1.39997
1.39997
1.39997
1.39997
1.39997
1.39997
1.39997
1.39997
1.39997
1.39997
1.39997
1.39997
1.39997
1.39997
1.39997
1.87831
4.71657
5.52178
5.58031
5.57845
5.52025
5.55857
5.65726
5.87794
5.94528
5.93924
5.85265
5.72051
5.75705
5.93459
1.39997
1.39997
1.39997
1.39997
1.39997
1.39997
1.39997
1.39997
1.39997
1.39997
1.39997
1.39997
1.39997
1.39997
1.39997
1.85104
4.73672
5.55881
5.56765
5.50317
5.40584
5.4466
5.76305
6.00153
6.02274
5.82853
5.5475
5.5199
5.81087
6.17846
1.39997
1.39997
1.39997
1.39997
1.39997
1.39997
1.39997
1.39997
1.39997
1.39997
1.39997
1.39997
1.39997
1.39997
1.39997
1.80664
4.70637
5.5244
5.44734
5.41178
5.44456
5.64497
5.84025
5.90229
5.77873
5.54471
5.52513
5.59257
5.91299
5.94857
1.39997
1.39997
1.39997
1.39997
1.39997
1.39997
1.39997
1.39997
1.39997
1.39997
1.39997
1.39997
1.39997
1.39997
1.39997
1.74723
4.59309
5.44043
5.35381
5.38002
5.63475
5.8317
5.78693
5.6425
5.50938
5.57723
5.83149
6.02319
5.87016
5.65939
1.39997
1.39997
1.39997
1.39997
1.39997
1.39997
1.39997
1.39997
1.39997
1.39997
1.39997
1.39997
1.39997
1.39997
1.39997
1.67902
4.4805
5.35451
5.33238
5.49734
5.73153
5.81886
5.76464
5.44439
5.34748
5.52735
6.07645
6.25526
5.77916
5.43201
1.39997
1.39997
1.39997
1.39997
1.39997
1.39997
1.39997
1.39997
1.39997
1.39997
1.39997
1.39997
1.39997
1.39997
1.39997
1.61471
4.39771
5.33043
5.47762
5.69326
5.68882
5.6398
5.47164
5.50831
5.6319
5.9845
6.02002
5.97714
5.73697
5.64713
1.39997
1.39997
1.39997
1.39997
1.39997
1.39997
1.39997
1.39997
1.39997
1.39997
1.39997
1.39997
1.39997
1.39997
1.39997
1.56133
4.35856
5.42845
5.62758
5.71392
5.66895
5.40697
5.2983
5.56888
6.06433
6.08463
5.85224
5.37421
5.65265
6.03249
1.39997
1.39997
1.39997
1.39997
1.39997
1.39997
1.39997
1.39997
1.39997
1.39997
1.39997
1.39997
1.39997
1.39997
1.39997
1.498
4.38278
5.58765
5.60316
5.64745
5.47474
5.3521
5.3937
5.82677
6.06743
6.10366
5.49062
5.20037
5.49891
6.12906
1.39997
1.39997
1.39997
1.39997
1.39997
1.39997
1.39997
1.39997
1.39997
1.39997
1.39997
1.39997
1.39997
1.39997
1.39997
1.43603
4.30573
5.58404
5.52639
5.42053
5.35191
5.43302
5.81589
5.88611
5.86297
5.57135
5.42047
5.35342
5.567
6.02337
1.39997
1.39997
1.39997
1.39997
1.39997
1.39997
1.39997
1.39997
1.39997
1.39997
1.39997
1.39997
1.39997
1.39997
1.39997
1.404
4.14385
5.50475
5.40691
5.26537
5.25714
5.65485
5.93642
5.91134
5.54809
5.31618
5.38926
5.63219
5.83027
5.81121
1.39997
1.39997
1.39997
1.39997
1.39997
1.39997
1.39997
1.39997
1.39997
1.39997
1.39997
1.39997
1.39997
1.39997
1.39997
1.40064
3.91241
5.32659
5.28641
5.30677
5.59176
5.80139
5.8151
5.68787
5.28146
5.34692
5.77091
6.09301
5.89555
5.37159
1.39997
1.39997
1.39997
1.39997
1.39997
1.39997
1.39997
1.39997
1.39997
1.39997
1.39997
1.39997
1.39997
1.39997
1.39997
1.40021
3.75817
5.24592
5.25404
5.59068
5.78592
5.78167
5.71586
5.35763
5.22214
5.46424
6.06075
6.11257
5.74218
5.20995
1.39997
1.39997
1.39997
1.39997
1.39997
1.39997
1.39997
1.39997
1.39997
1.39997
1.39997
1.39997
1.39997
1.39997
1.39997
1.39998
3.64992
5.22426
5.47536
5.64883
5.76604
5.79133
5.37353
5.25722
5.37983
5.90708
6.08286
6.21185
5.49423
5.16952
1.39997
1.39997
1.39997
1.39997
1.39997
1.39997
1.39997
1.39997
1.39997
1.39997
1.39997
1.39997
1.39997
1.39997
1.39997
1.39995
3.59739
5.31708
5.52933
5.57384
5.61164
5.34793
5.32581
5.42717
5.94343
5.9351
5.81869
5.27036
5.39712
5.70487
1.39997
1.39997
1.39997
1.39997
1.39997
1.39997
1.39997
1.39997
1.39997
1.39997
1.39997
1.39997
1.39997
1.39997
1.39997
1.39996
3.44606
5.32963
5.50479
5.55943
5.30866
5.15896
5.19047
5.78398
6.02747
5.9712
5.28921
4.83163
5.2422
5.88074
1.39997
1.39997
1.39997
1.39997
1.39997
1.39997
1.39997
1.39997
1.39997
1.39997
1.39997
1.39997
1.39997
1.39997
1.39997
1.39997
3.26469
5.25628
5.31427
5.23475
5.22401
5.24869
5.5943
5.79197
5.87888
5.6383
4.93145
4.80006
5.12256
5.97558
1.39997
1.39997
1.39997
1.39997
1.39997
1.39997
1.39997
1.39997
1.39997
1.39997
1.39997
1.39997
1.39997
1.39997
1.39997
1.39997
3.02512
5.13798
5.16052
5.11699
5.17511
5.57193
5.77055
5.72913
5.57562
5.13784
4.82854
4.72691
5.19156
5.94814
1.39997
1.39997
1.39997
1.39997
1.39997
1.39997
1.39997
1.39997
1.39997
1.39997
1.39997
1.39997
1.39997
1.39997
1.39997
1.39997
2.83724
5.00052
5.1252
5.18388
5.51786
5.70342
5.72501
5.62
4.97717
5.04887
5.19858
5.64624
5.57747
5.47968
1.39997
1.39997
1.39997
1.39997
1.39997
1.39997
1.39997
1.39997
1.39997
1.39997
1.39997
1.39997
1.39997
1.39997
1.39997
1.39997
2.67454
4.85887
5.22453
5.51716
5.63753
5.65568
5.63538
5.13966
4.96351
5.09177
6.04964
5.99889
5.56883
4.74212
1.39997
1.39997
1.39997
1.39997
1.39997
1.39997
1.39997
1.39997
1.39997
1.39997
1.39997
1.39997
1.39997
1.39997
1.39997
1.39997
2.578
4.97383
5.49179
5.5868
5.61541
5.56598
5.17349
5.06996
5.02299
5.78356
6.08301
5.97168
5.35058
4.36189
1.39997
1.39997
1.39997
1.39997
1.39997
1.39997
1.39997
1.39997
1.39997
1.39997
1.39997
1.39997
1.39997
1.39997
1.39997
1.39997
2.37133
5.08383
5.50387
5.50919
5.43691
5.1499
5.10904
5.2508
5.76559
5.78403
5.80648
5.86644
4.5899
3.98663
1.39997
1.39997
1.39997
1.39997
1.39997
1.39997
1.39997
1.39997
1.39997
1.39997
1.39997
1.39997
1.39997
1.39997
1.39997
1.39997
1.85148
4.75217
5.41263
5.30754
5.27574
5.32552
5.40359
5.46864
5.42997
5.26524
4.99234
4.78609
4.68624
3.86671
1.39997
1.39997
1.39997
1.39997
1.39997
1.39997
1.39997
1.39997
1.39997
1.39997
1.39997
1.39997
1.39997
1.39997
1.39997
1.39997
1.42597
3.92708
5.30588
5.33443
5.34938
5.32762
5.2842
5.20584
5.12102
5.02657
4.94212
4.75889
4.3772
3.73884
1.39997
1.39997
1.39997
1.39997
1.39997
1.39997
1.39997
1.39997
1.39997
1.39997
1.39997
1.39997
1.39997
1.39997
1.39997
1.39997
1.39992
2.84298
5.12223
5.31289
5.28392
5.23347
5.16697
5.10646
5.04005
4.93301
4.77654
4.52897
4.12577
3.56362
1.39997
1.39997
1.39997
1.39997
1.39997
1.39997
1.39997
1.39997
1.39997
1.39997
1.39997
1.39997
1.39997
1.39997
1.39997
1.39997
1.39997
1.78992
4.65808
5.29587
5.24271
5.18815
5.12031
5.03927
4.93187
4.78931
4.60124
4.35575
3.9964
3.55427
1.39997
1.39997
1.39997
1.39997
1.39997
1.39997
1.39997
1.39997
1.39997
1.39997
1.39997
1.39997
1.39997
1.39997
1.39997
1.39997
1.39997
1.41702
3.57439
5.14799
5.15466
5.12264
5.05287
4.94959
4.82445
4.68204
4.51098
4.26191
3.92628
3.55914
1.39997
1.39997
1.39997
1.39997
1.39997
1.39997
1.39997
1.39997
1.39997
1.39997
1.39997
1.39997
1.39997
1.39997
1.39997
1.39997
1.39997
1.39994
2.14555
4.77824
5.1199
5.06571
5.00742
4.9053
4.77401
4.61913
4.43751
4.20867
3.92969
3.60783
1.39997
1.39997
1.39997
1.39997
1.39997
1.39997
1.39997
1.39997
1.39997
1.39997
1.39997
1.39997
1.39997
1.39997
1.39997
1.39997
1.39997
1.39996
1.46206
3.64124
5.01622
5.00512
4.96629
4.86764
4.73081
4.57201
4.3879
4.18082
3.94172
3.66873
1.39997
1.39997
1.39997
1.39997
1.39997
1.39997
1.39997
1.39997
1.39997
1.39997
1.39997
1.39997
1.39997
1.39997
1.39997
1.39997
1.39997
1.39997
1.40019
2.00526
4.64108
5.0126
4.9201
4.82889
4.69914
4.54648
4.37225
4.17827
3.95643
3.71784
1.39997
1.39997
1.39997
1.39997
1.39997
1.39997
1.39997
1.39997
1.39997
1.39997
1.39997
1.39997
1.39997
1.39997
1.39997
1.39997
1.39997
1.39997
1.39997
1.43639
3.32891
4.87132
4.84879
4.76659
4.65649
4.51996
4.36137
4.18271
3.97711
3.7651
1.39997
1.39997
1.39997
1.39997
1.39997
1.39997
1.39997
1.39997
1.39997
1.39997
1.39997
1.39997
1.39997
1.39997
1.39997
1.39997
1.39997
1.39997
1.39997
1.40008
1.77853
4.17177
4.86077
4.7605
4.65313
4.51802
4.36608
4.19627
4.00831
3.81575
1.39997
1.39997
1.39997
1.39997
1.39997
1.39997
1.39997
1.39997
1.39997
1.39997
1.39997
1.39997
1.39997
1.39997
1.39997
1.39997
1.39997
1.39997
1.39997
1.39997
1.41277
2.45056
4.63172
4.76876
4.65021
4.52061
4.37442
4.21466
4.04381
3.86813
1.39997
1.39997
1.39997
1.39997
1.39997
1.39997
1.39997
1.39997
1.39997
1.39997
1.39997
1.39997
1.39997
1.39997
1.39997
1.39997
1.39997
1.39997
1.39997
1.39997
1.40002
1.50664
3.35766
4.70287
4.6534
4.53375
4.39595
4.24439
4.08837
3.92344
1.39997
1.39997
1.39997
1.39997
1.39997
1.39997
1.39997
1.39997
1.39997
1.39997
1.39997
1.39997
1.39997
1.39997
1.39997
1.39997
1.39997
1.39997
1.39997
1.39997
1.39997
1.40112
1.79925
3.86099
4.65125
4.55695
4.4282
4.28221
4.13469
3.97415
1.39997
1.39997
1.39997
1.39997
1.39997
1.39997
1.39997
1.39997
1.39997
1.39997
1.39997
1.39997
1.39997
1.39997
1.39997
1.39997
1.39997
1.39997
1.39997
1.39997
1.39997
1.39997
1.4143
2.14771
4.15224
4.59152
4.46898
4.32998
4.19022
4.03074
1.39997
1.39997
1.39997
1.39997
1.39997
1.39997
1.39997
1.39997
1.39997
1.39997
1.39997
1.39997
1.39997
1.39997
1.39997
1.39997
1.39997
1.39997
1.39997
1.39997
1.39997
1.39997
1.40005
1.45112
2.51537
4.30261
4.52384
4.38279
4.24752
4.09572
1.39997
1.39997
1.39997
1.39997
1.39997
1.39997
1.39997
1.39997
1.39997
1.39997
1.39997
1.39997
1.39997
1.39997
1.39997
1.39997
1.39997
1.39997
1.39997
1.39997
1.39997
1.39997
1.39997
1.40046
1.51825
2.85623
4.33518
4.43664
4.29913
4.15499
1.39997
1.39997
1.39997
1.39997
1.39997
1.39997
1.39997
1.39997
1.39997
1.39997
1.39997
1.39997
1.39997
1.39997
1.39997
1.39997
1.39997
1.39997
1.39997
1.39997
1.39997
1.39997
1.39997
1.39997
1.40181
1.61342
3.1015
4.30702
4.3475
4.21742
1.39997
1.39997
1.39997
1.39997
1.39997
1.39997
1.39997
1.39997
1.39997
1.39997
1.39997
1.39997
1.39997
1.39997
1.39997
1.39997
1.39997
1.39997
1.39997
1.39997
1.39997
1.39997
1.39997
1.39997
1.39997
1.40502
1.71351
3.23356
4.25221
4.28991
1.39997
1.39997
1.39997
1.39997
1.39997
1.39997
1.39997
1.39997
1.39997
1.39997
1.39997
1.39997
1.39997
1.39997
1.39997
1.39997
1.39997
1.39997
1.39997
1.39997
1.39997
1.39997
1.39997
1.39997
1.39997
1.39999
1.41018
1.78693
3.28931
4.20737
1.39997
1.39997
1.39997
1.39997
1.39997
1.39997
1.39997
1.39997
1.39997
1.39997
1.39997
1.39997
1.39997
1.39997
1.39997
1.39997
1.39997
1.39997
1.39997
1.39997
1.39997
1.39997
1.39997
1.39997
1.39997
1.39997
1.40003
1.41561
1.82845
3.36069
1.39997
1.39997
1.39997
1.39997
1.39997
1.39997
1.39997
1.39997
1.39997
1.39997
1.39997
1.39997
1.39997
1.39997
1.39997
1.39997
1.39997
1.39997
1.39997
1.39997
1.39997
1.39997
1.39997
1.39997
1.39997
1.39997
1.39997
1.40008
1.41722
1.94032
1.39997
1.39997
1.39997
1.39997
1.39997
1.39997
1.39997
1.39997
1.39997
1.39997
1.39997
1.39997
1.39997
1.39997
1.39997
1.39997
1.39997
1.39997
1.39997
1.39997
1.39997
1.39997
1.39997
1.39997
1.39997
1.39997
1.39997
1.39997
1.40009
1.42953
1.39997
1.39997
1.39997
1.39997
1.39997
1.39997
1.39997
1.39997
1.39997
1.39997
1.39997
1.39997
1.39997
1.39997
1.39997
1.39997
1.39997
1.39997
1.39997
1.39997
1.39997
1.39997
1.39997
1.39997
1.39997
1.39997
1.39997
1.39997
1.39997
1.4001
1.39997
1.39997
1.39997
1.39997
1.39997
1.39997
1.39997
1.39997
1.39997
1.39997
1.39997
1.39997
1.39997
1.39997
1.39997
1.39997
1.39997
1.39997
1.39997
1.39997
1.39997
1.39997
1.39997
1.39997
1.39997
1.39997
1.39997
1.39997
1.39997
1.39997
1.39997
1.39997
1.39997
1.39997
1.39997
1.39997
1.39997
1.39997
1.39997
1.39997
1.39997
1.39997
1.39997
1.39997
1.39997
1.39997
1.39997
1.39997
1.39997
1.39997
1.39997
1.39997
1.39997
1.39997
1.39997
1.39997
1.39997
1.39997
1.39997
1.39997
1.39997
1.39997
1.39997
1.39997
1.39997
1.39997
1.39997
1.39997
1.39997
1.39997
1.39997
1.39997
1.39997
1.39997
1.39997
1.39997
1.39997
1.39997
1.39997
1.39997
1.39997
1.39997
1.39997
1.39997
1.39997
1.39997
1.39997
1.39997
1.39997
1.39997
1.39997
1.39997
1.39997
1.39997
1.39997
1.39997
1.39997
1.39997
1.39997
1.39997
1.39997
1.39997
1.39997
1.39997
1.39997
1.39997
1.39997
1.39997
1.39997
1.39997
1.39997
1.39997
1.39997
1.39997
1.39997
1.39997
1.39997
1.39997
1.39997
1.39997
1.39997
1.39997
1.39997
1.39997
1.39997
1.39997
1.39997
1.39997
1.39997
1.39997
1.39997
1.39997
1.39997
1.39997
1.39997
1.39997
1.39997
1.39997
1.39997
1.39997
1.39997
1.39997
1.39997
1.39997
1.39997
1.39997
1.39997
1.39997
1.39997
1.39997
1.39997
1.39997
1.39997
1.39997
1.39997
1.39997
1.39997
1.39997
1.39997
1.39997
1.39997
1.39997
1.39997
1.39997
1.39997
1.39997
1.39997
1.39997
1.39997
1.39997
1.39997
1.39997
1.39997
1.39997
1.39997
1.39997
1.39997
1.39997
1.39997
1.39997
1.39997
1.39997
1.39997
1.39997
1.39997
1.39997
1.39997
1.39997
1.39997
1.39997
1.39997
1.39997
1.39997
1.39997
1.39997
1.39997
1.39997
1.39997
1.39997
1.39997
1.39997
1.39997
1.39997
1.39997
1.39997
1.39997
1.39997
1.39997
1.39997
1.39997
0.879907
0.492442
0.665243
0.82557
0.870369
0.899058
0.927032
0.944303
0.965305
0.993498
1.00053
0.997009
1.0837
1.97721
2.73214
2.87212
2.722
2.57351
2.47082
2.37124
2.26918
2.17067
2.0883
2.01411
1.93746
1.85582
1.77106
1.68745
1.62295
1.5284
1.68406
0.738769
0.766068
0.817858
0.865018
0.907169
0.929662
0.950497
0.981145
1.0119
1.02182
1.02601
1.19175
1.93499
2.65786
2.8548
2.75662
2.63006
2.5197
2.41393
2.30147
2.19472
2.10233
2.0224
1.9455
1.86824
1.79047
1.70996
1.63921
1.53503
2.15755
1.04859
0.850607
0.852587
0.911307
0.971843
0.993865
1.00147
1.02418
1.05306
1.0652
1.0955
1.40021
1.88632
2.59383
3.01499
2.90213
2.74175
2.61197
2.50156
2.38821
2.27271
2.16186
2.06378
1.9731
1.88825
1.81296
1.74259
1.67909
1.5661
2.45347
1.45331
1.06426
0.906434
0.934541
0.977532
1.0242
1.05696
1.08905
1.10996
1.12044
1.218
1.72052
1.90746
2.29608
2.87734
3.00493
2.86529
2.71931
2.60229
2.48821
2.36199
2.23821
2.13381
2.04001
1.9505
1.86636
1.78608
1.72042
1.60835
2.67932
1.79547
1.29569
0.989592
0.989457
0.990412
1.02787
1.09194
1.16135
1.17208
1.18638
1.43719
2.04146
2.01611
2.06259
2.48301
2.93475
2.94399
2.80686
2.67651
2.56311
2.43996
2.30921
2.19455
2.09853
2.01363
1.93398
1.85007
1.77212
1.64926
2.85244
2.0727
1.51909
1.17325
1.07473
1.0166
1.03457
1.09272
1.16709
1.18582
1.24951
1.7136
2.16275
2.11579
2.0497
2.12196
2.62694
2.89661
2.8526
2.73068
2.60367
2.48459
2.35858
2.24085
2.14199
2.05801
1.98063
1.8976
1.81757
1.69207
2.99385
2.27692
1.7238
1.34461
1.16174
1.04147
1.05009
1.08612
1.15306
1.18024
1.36925
1.95432
2.16621
2.11865
2.0335
1.97789
2.21228
2.6895
2.8302
2.75206
2.62915
2.50556
2.38458
2.26935
2.16829
2.08177
2.00368
1.92265
1.84701
1.72696
3.10193
2.44313
1.88221
1.52455
1.27616
1.08595
1.08814
1.09395
1.12161
1.16134
1.55752
2.1039
2.13385
2.09589
2.02173
1.95313
1.96364
2.32292
2.73703
2.75206
2.65021
2.52117
2.40371
2.29248
2.18737
2.09245
2.01052
1.93409
1.86723
1.75344
3.19101
2.584
2.02232
1.68181
1.38298
1.16662
1.13719
1.09876
1.09912
1.19156
1.75793
2.11434
2.13419
2.07913
2.01852
1.94691
1.90602
2.00114
2.43378
2.69854
2.65607
2.5404
2.42279
2.31519
2.21304
2.11155
2.01726
1.93563
1.87728
1.77196
3.28413
2.69083
2.15803
1.81377
1.48302
1.29531
1.19313
1.09548
1.08805
1.29997
1.90319
2.1161
2.12593
2.07024
2.02198
1.97382
1.9104
1.87892
2.06182
2.47557
2.6101
2.55342
2.43958
2.33048
2.23528
2.13847
2.03838
1.95056
1.88873
1.78319
3.37489
2.79338
2.28031
1.92858
1.59392
1.42181
1.25342
1.12037
1.12645
1.50708
1.98574
2.11673
2.09811
2.06112
2.02536
1.99247
1.92942
1.84423
1.83614
2.08865
2.43545
2.51383
2.45176
2.35379
2.24957
2.15727
2.06496
1.97758
1.90923
1.79348
3.46774
2.88361
2.40406
2.02883
1.7099
1.53996
1.3308
1.17468
1.22276
1.76589
2.03901
2.07183
2.05724
2.03808
2.0222
1.98724
1.92272
1.83267
1.75858
1.79345
2.08019
2.39713
2.447
2.37895
2.277
2.17315
2.08012
1.99734
1.92849
1.8062
3.55351
2.96251
2.52056
2.12293
1.8355
1.64396
1.40882
1.23245
1.42751
2.04027
2.0851
2.04377
2.00713
1.99546
1.98886
1.95614
1.88519
1.79768
1.73847
1.70776
1.7712
2.08942
2.37775
2.37706
2.31386
2.20481
2.09806
2.01484
1.94639
1.8156
3.63596
3.04149
2.62941
2.2146
1.96479
1.73019
1.48177
1.3322
1.76779
2.24803
2.18094
2.06504
2.00143
1.94141
1.91436
1.88145
1.81957
1.75307
1.72114
1.69348
1.67155
1.77602
2.10616
2.31935
2.30344
2.24007
2.13256
2.02328
1.9309
1.81149
3.71105
3.12741
2.72929
2.31863
2.08138
1.78998
1.56226
1.53476
2.15435
2.36357
2.26555
2.11849
2.00924
1.93158
1.86296
1.80971
1.76142
1.72129
1.70675
1.69288
1.65304
1.64316
1.7995
2.103
2.23592
2.21871
2.15326
2.03631
1.93399
1.80934
3.77858
3.2242
2.81768
2.43069
2.18073
1.83571
1.63776
1.89211
2.54424
2.46507
2.32792
2.17661
2.03752
1.92722
1.84365
1.7861
1.72746
1.69309
1.70227
1.70166
1.65422
1.58767
1.59459
1.7789
2.04366
2.13996
2.12467
2.04646
1.94594
1.81917
3.84546
3.33515
2.90187
2.54551
2.24999
1.89742
1.75538
2.36142
2.78819
2.6226
2.41942
2.24886
2.09116
1.95445
1.85528
1.7751
1.71354
1.66796
1.66799
1.6662
1.62193
1.55482
1.50495
1.52835
1.7113
1.96353
2.0531
2.02876
1.95467
1.84044
3.9224
3.45217
2.98435
2.66165
2.29086
1.96695
2.06361
2.87276
2.91141
2.7333
2.50463
2.31026
2.14193
1.99996
1.88894
1.7974
1.71235
1.65374
1.62633
1.60163
1.55087
1.50735
1.46912
1.43655
1.46706
1.66272
1.90918
1.97774
1.95135
1.86091
4.04607
3.57769
3.08356
2.75265
2.32548
2.06945
2.59053
3.2862
3.05573
2.81709
2.59085
2.38928
2.21198
2.05921
1.92893
1.81982
1.72274
1.64783
1.5871
1.52348
1.46342
1.44244
1.43693
1.4207
1.39409
1.432
1.64797
1.87967
1.93314
1.88049
4.08869
3.71867
3.20869
2.81255
2.39673
2.27091
3.22198
3.50564
3.22797
2.92787
2.68085
2.4657
2.27786
2.11627
1.97607
1.84748
1.73465
1.64716
1.57288
1.49554
1.42625
1.40208
1.40699
1.4095
1.38197
1.36527
1.42434
1.64511
1.8845
1.85261
3.96265
3.80376
3.3111
2.86177
2.48426
2.78885
3.79767
3.631
3.33041
3.018
2.75657
2.53169
2.33464
2.16509
2.01731
1.88129
1.76083
1.65857
1.5702
1.48656
1.41962
1.38506
1.38455
1.38594
1.37838
1.35575
1.34672
1.41704
1.65501
1.79208
3.51341
3.67526
3.3817
2.90616
2.6017
3.54572
4.17751
3.78592
3.42264
3.1076
2.83669
2.60366
2.39803
2.2177
2.05788
1.91061
1.78073
1.67241
1.58004
1.49277
1.4209
1.37864
1.36816
1.35761
1.34738
1.32918
1.30833
1.29483
1.3731
1.62522
2.67408
3.55488
3.40967
3.00156
2.96346
4.28466
4.3344
3.91344
3.5104
3.18363
2.90335
2.65984
2.44699
2.26055
2.0947
1.94424
1.81085
1.69489
1.59257
1.50312
1.43587
1.39135
1.35679
1.322
1.29463
1.28667
1.26469
1.22372
1.21517
1.38428
2.36854
3.53147
3.43871
3.11484
3.68917
4.85667
4.42977
3.99025
3.58361
3.24549
2.96184
2.71844
2.50712
2.31845
2.14445
1.98622
1.85348
1.73904
1.62987
1.52962
1.45677
1.40526
1.34993
1.29483
1.24218
1.23279
1.21624
1.17887
1.16435
1.21014
1.91841
3.46067
3.49127
3.25501
4.54697
5.15356
4.54431
4.06664
3.65792
3.3125
3.02404
2.78071
2.5697
2.3771
2.1951
2.02667
1.88361
1.76511
1.65757
1.56332
1.48352
1.40894
1.34112
1.27203
1.21405
1.19346
1.16845
1.13939
1.13275
1.13922
1.51111
3.18929
3.3936
3.64597
5.33369
5.28415
4.67235
4.15772
3.74081
3.39156
3.09677
2.84611
2.62813
2.43182
2.24948
2.0829
1.93497
1.8075
1.69081
1.59227
1.50632
1.42021
1.34128
1.26078
1.20062
1.16758
1.13603
1.10657
1.10783
1.10821
1.40137
2.75682
3.22805
4.42513
5.96161
5.43236
4.79426
4.27184
3.85112
3.49479
3.18808
2.92368
2.69184
2.48337
2.29346
2.12266
1.97091
1.84135
1.72075
1.61391
1.51974
1.43158
1.34067
1.25182
1.19409
1.15338
1.11433
1.08332
1.08739
1.08132
1.39992
2.22949
3.10007
5.48086
6.52279
5.63528
4.92777
4.37848
3.94715
3.58213
3.26256
2.98265
2.73626
2.51658
2.31917
2.14468
1.98939
1.85108
1.73293
1.62841
1.53198
1.43756
1.34271
1.25506
1.19736
1.14873
1.10348
1.07282
1.06114
1.04224
1.39995
1.73324
3.0879
6.62735
6.86561
5.78444
5.00052
4.45241
4.02181
3.65103
3.3209
3.02633
2.76567
2.53779
2.3392
2.1641
2.0121
1.86749
1.76307
1.6656
1.56407
1.46184
1.36396
1.28443
1.22442
1.16517
1.11091
1.07298
1.04707
1.0182
1.39996
1.46603
3.79144
7.95001
7.2998
5.8743
4.99375
4.45645
4.04013
3.67436
3.34438
3.04609
2.77673
2.5379
2.33141
2.15997
2.01131
1.87985
1.74925
1.63448
1.5287
1.42675
1.32852
1.25761
1.20064
1.1418
1.08084
1.05389
1.0241
0.993338
)
;

boundaryField
{
    inlet
    {
        type            calculated;
        value           uniform 1.39997;
    }
    outlet
    {
        type            calculated;
        value           nonuniform List<scalar> 
30
(
1.52781
1.53482
1.56641
1.60852
1.64972
1.69262
1.72726
1.75357
1.77186
1.78303
1.79379
1.80688
1.81647
1.81163
1.80964
1.81947
1.84037
1.86028
1.8806
1.85409
1.79395
1.62971
1.38954
1.21232
1.13951
1.10799
1.08122
1.04258
1.01884
0.994114
)
;
    }
    top
    {
        type            symmetryPlane;
    }
    bottom
    {
        type            symmetryPlane;
    }
    step
    {
        type            calculated;
        value           nonuniform List<scalar> 
60
(
6.02801
5.87322
5.60918
5.79366
6.02571
6.24142
5.96815
5.66326
5.65178
5.93459
6.17846
5.94857
5.65939
5.43201
5.64713
6.03249
6.12906
6.02337
5.81121
5.37159
5.20995
5.16952
5.70487
5.88074
5.97558
5.94814
5.47968
4.74212
4.36189
3.98663
0.879907
0.492442
0.665243
0.82557
0.870369
0.899058
0.927032
0.944303
0.965305
0.993498
1.00053
0.997009
1.0837
1.97721
2.73214
2.87212
2.722
2.57351
2.47082
2.37124
2.26918
2.17067
2.0883
2.01411
1.93746
1.85582
1.77106
1.68745
1.62295
1.5284
)
;
    }
    defaultFaces
    {
        type            empty;
    }
}


// ************************************************************************* //
