/*--------------------------------*- C++ -*----------------------------------*\
  =========                 |
  \\      /  F ield         | OpenFOAM: The Open Source CFD Toolbox
   \\    /   O peration     | Website:  https://openfoam.org
    \\  /    A nd           | Version:  6.0
     \\/     M anipulation  |
\*---------------------------------------------------------------------------*/
FoamFile
{
    version     2.0;
    format      ascii;
    class       volScalarField;
    location    "2.000067";
    object      T;
}
// * * * * * * * * * * * * * * * * * * * * * * * * * * * * * * * * * * * * * //

dimensions      [0 0 0 1 0 0 0];

internalField   nonuniform List<scalar> 
2700
(
1
1
1
1
1
1
1
1
1
1
1
1
1
1
1
1.54631
2.58062
2.72294
2.72523
2.73277
2.7472
2.77897
2.8048
2.80299
2.78004
2.75735
2.77576
2.81683
2.85607
2.87169
1
1
1
1
1
1
1
1
1
1
1
1
1
1
1
1.53744
2.57247
2.72253
2.73924
2.75828
2.76818
2.76711
2.76773
2.7869
2.80889
2.82132
2.82829
2.82853
2.8276
2.84218
1
1
1
1
1
1
1
1
1
1
1
1
1
1
1
1.53846
2.57044
2.70888
2.7414
2.76987
2.77901
2.76486
2.75288
2.75636
2.79806
2.86245
2.87264
2.8507
2.81407
2.78802
1
1
1
1
1
1
1
1
1
1
1
1
1
1
1
1.53421
2.57011
2.71604
2.74256
2.75833
2.7654
2.76961
2.76482
2.77788
2.81402
2.83476
2.83725
2.83143
2.81428
2.82473
1
1
1
1
1
1
1
1
1
1
1
1
1
1
1
1.52501
2.57254
2.72614
2.72838
2.73601
2.74376
2.76848
2.80062
2.80883
2.79368
2.77255
2.78459
2.82332
2.8431
2.86786
1
1
1
1
1
1
1
1
1
1
1
1
1
1
1
1.51438
2.57075
2.72506
2.71764
2.72157
2.73871
2.76906
2.80455
2.81871
2.78635
2.74949
2.7511
2.78102
2.86987
2.9064
1
1
1
1
1
1
1
1
1
1
1
1
1
1
1
1.48532
2.55611
2.70851
2.71397
2.73153
2.76253
2.78001
2.77974
2.78015
2.78091
2.77713
2.79829
2.83821
2.85574
2.85498
1
1
1
1
1
1
1
1
1
1
1
1
1
1
1
1.45367
2.53516
2.68756
2.71545
2.75857
2.7771
2.77747
2.75723
2.73982
2.774
2.83101
2.85567
2.85622
2.82143
2.79432
1
1
1
1
1
1
1
1
1
1
1
1
1
1
1
1.41854
2.51924
2.69076
2.73223
2.75911
2.77054
2.75854
2.74756
2.74911
2.79289
2.84245
2.86985
2.85253
2.80389
2.79143
1
1
1
1
1
1
1
1
1
1
1
1
1
1
1
1.3903
2.51103
2.72295
2.73886
2.74208
2.73407
2.74215
2.761
2.80367
2.81695
2.81812
2.80916
2.79225
2.80869
2.8463
1
1
1
1
1
1
1
1
1
1
1
1
1
1
1
1.38008
2.5167
2.7326
2.7373
2.72912
2.7118
2.71993
2.78185
2.82682
2.8306
2.79615
2.74869
2.75103
2.8175
2.89025
1
1
1
1
1
1
1
1
1
1
1
1
1
1
1
1.34772
2.50909
2.72802
2.71628
2.71202
2.71973
2.75968
2.79635
2.80732
2.78399
2.74053
2.74331
2.76414
2.83648
2.84647
1
1
1
1
1
1
1
1
1
1
1
1
1
1
1
1.30557
2.47986
2.71177
2.69816
2.70546
2.75684
2.79458
2.78536
2.75657
2.73017
2.74527
2.80154
2.84694
2.82699
2.78938
1
1
1
1
1
1
1
1
1
1
1
1
1
1
1
1.25095
2.44043
2.69104
2.69201
2.7264
2.7736
2.79076
2.77984
2.71693
2.69655
2.73135
2.84636
2.88815
2.80798
2.74186
1
1
1
1
1
1
1
1
1
1
1
1
1
1
1
1.18758
2.39686
2.67838
2.71399
2.76099
2.76234
2.75335
2.72129
2.72851
2.75137
2.82184
2.83434
2.83356
2.79846
2.78408
1
1
1
1
1
1
1
1
1
1
1
1
1
1
1
1.13045
2.3675
2.68574
2.73444
2.75934
2.75368
2.70575
2.68425
2.73724
2.83242
2.83841
2.79892
2.71468
2.78113
2.8586
1
1
1
1
1
1
1
1
1
1
1
1
1
1
1
1.08298
2.36282
2.70947
2.72205
2.73661
2.71155
2.69178
2.69974
2.7857
2.83033
2.83728
2.72817
2.6767
2.74904
2.87388
1
1
1
1
1
1
1
1
1
1
1
1
1
1
1
1.03152
2.34072
2.7057
2.69922
2.68842
2.68088
2.70089
2.77898
2.79395
2.78585
2.73505
2.71291
2.70478
2.75993
2.85195
1
1
1
1
1
1
1
1
1
1
1
1
1
1
1
1.00192
2.30528
2.69341
2.67809
2.65448
2.65727
2.74001
2.79692
2.7943
2.72591
2.68353
2.70328
2.75773
2.81104
2.81038
1
1
1
1
1
1
1
1
1
1
1
1
1
1
1
1.00019
2.25697
2.6702
2.65919
2.66209
2.72082
2.76625
2.77165
2.74871
2.67115
2.6888
2.77902
2.8483
2.82269
2.72204
1
1
1
1
1
1
1
1
1
1
1
1
1
1
1
1.00006
2.22022
2.66321
2.656
2.7205
2.75865
2.75979
2.74843
2.68247
2.65501
2.70443
2.83086
2.8492
2.79025
2.68562
1
1
1
1
1
1
1
1
1
1
1
1
1
1
1
1
2.19084
2.6646
2.70656
2.73481
2.75603
2.75967
2.68196
2.66016
2.6819
2.79153
2.82954
2.85794
2.73943
2.67209
1
1
1
1
1
1
1
1
1
1
1
1
1
1
1
0.999996
2.17345
2.69035
2.72258
2.72674
2.72901
2.67594
2.67245
2.69285
2.79254
2.79453
2.77351
2.67966
2.71818
2.78089
1
1
1
1
1
1
1
1
1
1
1
1
1
1
1
0.999997
2.11875
2.69372
2.72514
2.72936
2.67349
2.6392
2.64283
2.76254
2.80643
2.79876
2.67188
2.58402
2.68326
2.8119
1
1
1
1
1
1
1
1
1
1
1
1
1
1
1
0.999999
2.05128
2.67405
2.68776
2.6665
2.6593
2.65866
2.72654
2.76355
2.77848
2.7339
2.59468
2.57249
2.65455
2.82655
1
1
1
1
1
1
1
1
1
1
1
1
1
1
1
1
1.95586
2.63704
2.65422
2.64424
2.65088
2.72897
2.76399
2.75245
2.71988
2.63489
2.57003
2.54047
2.66553
2.8102
1
1
1
1
1
1
1
1
1
1
1
1
1
1
1
1
1.87592
2.59543
2.64551
2.65708
2.72326
2.75593
2.75667
2.7312
2.59929
2.61614
2.64217
2.75089
2.74426
2.71254
1
1
1
1
1
1
1
1
1
1
1
1
1
1
1
1
1.80179
2.55638
2.65973
2.72223
2.74552
2.74817
2.74102
2.63849
2.59621
2.61825
2.81461
2.81554
2.73947
2.55423
1
1
1
1
1
1
1
1
1
1
1
1
1
1
1
1
1.76148
2.57193
2.7004
2.7264
2.73514
2.72793
2.6518
2.62752
2.60698
2.76439
2.81935
2.81008
2.68663
2.46093
1
1
1
1
1
1
1
1
1
1
1
1
1
1
1
1
1.65293
2.56577
2.68576
2.69228
2.6905
2.64032
2.63809
2.67142
2.77215
2.77228
2.77736
2.78871
2.55468
2.41902
1
1
1
1
1
1
1
1
1
1
1
1
1
1
1
1
1.31141
2.41534
2.63427
2.63832
2.64897
2.67098
2.69546
2.71551
2.71523
2.68842
2.63867
2.60067
2.59955
2.52173
1
1
1
1
1
1
1
1
1
1
1
1
1
1
1
1
1.01397
2.21242
2.60214
2.63136
2.6476
2.65461
2.65787
2.65323
2.64629
2.63573
2.62766
2.59567
2.52531
2.46948
1
1
1
1
1
1
1
1
1
1
1
1
1
1
1
1
0.999999
1.83995
2.54035
2.60474
2.61188
2.61373
2.61299
2.61459
2.61548
2.60762
2.58624
2.54181
2.45893
2.35029
1
1
1
1
1
1
1
1
1
1
1
1
1
1
1
1
1
1.25905
2.36795
2.57643
2.57855
2.58075
2.58011
2.57896
2.57314
2.55915
2.53283
2.48965
2.4162
2.32031
1
1
1
1
1
1
1
1
1
1
1
1
1
1
1
1
1
1.00961
2.09451
2.53236
2.54849
2.54673
2.54303
2.53596
2.52601
2.5127
2.49171
2.45013
2.38276
2.30327
1
1
1
1
1
1
1
1
1
1
1
1
1
1
1
1
1
1
1.45783
2.37135
2.51635
2.51317
2.51208
2.50414
2.49107
2.4739
2.45084
2.41503
2.3621
2.29722
1
1
1
1
1
1
1
1
1
1
1
1
1
1
1
1
1
0.999999
1.03352
2.08181
2.46712
2.49002
2.4867
2.47551
2.45927
2.43974
2.41519
2.38418
2.34203
2.28916
1
1
1
1
1
1
1
1
1
1
1
1
1
1
1
1
1
1
1.00012
1.36216
2.27988
2.45701
2.44942
2.44447
2.43177
2.41337
2.38948
2.35965
2.32144
2.27728
1
1
1
1
1
1
1
1
1
1
1
1
1
1
1
1
1
1
1
1.01914
1.93464
2.38312
2.4172
2.4105
2.40092
2.38613
2.36531
2.33806
2.30304
2.26539
1
1
1
1
1
1
1
1
1
1
1
1
1
1
1
1
1
1
1
1.00005
1.22379
2.14473
2.38244
2.37434
2.3682
2.3562
2.3389
2.31568
2.28603
2.25377
1
1
1
1
1
1
1
1
1
1
1
1
1
1
1
1
1
1
1
1
1.00643
1.54886
2.22586
2.34484
2.33202
2.32202
2.30838
2.28998
2.26642
2.23974
1
1
1
1
1
1
1
1
1
1
1
1
1
1
1
1
1
1
1
1
1.00002
1.05643
1.88096
2.28212
2.3003
2.29144
2.27955
2.26397
2.24527
2.22275
1
1
1
1
1
1
1
1
1
1
1
1
1
1
1
1
1
1
1
1
1
1.0005
1.22436
2.00878
2.26446
2.25824
2.24895
2.23617
2.22119
2.20169
1
1
1
1
1
1
1
1
1
1
1
1
1
1
1
1
1
1
1
1
1
1
1.00685
1.38994
2.05993
2.22811
2.21618
2.20563
2.19452
2.17804
1
1
1
1
1
1
1
1
1
1
1
1
1
1
1
1
1
1
1
1
1
1
1.00003
1.02512
1.53503
2.07849
2.19358
2.17658
2.16601
2.15253
1
1
1
1
1
1
1
1
1
1
1
1
1
1
1
1
1
1
1
1
1
1
1
1.00018
1.06014
1.64955
2.07844
2.15979
2.14155
2.12707
1
1
1
1
1
1
1
1
1
1
1
1
1
1
1
1
1
1
1
1
1
1
1
1
1.00072
1.11109
1.72072
2.06381
2.12704
2.10865
1
1
1
1
1
1
1
1
1
1
1
1
1
1
1
1
1
1
1
1
1
1
1
1
1
1.00211
1.16311
1.74802
2.03859
2.09776
1
1
1
1
1
1
1
1
1
1
1
1
1
1
1
1
1
1
1
1
1
1
1
1
1
1.00001
1.00439
1.19842
1.73948
2.03684
1
1
1
1
1
1
1
1
1
1
1
1
1
1
1
1
1
1
1
1
1
1
1
1
1
1
1.00002
1.00676
1.20876
1.79783
1
1
1
1
1
1
1
1
1
1
1
1
1
1
1
1
1
1
1
1
1
1
1
1
1
1
1
1.00004
1.0075
1.28625
1
1
1
1
1
1
1
1
1
1
1
1
1
1
1
1
1
1
1
1
1
1
1
1
1
1
1
1
1.00004
1.01404
1
1
1
1
1
1
1
1
1
1
1
1
1
1
1
1
1
1
1
1
1
1
1
1
1
1
1
1
1
1.00005
1
1
1
1
1
1
1
1
1
1
1
1
1
1
1
1
1
1
1
1
1
1
1
1
1
1
1
1
1
1
1
1
1
1
1
1
1
1
1
1
1
1
1
1
1
1
1
1
1
1
1
1
1
1
1
1
1
1
1
1
1
1
1
1
1
1
1
1
1
1
1
1
1
1
1
1
1
1
1
1
1
1
1
1
1
1
1
1
1
1
1
1
1
1
1
1
1
1
1
1
1
1
1
1
1
1
1
1
1
1
1
1
1
1
1
1
1
1
1
1
1
1
1
1
1
1
1
1
1
1
1
1
1
1
1
1
1
1
1
1
1
1
1
1
1
1
1
1
1
1
1
1
1
1
1
1
1
1
1
1
1
1
1
1
1
1
1
1
1
1
1
1
1
1
1
1
1
1
1
1
1
1
1
1
1
1
1
1
1
1
1
1
1
1
1
1
1
1
1
1
1
1
1
1
1
1
1
1
1
1
1.68976
1.61567
1.79702
1.90351
1.88795
1.87897
1.87351
1.85568
1.82594
1.81511
1.81749
1.8245
1.8976
2.42346
2.7048
2.68935
2.62708
2.56513
2.50587
2.44534
2.39206
2.34882
2.31404
2.27987
2.24131
2.1986
2.15403
2.11059
2.07743
2.03251
2.01209
1.70349
1.71566
1.75746
1.78572
1.80656
1.81407
1.80756
1.79256
1.7838
1.78852
1.79834
1.91944
2.27559
2.54573
2.57994
2.55806
2.52065
2.47102
2.41703
2.36662
2.3255
2.29026
2.25632
2.22035
2.18286
2.14465
2.10481
2.07006
2.02259
2.02318
1.69308
1.59162
1.58641
1.63083
1.68382
1.71551
1.71469
1.70704
1.70245
1.70846
1.72923
1.92904
2.06262
2.29117
2.43135
2.44178
2.41361
2.3766
2.33734
2.29999
2.26664
2.23294
2.19857
2.16352
2.12984
2.09948
2.07005
2.04273
1.99638
2.04045
1.73895
1.58281
1.48978
1.5037
1.53864
1.58167
1.60854
1.6121
1.61116
1.61591
1.67524
1.95105
1.94839
2.0467
2.22888
2.32717
2.3048
2.27384
2.24268
2.21296
2.18287
2.15211
2.1228
2.09369
2.06521
2.03813
2.01114
1.98727
1.94686
2.06915
1.79989
1.60643
1.45866
1.46257
1.46464
1.48838
1.52739
1.55954
1.55788
1.56277
1.69181
1.95815
1.92426
1.92108
2.05926
2.21405
2.24683
2.20982
2.17483
2.14452
2.11447
2.08266
2.05231
2.02513
2.00158
1.98001
1.95522
1.92866
1.88665
2.09878
1.86248
1.65749
1.50101
1.46288
1.43565
1.444
1.47416
1.50951
1.51442
1.54364
1.77265
1.96038
1.93786
1.90167
1.92568
2.09758
2.18763
2.17675
2.14292
2.10491
2.0717
2.03832
2.00548
1.97647
1.95246
1.93113
1.90694
1.88025
1.8372
2.12071
1.9102
1.71702
1.55871
1.47714
1.42437
1.42986
1.44567
1.47347
1.48323
1.57415
1.86965
1.9444
1.92561
1.89095
1.86304
1.94601
2.10245
2.14431
2.12104
2.08286
2.04582
2.01077
1.97622
1.94452
1.91766
1.89419
1.86948
1.84416
1.80217
2.13278
1.94952
1.76432
1.62679
1.5197
1.43325
1.43478
1.43321
1.44355
1.46305
1.66625
1.92981
1.92749
1.9099
1.87762
1.84406
1.82956
1.96151
2.09353
2.0959
2.06542
2.02649
1.99105
1.9563
1.92196
1.89072
1.86453
1.84077
1.81848
1.77834
2.13901
1.98107
1.80614
1.68433
1.56303
1.46405
1.44571
1.42044
1.42318
1.47291
1.77501
1.93349
1.92719
1.89475
1.86228
1.82412
1.78665
1.81346
1.96405
2.04842
2.03792
2.00543
1.97122
1.93788
1.90432
1.87086
1.84055
1.8149
1.7958
1.75938
2.14427
1.99971
1.844
1.72871
1.60113
1.51626
1.46438
1.41205
1.41373
1.52604
1.84147
1.91618
1.90788
1.87401
1.84328
1.81094
1.76895
1.73516
1.79741
1.94073
1.9854
1.97366
1.9445
1.91303
1.88281
1.85227
1.82158
1.79476
1.77527
1.74031
2.14386
2.0135
1.87398
1.76347
1.64016
1.56633
1.48798
1.42449
1.4287
1.64102
1.86766
1.8893
1.87582
1.84897
1.82058
1.79169
1.7494
1.70034
1.68066
1.77391
1.88743
1.9221
1.91022
1.88465
1.85458
1.8275
1.8011
1.7764
1.75616
1.71983
2.14142
2.01965
1.89981
1.78887
1.67644
1.60911
1.5178
1.44821
1.47355
1.77529
1.87125
1.86
1.84183
1.81813
1.79435
1.76249
1.71912
1.6699
1.63044
1.635
1.73755
1.84212
1.87188
1.85606
1.82834
1.7997
1.77464
1.75275
1.73371
1.69738
2.13438
2.01898
1.91844
1.80791
1.71216
1.64224
1.54447
1.4707
1.57624
1.87425
1.86457
1.8346
1.80126
1.77742
1.75528
1.72451
1.68088
1.63391
1.60312
1.57977
1.59995
1.71138
1.80869
1.82515
1.80753
1.77687
1.74863
1.72817
1.71034
1.67234
2.12263
2.01648
1.93075
1.82175
1.74475
1.66495
1.56486
1.51003
1.74276
1.92045
1.88326
1.82329
1.7747
1.72997
1.70036
1.67222
1.63529
1.59697
1.57739
1.56059
1.54201
1.57833
1.69429
1.77493
1.77441
1.75872
1.73007
1.70174
1.67611
1.64289
2.10532
2.01174
1.93561
1.8351
1.76897
1.67431
1.58496
1.59143
1.89297
1.93484
1.88834
1.81554
1.75276
1.70142
1.6573
1.62211
1.59402
1.56748
1.55515
1.54624
1.52382
1.51064
1.56893
1.67957
1.72871
1.72631
1.71003
1.67892
1.65084
1.61684
2.08422
2.00517
1.93324
1.84651
1.78178
1.67341
1.60744
1.73434
1.9876
1.94646
1.87992
1.80632
1.73731
1.67911
1.63114
1.59493
1.56428
1.54223
1.53918
1.53455
1.51026
1.47858
1.47581
1.54826
1.64603
1.67826
1.6764
1.65865
1.63277
1.59832
2.06467
1.99906
1.92717
1.85508
1.78076
1.67611
1.64013
1.91974
2.02945
1.9606
1.87623
1.80078
1.72963
1.66744
1.61889
1.57826
1.54463
1.52081
1.5138
1.50721
1.48467
1.45334
1.42744
1.4354
1.50942
1.59816
1.62993
1.62795
1.61316
1.58403
2.04948
1.9931
1.91854
1.86006
1.77209
1.68528
1.73189
2.05531
2.03631
1.95981
1.8703
1.79257
1.72342
1.66309
1.61385
1.57178
1.53207
1.5024
1.48543
1.46993
1.44566
1.42123
1.39936
1.38097
1.39192
1.46963
1.55592
1.58316
1.58691
1.56733
2.03581
1.98816
1.91346
1.85577
1.75682
1.70227
1.90516
2.11597
2.04126
1.95387
1.86777
1.79157
1.72421
1.66491
1.61256
1.56594
1.5231
1.48742
1.45696
1.42486
1.39693
1.37912
1.36979
1.35754
1.34054
1.35487
1.43816
1.51901
1.55274
1.54515
2.01873
1.97822
1.90736
1.84245
1.74954
1.74663
2.08737
2.12849
2.04873
1.95193
1.86754
1.79317
1.72732
1.66873
1.61518
1.56343
1.51553
1.47523
1.43743
1.39833
1.36406
1.34494
1.33845
1.33341
1.31675
1.30326
1.32533
1.40948
1.49829
1.50635
1.98709
1.96972
1.89606
1.82064
1.75596
1.87137
2.17952
2.12636
2.03896
1.94703
1.86635
1.79481
1.7301
1.67107
1.61592
1.56283
1.5118
1.46493
1.42139
1.37869
1.3422
1.31969
1.30932
1.30247
1.2933
1.27888
1.26905
1.29683
1.3853
1.45535
1.95451
1.94318
1.88862
1.79451
1.7665
2.07258
2.21833
2.12638
2.03376
1.94871
1.87103
1.80003
1.73456
1.67376
1.6158
1.55791
1.5021
1.45121
1.40508
1.36097
1.32341
1.2975
1.28342
1.27115
1.2606
1.24842
1.23518
1.2263
1.25806
1.37397
1.77567
1.94744
1.90205
1.80532
1.82781
2.23326
2.22253
2.12644
2.03323
1.95059
1.87319
1.80041
1.73214
1.66836
1.60745
1.54739
1.48987
1.43639
1.38693
1.34243
1.3075
1.28183
1.26057
1.24
1.22377
1.21564
1.20262
1.1842
1.17751
1.25897
1.49922
1.9301
1.91053
1.83141
1.99348
2.30982
2.22285
2.12511
2.03103
1.9469
1.86888
1.79535
1.72589
1.65973
1.59532
1.53329
1.47732
1.42593
1.37568
1.32947
1.29473
1.26878
1.24217
1.21563
1.19145
1.18338
1.17327
1.15612
1.14642
1.16685
1.17025
1.81412
1.90935
1.86127
2.22109
2.35125
2.22689
2.11986
2.0236
1.93647
1.85605
1.781
1.71058
1.64304
1.57724
1.51456
1.45823
1.4081
1.36126
1.32037
1.28672
1.2558
1.22646
1.19675
1.17181
1.1605
1.14781
1.13299
1.12705
1.12752
1.03115
1.69494
1.86377
1.9528
2.38563
2.35831
2.2206
2.10284
2.00381
1.91525
1.83332
1.75709
1.68645
1.62056
1.55822
1.50021
1.44659
1.39781
1.35232
1.31354
1.28047
1.24805
1.21703
1.18549
1.16062
1.14486
1.1297
1.11379
1.11214
1.1105
1.00039
1.54853
1.7773
2.13745
2.42755
2.32602
2.18919
2.07151
1.9742
1.88741
1.80696
1.73238
1.66352
1.59977
1.54047
1.48579
1.43534
1.39073
1.348
1.30967
1.27578
1.24383
1.21035
1.17717
1.15344
1.13483
1.11692
1.10115
1.10101
1.09724
0.999985
1.31313
1.65965
2.30073
2.42401
2.27281
2.14113
2.03119
1.93953
1.85747
1.78123
1.7103
1.64452
1.58348
1.52695
1.47512
1.4274
1.38356
1.34355
1.30763
1.27455
1.24169
1.2076
1.17434
1.15068
1.1302
1.11069
1.09623
1.08906
1.07965
0.999994
1.10806
1.5339
2.30006
2.3632
2.217
2.10125
2.00408
1.91847
1.84063
1.76807
1.69963
1.63539
1.57613
1.52208
1.47232
1.42741
1.38269
1.3491
1.31716
1.28361
1.24901
1.21432
1.18378
1.15948
1.13574
1.11333
1.09581
1.08278
1.06895
0.999997
1.01983
1.62868
2.38615
2.3415
2.19633
2.08348
1.99188
1.91005
1.83495
1.76467
1.69762
1.63317
1.57249
1.51703
1.46864
1.42472
1.38389
1.34347
1.30662
1.27142
1.2363
1.20087
1.1732
1.14994
1.1259
1.10063
1.08732
1.07301
1.05842
)
;

boundaryField
{
    inlet
    {
        type            fixedValue;
        value           uniform 1;
    }
    outlet
    {
        type            inletOutlet;
        inletValue      uniform 1;
        value           nonuniform List<scalar> 
30
(
2.03329
2.02286
1.99598
1.94666
1.88612
1.8366
1.80185
1.77822
1.75948
1.74047
1.71953
1.69674
1.67154
1.64276
1.61657
1.59806
1.58408
1.56786
1.54505
1.50515
1.45383
1.37019
1.25421
1.16476
1.12723
1.11072
1.09734
1.0793
1.06828
1.05759
)
;
    }
    top
    {
        type            symmetryPlane;
    }
    bottom
    {
        type            symmetryPlane;
    }
    step
    {
        type            zeroGradient;
    }
    defaultFaces
    {
        type            empty;
    }
}


// ************************************************************************* //
