/*--------------------------------*- C++ -*----------------------------------*\
  =========                 |
  \\      /  F ield         | OpenFOAM: The Open Source CFD Toolbox
   \\    /   O peration     | Website:  https://openfoam.org
    \\  /    A nd           | Version:  6.0
     \\/     M anipulation  |
\*---------------------------------------------------------------------------*/
FoamFile
{
    version     2.0;
    format      ascii;
    class       volVectorField;
    location    "2.000067";
    object      U;
}
// * * * * * * * * * * * * * * * * * * * * * * * * * * * * * * * * * * * * * //

dimensions      [0 1 -1 0 0 0 0];

internalField   nonuniform List<vector> 
2700
(
(3 1.27205e-16 0)
(3 -3.55453e-16 0)
(3 1.63448e-17 0)
(3 -2.79467e-16 0)
(3 -5.29607e-16 0)
(3 -3.46208e-16 0)
(3 1.90276e-16 0)
(3 -4.61624e-16 0)
(3 -3.77669e-16 0)
(3 -6.21859e-16 0)
(3 -4.88526e-16 0)
(3 -1.14665e-15 0)
(3 -1.51941e-15 0)
(3 -3.80798e-16 0)
(3 -3.97302e-16 0)
(2.40358 0.00348334 0)
(0.859227 0.00466832 0)
(0.691062 -0.000433606 0)
(0.634773 0.00980617 0)
(0.572785 0.0203229 0)
(0.523939 0.0306697 0)
(0.484116 0.0247893 0)
(0.441302 -0.0052277 0)
(0.39143 -0.0184269 0)
(0.329093 -0.00930723 0)
(0.252301 0.0293324 0)
(0.186135 0.0555104 0)
(0.15698 0.0560964 0)
(0.120818 0.00436249 0)
(0.0456952 -0.0410912 0)
(3 4.11496e-18 0)
(3 -1.9618e-16 0)
(3 3.05438e-16 0)
(3 4.11801e-16 0)
(3 -5.38273e-16 0)
(3 -2.93906e-16 0)
(3 1.77241e-16 0)
(3 1.9094e-16 0)
(3 8.69829e-17 0)
(3 -1.38904e-16 0)
(3 2.95327e-16 0)
(3 -6.63564e-16 0)
(3 -9.72328e-16 0)
(3 -2.27249e-16 0)
(3 -2.58364e-16 0)
(2.41123 0.0157001 0)
(0.852831 0.0257453 0)
(0.686891 0.00340498 0)
(0.638425 0.00144551 0)
(0.588307 0.0223562 0)
(0.534581 0.0525251 0)
(0.478538 0.058843 0)
(0.422586 0.0415187 0)
(0.372777 -0.00828075 0)
(0.323921 -0.0476394 0)
(0.274397 -0.0291189 0)
(0.21975 0.0796201 0)
(0.145894 0.122851 0)
(0.0775579 0.0509059 0)
(0.0338618 -0.0420215 0)
(3 -5.22721e-17 0)
(3 -1.01567e-16 0)
(3 4.61378e-16 0)
(3 8.25552e-16 0)
(3 -2.36086e-17 0)
(3 -3.23951e-17 0)
(3 4.55632e-16 0)
(3 9.15924e-16 0)
(3 6.06137e-16 0)
(3 1.89402e-16 0)
(3 -7.52071e-16 0)
(3 -7.99521e-16 0)
(3 -3.06087e-16 0)
(3 1.91917e-16 0)
(3 -2.85129e-16 0)
(2.40785 0.0215312 0)
(0.844954 0.0320145 0)
(0.681207 0.0308375 0)
(0.639983 0.0392121 0)
(0.592121 0.0429073 0)
(0.536796 0.0415234 0)
(0.479492 0.0421603 0)
(0.41317 0.043567 0)
(0.353992 0.0347923 0)
(0.318583 0.0349502 0)
(0.287768 0.0405907 0)
(0.23769 0.0517436 0)
(0.141185 0.064487 0)
(0.050521 0.0565804 0)
(0.0270892 0.0406247 0)
(3 -1.17506e-16 0)
(3 -2.49843e-17 0)
(3 4.29758e-16 0)
(3 1.64615e-16 0)
(3 2.6524e-16 0)
(3 8.69771e-17 0)
(3 3.77447e-16 0)
(3 7.99397e-16 0)
(3 7.83394e-16 0)
(3 -6.31654e-16 0)
(3 -1.24914e-15 0)
(3 -4.75129e-16 0)
(3 -6.11574e-16 0)
(3 -5.21623e-16 0)
(3 -4.70967e-16 0)
(2.4155 0.0351216 0)
(0.84555 0.0479335 0)
(0.687582 0.064245 0)
(0.642481 0.0708224 0)
(0.587932 0.0601782 0)
(0.534389 0.0336889 0)
(0.477644 0.0209736 0)
(0.422 0.037189 0)
(0.368277 0.0884319 0)
(0.328121 0.119219 0)
(0.2801 0.0992604 0)
(0.226429 0.0127107 0)
(0.1475 -0.00592491 0)
(0.0622292 0.0690985 0)
(0.0309867 0.138546 0)
(3 -1.56928e-16 0)
(3 -2.06866e-16 0)
(3 -6.98835e-17 0)
(3 6.49111e-16 0)
(3 7.59197e-16 0)
(3 -1.3116e-16 0)
(3 -3.86435e-16 0)
(3 -3.18748e-16 0)
(3 -2.77119e-16 0)
(3 9.12209e-17 0)
(3 -1.79212e-16 0)
(3 -3.41679e-16 0)
(3 -5.43967e-16 0)
(3 -9.43703e-16 0)
(3 1.88803e-16 0)
(2.43817 0.0514455 0)
(0.861344 0.0706853 0)
(0.69295 0.083961 0)
(0.642988 0.0775296 0)
(0.582277 0.0628883 0)
(0.527499 0.0477637 0)
(0.48248 0.0448792 0)
(0.440662 0.0698234 0)
(0.389274 0.115303 0)
(0.323355 0.142353 0)
(0.253015 0.101209 0)
(0.198828 0.038247 0)
(0.159302 0.00931637 0)
(0.114499 0.0708116 0)
(0.0447361 0.17049 0)
(3 -3.40849e-16 0)
(3 -7.58522e-16 0)
(3 -2.34228e-16 0)
(3 2.66776e-16 0)
(3 5.69134e-16 0)
(3 3.11879e-16 0)
(3 -4.79401e-16 0)
(3 -1.46674e-15 0)
(3 -1.05314e-15 0)
(3 8.8746e-17 0)
(3 5.609e-16 0)
(3 5.50122e-16 0)
(3 2.24024e-16 0)
(3 -2.3988e-16 0)
(3 6.25092e-16 0)
(2.46575 0.0739581 0)
(0.873944 0.0991759 0)
(0.696617 0.0838624 0)
(0.643057 0.066007 0)
(0.581843 0.0679085 0)
(0.529785 0.0850393 0)
(0.484489 0.106645 0)
(0.440804 0.105409 0)
(0.394308 0.0865851 0)
(0.321882 0.0754407 0)
(0.24217 0.0837597 0)
(0.182081 0.0971671 0)
(0.155488 0.109923 0)
(0.125017 0.125894 0)
(0.0465276 0.108724 0)
(3 -1.39356e-16 0)
(3 -4.21908e-16 0)
(3 -2.07046e-16 0)
(3 -1.02569e-16 0)
(3 3.08543e-16 0)
(3 2.82677e-16 0)
(3 3.65262e-16 0)
(3 -1.00996e-15 0)
(3 -9.57282e-16 0)
(3 -4.51203e-16 0)
(3 3.84269e-16 0)
(3 8.14109e-16 0)
(3 9.01207e-17 0)
(3 -5.61225e-17 0)
(3 -2.97244e-18 0)
(2.51156 0.0814061 0)
(0.880552 0.115974 0)
(0.695619 0.0849156 0)
(0.646484 0.061055 0)
(0.596556 0.072665 0)
(0.549309 0.11613 0)
(0.493255 0.148742 0)
(0.433117 0.148498 0)
(0.376649 0.0875514 0)
(0.320959 0.028688 0)
(0.261157 0.0523478 0)
(0.205934 0.149331 0)
(0.164017 0.21091 0)
(0.107341 0.164865 0)
(0.0418416 0.0758546 0)
(3 1.74107e-16 0)
(3 1.68502e-16 0)
(3 2.81601e-16 0)
(3 3.66076e-16 0)
(3 8.98771e-16 0)
(3 2.34516e-16 0)
(3 3.76999e-16 0)
(3 -1.07197e-16 0)
(3 4.72769e-16 0)
(3 9.0302e-16 0)
(3 5.08772e-16 0)
(3 2.65406e-16 0)
(3 -1.54447e-16 0)
(3 -5.29011e-16 0)
(3 -8.29056e-16 0)
(2.55854 0.0780711 0)
(0.894008 0.113834 0)
(0.686743 0.0902639 0)
(0.650749 0.0927338 0)
(0.610361 0.120609 0)
(0.55883 0.133485 0)
(0.501306 0.138923 0)
(0.428971 0.116077 0)
(0.354472 0.0974001 0)
(0.317341 0.0866785 0)
(0.289368 0.121814 0)
(0.24532 0.201529 0)
(0.161566 0.241489 0)
(0.0679116 0.188736 0)
(0.0343112 0.107129 0)
(3 -2.10094e-17 0)
(3 6.17818e-17 0)
(3 5.0384e-16 0)
(3 9.75586e-17 0)
(3 1.75726e-16 0)
(3 6.24931e-16 0)
(3 -3.54825e-16 0)
(3 6.35022e-16 0)
(3 7.50848e-16 0)
(3 3.83206e-16 0)
(3 1.03304e-16 0)
(3 6.73014e-16 0)
(3 9.90202e-16 0)
(3 -5.69988e-16 0)
(3 -1.13159e-15 0)
(2.60399 0.0740239 0)
(0.893791 0.110709 0)
(0.695248 0.110905 0)
(0.659375 0.146862 0)
(0.612311 0.148574 0)
(0.560619 0.133605 0)
(0.492763 0.0997342 0)
(0.424075 0.0972404 0)
(0.364246 0.134109 0)
(0.324221 0.199225 0)
(0.291206 0.207941 0)
(0.253311 0.180869 0)
(0.160816 0.156901 0)
(0.0571144 0.169658 0)
(0.0335143 0.204192 0)
(3 2.6147e-16 0)
(3 2.7984e-16 0)
(3 -5.20699e-16 0)
(3 -3.00957e-16 0)
(3 -4.76568e-16 0)
(3 4.64649e-16 0)
(3 8.07096e-17 0)
(3 2.07234e-16 0)
(3 -1.62302e-16 0)
(3 -3.70244e-16 0)
(3 8.41685e-18 0)
(3 1.65486e-16 0)
(3 2.8749e-16 0)
(3 6.53275e-16 0)
(3 4.04332e-16 0)
(2.64381 0.0830684 0)
(0.900143 0.13351 0)
(0.70993 0.161523 0)
(0.664484 0.169873 0)
(0.607902 0.1717 0)
(0.545648 0.138773 0)
(0.485575 0.0942181 0)
(0.440381 0.0906658 0)
(0.402345 0.177484 0)
(0.346776 0.255213 0)
(0.278187 0.281121 0)
(0.219748 0.193318 0)
(0.156438 0.0979621 0)
(0.0894056 0.155508 0)
(0.0474081 0.257597 0)
(3 3.37362e-16 0)
(3 6.15554e-16 0)
(3 -3.03371e-16 0)
(3 3.05175e-16 0)
(3 -2.6615e-16 0)
(3 -3.83992e-17 0)
(3 -1.50381e-16 0)
(3 -1.27259e-15 0)
(3 -1.54179e-15 0)
(3 -3.28594e-16 0)
(3 4.84722e-16 0)
(3 1.98482e-16 0)
(3 3.88261e-17 0)
(3 7.20047e-16 0)
(3 1.65308e-15 0)
(2.669 0.100669 0)
(0.916118 0.174288 0)
(0.70853 0.183422 0)
(0.666581 0.166088 0)
(0.606082 0.14295 0)
(0.539991 0.13034 0)
(0.48193 0.142258 0)
(0.459367 0.191257 0)
(0.419925 0.210834 0)
(0.368612 0.224715 0)
(0.277808 0.20956 0)
(0.18675 0.1546 0)
(0.149258 0.147664 0)
(0.119066 0.189418 0)
(0.0582103 0.244189 0)
(3 5.5987e-17 0)
(3 2.61128e-16 0)
(3 1.02002e-15 0)
(3 6.87286e-16 0)
(3 2.98185e-16 0)
(3 -9.20968e-16 0)
(3 -6.10997e-16 0)
(3 -1.52993e-15 0)
(3 -2.02262e-15 0)
(3 -1.34443e-15 0)
(3 -7.31148e-16 0)
(3 5.53472e-16 0)
(3 1.04254e-15 0)
(3 1.0608e-15 0)
(3 4.56802e-16 0)
(2.71231 0.107335 0)
(0.931476 0.208869 0)
(0.700085 0.198975 0)
(0.658187 0.156582 0)
(0.600216 0.121902 0)
(0.548863 0.12125 0)
(0.5145 0.203869 0)
(0.46981 0.256413 0)
(0.415596 0.242293 0)
(0.357454 0.172685 0)
(0.27056 0.121454 0)
(0.191953 0.1756 0)
(0.164407 0.236852 0)
(0.12884 0.262059 0)
(0.0614333 0.21326 0)
(3 1.42871e-16 0)
(3 -1.53395e-16 0)
(3 -2.53829e-16 0)
(3 -4.86819e-16 0)
(3 -4.62183e-16 0)
(3 -1.01298e-15 0)
(3 -1.53884e-15 0)
(3 -2.23467e-15 0)
(3 -1.46305e-15 0)
(3 -1.63665e-15 0)
(3 -9.40074e-16 0)
(3 -8.17224e-17 0)
(3 1.25562e-15 0)
(3 1.82793e-15 0)
(3 2.58827e-16 0)
(2.76365 0.107548 0)
(0.957211 0.212211 0)
(0.697934 0.188647 0)
(0.650167 0.145681 0)
(0.598637 0.137671 0)
(0.576052 0.190659 0)
(0.53967 0.238922 0)
(0.475667 0.263529 0)
(0.403059 0.226906 0)
(0.332401 0.138242 0)
(0.280493 0.110605 0)
(0.248502 0.197116 0)
(0.178493 0.32039 0)
(0.103686 0.318895 0)
(0.0519111 0.204179 0)
(3 2.31023e-16 0)
(3 -9.78838e-16 0)
(3 -1.75665e-15 0)
(3 -1.61183e-15 0)
(3 -9.8219e-16 0)
(3 -1.91895e-15 0)
(3 -1.51248e-15 0)
(3 -8.97463e-16 0)
(3 -5.8419e-16 0)
(3 -4.57429e-16 0)
(3 -3.17806e-16 0)
(3 4.53952e-16 0)
(3 1.00034e-15 0)
(3 1.05999e-15 0)
(3 8.35792e-16 0)
(2.83162 0.10775 0)
(0.987372 0.213799 0)
(0.698787 0.168077 0)
(0.659732 0.158318 0)
(0.62536 0.207299 0)
(0.592501 0.249584 0)
(0.543556 0.235926 0)
(0.483128 0.209025 0)
(0.385848 0.176621 0)
(0.318593 0.179796 0)
(0.291153 0.200877 0)
(0.278802 0.297581 0)
(0.188515 0.331348 0)
(0.0818603 0.290964 0)
(0.0450262 0.234808 0)
(3 -4.68603e-16 0)
(3 -6.93361e-16 0)
(3 -5.36707e-16 0)
(3 -8.569e-17 0)
(3 3.06428e-16 0)
(3 -1.60023e-16 0)
(3 2.72134e-16 0)
(3 9.09884e-16 0)
(3 6.12618e-16 0)
(3 1.11822e-15 0)
(3 5.1764e-16 0)
(3 8.51796e-16 0)
(3 -7.6067e-17 0)
(3 -4.4064e-16 0)
(3 -3.55958e-16 0)
(2.91127 0.0977584 0)
(1.02283 0.207234 0)
(0.715058 0.171127 0)
(0.693725 0.207506 0)
(0.657259 0.266056 0)
(0.5987 0.285743 0)
(0.537059 0.270636 0)
(0.46639 0.17076 0)
(0.402401 0.147149 0)
(0.35228 0.222274 0)
(0.322771 0.354909 0)
(0.285598 0.35514 0)
(0.183442 0.331845 0)
(0.052987 0.275382 0)
(0.0440636 0.272615 0)
(3 -1.22828e-17 0)
(3 -4.35261e-16 0)
(3 -7.14191e-17 0)
(3 7.91961e-16 0)
(3 8.25905e-16 0)
(3 4.40456e-16 0)
(3 2.03924e-15 0)
(3 2.00849e-15 0)
(3 2.17597e-15 0)
(3 1.19245e-15 0)
(3 5.34322e-16 0)
(3 -7.33221e-17 0)
(3 -6.59284e-16 0)
(3 -1.79384e-15 0)
(3 -1.43179e-15 0)
(2.98309 0.0528647 0)
(1.05281 0.225884 0)
(0.755019 0.219448 0)
(0.727958 0.260559 0)
(0.672914 0.27157 0)
(0.616068 0.266684 0)
(0.527714 0.209643 0)
(0.454913 0.195848 0)
(0.419376 0.221539 0)
(0.406937 0.345082 0)
(0.341707 0.377748 0)
(0.27459 0.366722 0)
(0.171564 0.264036 0)
(0.0629771 0.30088 0)
(0.0635698 0.375676 0)
(3 -1.89403e-17 0)
(3 2.07015e-16 0)
(3 1.98573e-16 0)
(3 4.41258e-16 0)
(3 5.80665e-16 0)
(3 3.08919e-16 0)
(3 6.23844e-16 0)
(3 1.50593e-15 0)
(3 1.77347e-15 0)
(3 5.15746e-16 0)
(3 -1.19435e-16 0)
(3 -1.32296e-16 0)
(3 -3.47578e-17 0)
(3 -1.14605e-15 0)
(3 -1.58355e-15 0)
(2.99037 0.035833 0)
(1.08127 0.263703 0)
(0.776871 0.272739 0)
(0.74169 0.280784 0)
(0.683823 0.270261 0)
(0.609127 0.212931 0)
(0.532985 0.18878 0)
(0.483376 0.221418 0)
(0.468978 0.346467 0)
(0.424347 0.363845 0)
(0.354596 0.356096 0)
(0.24699 0.255339 0)
(0.165748 0.250489 0)
(0.0883553 0.33341 0)
(0.0729951 0.422806 0)
(3 -3.55495e-16 0)
(3 3.93141e-16 0)
(3 4.01433e-16 0)
(3 -7.90695e-17 0)
(3 1.943e-16 0)
(3 1.11007e-15 0)
(3 5.20214e-16 0)
(3 8.15884e-16 0)
(3 7.58576e-16 0)
(3 1.15294e-16 0)
(3 -2.19451e-16 0)
(3 2.24984e-16 0)
(3 -9.49871e-17 0)
(3 -1.16225e-16 0)
(3 -4.55131e-16 0)
(2.9942 0.0173414 0)
(1.10811 0.275468 0)
(0.782349 0.277787 0)
(0.74997 0.284242 0)
(0.679512 0.24956 0)
(0.60649 0.200959 0)
(0.555117 0.202225 0)
(0.537439 0.324687 0)
(0.493478 0.385642 0)
(0.417762 0.427109 0)
(0.309727 0.312592 0)
(0.234144 0.214609 0)
(0.191695 0.225646 0)
(0.150006 0.338654 0)
(0.0844277 0.478634 0)
(3 -9.47614e-18 0)
(3 3.53315e-16 0)
(3 3.8892e-16 0)
(3 3.79706e-17 0)
(3 -2.73039e-16 0)
(3 -1.57204e-17 0)
(3 8.69874e-17 0)
(3 -5.97595e-16 0)
(3 -7.10839e-16 0)
(3 4.00521e-16 0)
(3 1.37752e-16 0)
(3 -1.49786e-16 0)
(3 2.05268e-16 0)
(3 2.56952e-16 0)
(3 1.0434e-16 0)
(3.00541 0.000767418 0)
(1.14448 0.262144 0)
(0.779428 0.264533 0)
(0.74246 0.247762 0)
(0.669957 0.231415 0)
(0.607361 0.241688 0)
(0.589018 0.331968 0)
(0.5551 0.365004 0)
(0.510248 0.357046 0)
(0.409581 0.295548 0)
(0.285591 0.275316 0)
(0.218355 0.277302 0)
(0.206632 0.347487 0)
(0.188782 0.442742 0)
(0.0975405 0.43747 0)
(3 2.43042e-16 0)
(3 4.87506e-16 0)
(3 5.70284e-16 0)
(3 9.04449e-16 0)
(3 -1.51648e-16 0)
(3 -8.83825e-17 0)
(3 -6.28926e-17 0)
(3 -6.41096e-16 0)
(3 -4.20357e-16 0)
(3 9.66534e-17 0)
(3 2.12195e-16 0)
(3 -7.52124e-16 0)
(3 -5.99414e-16 0)
(3 -3.19782e-17 0)
(3 -3.2404e-16 0)
(3.00197 -0.000129525 0)
(1.18088 0.242916 0)
(0.762873 0.2403 0)
(0.723544 0.227051 0)
(0.670417 0.230037 0)
(0.645851 0.333101 0)
(0.609003 0.403331 0)
(0.552291 0.40887 0)
(0.493311 0.343678 0)
(0.395391 0.221146 0)
(0.320984 0.273417 0)
(0.275357 0.451315 0)
(0.230026 0.542704 0)
(0.173613 0.525115 0)
(0.0736299 0.362364 0)
(3 4.74785e-16 0)
(3 2.1441e-16 0)
(3 5.75157e-16 0)
(3 2.77797e-16 0)
(3 1.7916e-16 0)
(3 -7.20104e-16 0)
(3 -8.14922e-16 0)
(3 4.07448e-17 0)
(3 -4.65676e-18 0)
(3 9.32283e-17 0)
(3 1.83306e-16 0)
(3 -6.23214e-16 0)
(3 -5.22579e-16 0)
(3 5.24023e-16 0)
(3 6.75325e-16 0)
(3.00031 9.51966e-05 0)
(1.22581 0.244314 0)
(0.744648 0.240051 0)
(0.718408 0.244919 0)
(0.694585 0.327952 0)
(0.666123 0.386218 0)
(0.622341 0.402557 0)
(0.562152 0.39529 0)
(0.449868 0.289268 0)
(0.395243 0.244953 0)
(0.370552 0.302044 0)
(0.35712 0.535804 0)
(0.225947 0.638093 0)
(0.119075 0.547144 0)
(0.0605133 0.361575 0)
(3 8.90547e-17 0)
(3 8.35514e-17 0)
(3 -9.58989e-17 0)
(3 -1.11865e-16 0)
(3 4.61106e-17 0)
(3 2.4034e-17 0)
(3 7.19523e-16 0)
(3 3.62266e-16 0)
(3 6.16893e-17 0)
(3 2.03008e-16 0)
(3 -2.74116e-16 0)
(3 -2.20686e-17 0)
(3 5.53054e-16 0)
(3 1.93452e-15 0)
(3 1.59322e-15 0)
(3.00001 8.31086e-06 0)
(1.27318 0.269289 0)
(0.74465 0.253875 0)
(0.727482 0.335493 0)
(0.693806 0.382252 0)
(0.667618 0.386724 0)
(0.629653 0.37566 0)
(0.536355 0.294581 0)
(0.451822 0.305074 0)
(0.416509 0.361327 0)
(0.425525 0.498104 0)
(0.391909 0.527174 0)
(0.249829 0.603548 0)
(0.0498664 0.506646 0)
(0.0520548 0.388946 0)
(3 -2.79602e-16 0)
(3 1.057e-16 0)
(3 -6.79247e-17 0)
(3 -1.76186e-17 0)
(3 -1.75736e-16 0)
(3 8.03069e-16 0)
(3 1.47994e-15 0)
(3 1.52656e-15 0)
(3 9.44701e-16 0)
(3 1.22204e-17 0)
(3 -3.65129e-16 0)
(3 4.73934e-16 0)
(3 5.46336e-16 0)
(3 1.29857e-15 0)
(3 1.33643e-15 0)
(3.00001 -9.36177e-06 0)
(1.33411 0.318594 0)
(0.769066 0.306709 0)
(0.725888 0.370806 0)
(0.690344 0.401863 0)
(0.657315 0.412292 0)
(0.587628 0.316793 0)
(0.531546 0.274902 0)
(0.48876 0.32638 0)
(0.479862 0.520116 0)
(0.429 0.568366 0)
(0.390615 0.575187 0)
(0.236272 0.464816 0)
(0.0373708 0.499755 0)
(0.0690038 0.57129 0)
(3 -2.66622e-16 0)
(3 -1.84718e-16 0)
(3 -2.16984e-16 0)
(3 -5.70325e-16 0)
(3 -3.17275e-16 0)
(3 8.2647e-16 0)
(3 1.09428e-15 0)
(3 9.86647e-16 0)
(3 1.74119e-15 0)
(3 8.27223e-16 0)
(3 6.42116e-16 0)
(3 1.16516e-15 0)
(3 3.17503e-16 0)
(3 9.22337e-17 0)
(3 1.25241e-15 0)
(3 -8.01069e-06 0)
(1.42377 0.348154 0)
(0.784545 0.34771 0)
(0.730618 0.364233 0)
(0.692576 0.36496 0)
(0.624191 0.312735 0)
(0.572034 0.302637 0)
(0.533544 0.319647 0)
(0.541908 0.470881 0)
(0.494424 0.530889 0)
(0.446626 0.532042 0)
(0.360917 0.426682 0)
(0.227701 0.359809 0)
(0.0965675 0.510151 0)
(0.0984178 0.681195 0)
(3 2.32492e-16 0)
(3 -1.12187e-16 0)
(3 -3.1609e-16 0)
(3 -4.9987e-16 0)
(3 -7.77825e-17 0)
(3 6.14289e-16 0)
(3 7.46788e-16 0)
(3 1.01055e-15 0)
(3 1.79885e-15 0)
(3 1.59647e-15 0)
(3 1.48246e-15 0)
(3 1.49769e-15 0)
(3 1.27764e-15 0)
(3 8.14329e-16 0)
(3 6.783e-16 0)
(3 -2.1255e-06 0)
(1.52527 0.352474 0)
(0.802355 0.352644 0)
(0.71675 0.345863 0)
(0.66184 0.297895 0)
(0.619132 0.276295 0)
(0.579611 0.293257 0)
(0.580751 0.437005 0)
(0.561052 0.519242 0)
(0.495631 0.559955 0)
(0.426685 0.504069 0)
(0.317381 0.336806 0)
(0.25539 0.364723 0)
(0.185337 0.539852 0)
(0.123593 0.762594 0)
(3 1.59208e-16 0)
(3 2.01138e-16 0)
(3 1.94865e-17 0)
(3 -1.69424e-16 0)
(3 1.78825e-16 0)
(3 -1.60821e-16 0)
(3 6.63725e-16 0)
(3 1.36821e-15 0)
(3 1.34936e-15 0)
(3 2.02574e-15 0)
(3 1.81352e-15 0)
(3 1.5089e-15 0)
(3 1.52541e-15 0)
(3 1.74246e-16 0)
(3 -6.75779e-16 0)
(3 -2.04269e-08 0)
(1.64435 0.338996 0)
(0.809607 0.334571 0)
(0.698316 0.309912 0)
(0.650316 0.304187 0)
(0.608491 0.308059 0)
(0.616267 0.420826 0)
(0.601019 0.489078 0)
(0.578295 0.504983 0)
(0.51126 0.503974 0)
(0.361699 0.411732 0)
(0.313516 0.370072 0)
(0.268981 0.388821 0)
(0.285402 0.632165 0)
(0.148013 0.846628 0)
(3 -5.04209e-16 0)
(3 4.70809e-16 0)
(3 2.97953e-16 0)
(3 2.54405e-16 0)
(3 1.46403e-16 0)
(3 -4.71937e-16 0)
(3 4.53407e-17 0)
(3 7.30766e-16 0)
(3 6.98898e-16 0)
(3 1.1727e-15 0)
(3 9.92043e-16 0)
(3 9.89643e-16 0)
(3 9.75429e-16 0)
(3 -1.41131e-15 0)
(3 -1.60322e-15 0)
(3 -2.35577e-10 0)
(1.76461 0.328486 0)
(0.805273 0.325746 0)
(0.692302 0.309943 0)
(0.655558 0.3217 0)
(0.644466 0.432812 0)
(0.623221 0.4889 0)
(0.598677 0.497453 0)
(0.578919 0.489014 0)
(0.469523 0.356538 0)
(0.372873 0.429518 0)
(0.34648 0.526503 0)
(0.3215 0.726427 0)
(0.331318 0.810844 0)
(0.160447 0.817656 0)
(3 3.20459e-16 0)
(3 3.68983e-16 0)
(3 6.79961e-16 0)
(3 4.70335e-16 0)
(3 -3.37048e-17 0)
(3 1.48596e-16 0)
(3 4.93063e-16 0)
(3 -2.66672e-18 0)
(3 -4.17222e-17 0)
(3 -7.83148e-17 0)
(3 -4.42282e-16 0)
(3 3.90881e-16 0)
(3 -2.54309e-17 0)
(3 -1.52308e-15 0)
(3 -1.05647e-15 0)
(3 -1.52846e-08 0)
(1.88373 0.358796 0)
(0.806557 0.35313 0)
(0.705321 0.364607 0)
(0.68726 0.441706 0)
(0.659312 0.479666 0)
(0.6308 0.491641 0)
(0.605419 0.500435 0)
(0.5226 0.383879 0)
(0.478821 0.365654 0)
(0.421869 0.461599 0)
(0.449119 0.800806 0)
(0.354045 0.867045 0)
(0.308687 0.885616 0)
(0.139185 0.731413 0)
(3 6.38756e-16 0)
(3 2.6663e-16 0)
(3 3.18027e-16 0)
(3 7.2408e-16 0)
(3 4.27007e-16 0)
(3 9.80283e-16 0)
(3 4.02559e-16 0)
(3 1.05892e-16 0)
(3 -3.01e-16 0)
(3 -4.93456e-16 0)
(3 -6.66863e-16 0)
(3 -6.8752e-16 0)
(3 -1.15166e-15 0)
(3 -1.11838e-15 0)
(3 -1.051e-15 0)
(3 -1.84727e-08 0)
(2.03605 0.420188 0)
(0.834985 0.438855 0)
(0.741034 0.447394 0)
(0.717377 0.463471 0)
(0.68135 0.481646 0)
(0.644504 0.481473 0)
(0.572242 0.384677 0)
(0.532323 0.393663 0)
(0.498689 0.420187 0)
(0.547086 0.684663 0)
(0.48097 0.850162 0)
(0.378079 0.909923 0)
(0.311318 0.924718 0)
(0.128942 0.723886 0)
(3 -1.37294e-16 0)
(3 5.05562e-18 0)
(3 3.84921e-17 0)
(3 -4.46776e-16 0)
(3 1.52212e-16 0)
(3 8.0778e-16 0)
(3 1.87343e-16 0)
(3 7.01853e-16 0)
(3 3.18008e-16 0)
(3 -1.52661e-16 0)
(3 -4.67227e-16 0)
(3 -5.07144e-16 0)
(3 -4.1561e-16 0)
(3 -1.61879e-16 0)
(3 -9.56013e-16 0)
(3 -8.84005e-09 0)
(2.28096 0.441365 0)
(0.897157 0.491369 0)
(0.771019 0.454371 0)
(0.74447 0.448757 0)
(0.703275 0.415465 0)
(0.647627 0.361353 0)
(0.591725 0.391919 0)
(0.568007 0.449232 0)
(0.596217 0.651815 0)
(0.585495 0.727897 0)
(0.560178 0.811959 0)
(0.431581 0.919338 0)
(0.281656 0.791121 0)
(0.19209 0.813296 0)
(3 -5.04988e-17 0)
(3 -1.8193e-16 0)
(3 -3.87916e-16 0)
(3 -3.01249e-16 0)
(3 1.5255e-16 0)
(3 6.97651e-16 0)
(3 6.88119e-16 0)
(3 5.54725e-16 0)
(3 9.62032e-16 0)
(3 8.25191e-16 0)
(3 5.19075e-16 0)
(3 3.52663e-16 0)
(3 6.4265e-16 0)
(3 2.38981e-16 0)
(3 -4.93415e-16 0)
(3 -2.63464e-09 0)
(2.83699 0.20891 0)
(1.06528 0.485478 0)
(0.833537 0.43888 0)
(0.784176 0.4225 0)
(0.738756 0.42632 0)
(0.707105 0.455247 0)
(0.683661 0.505502 0)
(0.663589 0.571209 0)
(0.636328 0.606117 0)
(0.60819 0.627885 0)
(0.583017 0.655611 0)
(0.549674 0.741976 0)
(0.553476 0.969807 0)
(0.735906 1.24521 0)
(3 -2.30277e-18 0)
(3 -4.30972e-16 0)
(3 -6.41847e-16 0)
(3 1.7451e-17 0)
(3 -1.06861e-16 0)
(3 -1.16683e-16 0)
(3 -2.14701e-16 0)
(3 -4.78324e-16 0)
(3 -4.86858e-16 0)
(3 -4.08497e-16 0)
(3 -3.75994e-16 0)
(3 1.91056e-16 0)
(3 6.84122e-16 0)
(3 6.0794e-16 0)
(3 -5.69457e-17 0)
(3 -2.60517e-10 0)
(3.03224 0.00730986 0)
(1.34594 0.466711 0)
(0.874638 0.502175 0)
(0.827269 0.510282 0)
(0.792791 0.52432 0)
(0.761926 0.53529 0)
(0.732978 0.549799 0)
(0.707929 0.568542 0)
(0.686807 0.603288 0)
(0.671426 0.663174 0)
(0.690168 0.758133 0)
(0.731458 0.886843 0)
(0.838909 1.01905 0)
(1.05116 1.19112 0)
(3 1.00867e-16 0)
(3 -2.94877e-17 0)
(3 1.12288e-16 0)
(3 -2.42117e-16 0)
(3 -2.70784e-16 0)
(3 -7.96742e-16 0)
(3 -1.00175e-15 0)
(3 -1.35561e-15 0)
(3 -2.10847e-15 0)
(3 -1.67338e-15 0)
(3 -8.80382e-16 0)
(3 3.68976e-17 0)
(3 7.08323e-16 0)
(3 1.16115e-15 0)
(3 7.74475e-16 0)
(3 -6.95466e-12 0)
(3.00064 -3.57943e-05 0)
(1.94478 0.488506 0)
(0.926672 0.57622 0)
(0.854066 0.561911 0)
(0.831585 0.570857 0)
(0.808617 0.577571 0)
(0.787244 0.592356 0)
(0.771441 0.620943 0)
(0.766049 0.665865 0)
(0.774771 0.722692 0)
(0.794334 0.799409 0)
(0.848652 0.896901 0)
(1.00179 0.989183 0)
(1.2386 1.05762 0)
(3 -8.16191e-17 0)
(3 1.64345e-16 0)
(3 6.18024e-16 0)
(3 5.39959e-16 0)
(3 2.10817e-16 0)
(3 -6.43419e-16 0)
(3 -5.34643e-16 0)
(3 -4.07734e-16 0)
(3 -3.40799e-16 0)
(3 -2.8395e-16 0)
(3 -4.83981e-16 0)
(3 -6.68956e-16 0)
(3 -3.2679e-16 0)
(3 5.22911e-16 0)
(3 7.78551e-16 0)
(3 -3.15706e-14 0)
(3 -8.61183e-07 0)
(2.90173 0.188451 0)
(1.15246 0.602807 0)
(0.92736 0.572131 0)
(0.905897 0.592912 0)
(0.888385 0.613193 0)
(0.875092 0.634823 0)
(0.864204 0.659563 0)
(0.858824 0.693178 0)
(0.867893 0.737469 0)
(0.897759 0.796007 0)
(0.973976 0.864613 0)
(1.10772 0.931736 0)
(1.2954 0.980476 0)
(3 -5.61513e-17 0)
(3 -1.29864e-16 0)
(3 -1.25012e-16 0)
(3 9.76685e-17 0)
(3 2.25287e-16 0)
(3 4.74837e-16 0)
(3 4.82658e-16 0)
(3 5.78676e-16 0)
(3 5.23046e-16 0)
(3 3.1496e-16 0)
(3 -4.50434e-16 0)
(3 -8.0097e-16 0)
(3 -7.25883e-16 0)
(3 -5.54349e-16 0)
(3 -6.24556e-17 0)
(3 4.90779e-16 0)
(3 -3.43525e-07 0)
(3.02667 0.00517067 0)
(1.5762 0.579042 0)
(0.98113 0.652313 0)
(0.937946 0.656666 0)
(0.925052 0.674568 0)
(0.920983 0.691417 0)
(0.923579 0.707744 0)
(0.933648 0.73323 0)
(0.953246 0.769606 0)
(0.993727 0.812859 0)
(1.06953 0.856999 0)
(1.181 0.893779 0)
(1.33616 0.927285 0)
(3 1.16947e-16 0)
(3 -1.05821e-16 0)
(3 -2.08666e-16 0)
(3 -3.11822e-17 0)
(3 4.84627e-16 0)
(3 6.46482e-16 0)
(3 5.50472e-16 0)
(3 3.11641e-16 0)
(3 4.40833e-16 0)
(3 2.48743e-17 0)
(3 -2.06757e-16 0)
(3 -3.06178e-16 0)
(3 -4.27067e-16 0)
(3 -2.26123e-16 0)
(3 5.81505e-17 0)
(3 6.61682e-16 0)
(3 -3.14e-08 0)
(3.00027 2.83021e-05 0)
(2.60454 0.358506 0)
(1.1467 0.699837 0)
(0.996998 0.688946 0)
(0.980174 0.692791 0)
(0.974352 0.708431 0)
(0.983641 0.724992 0)
(1.00289 0.751563 0)
(1.02987 0.778305 0)
(1.07384 0.810447 0)
(1.14221 0.845029 0)
(1.23313 0.870893 0)
(1.36319 0.890712 0)
(3 9.20655e-17 0)
(3 4.11537e-16 0)
(3 -5.04043e-18 0)
(3 -3.07978e-17 0)
(3 1.69347e-17 0)
(3 2.06052e-16 0)
(3 3.53016e-16 0)
(3 2.77008e-16 0)
(3 2.90898e-16 0)
(3 1.94476e-16 0)
(3 -3.78015e-17 0)
(3 -1.84675e-16 0)
(3 -7.18123e-16 0)
(3 -6.75299e-16 0)
(3 -1.1636e-16 0)
(3 4.02012e-16 0)
(3 -1.99658e-10 0)
(3.00001 -1.91696e-06 0)
(3.04326 0.0212457 0)
(1.63643 0.681777 0)
(1.06357 0.743306 0)
(1.04213 0.734054 0)
(1.0338 0.746703 0)
(1.04291 0.758779 0)
(1.06178 0.780387 0)
(1.09169 0.801262 0)
(1.13865 0.824606 0)
(1.20356 0.847017 0)
(1.27981 0.863923 0)
(1.38558 0.875443 0)
(3 -1.95482e-16 0)
(3 2.96883e-17 0)
(3 1.66245e-16 0)
(3 -9.37703e-17 0)
(3 9.36722e-17 0)
(3 6.51722e-16 0)
(3 2.64834e-16 0)
(3 -9.63093e-17 0)
(3 2.61531e-16 0)
(3 6.85441e-16 0)
(3 7.63293e-16 0)
(3 2.12391e-16 0)
(3 -6.48553e-16 0)
(3 -7.77789e-16 0)
(3 -8.45251e-16 0)
(3 -2.57512e-16 0)
(3 -7.2814e-14 0)
(3 -3.41095e-07 0)
(3.0011 0.000352955 0)
(2.766 0.324067 0)
(1.28836 0.770964 0)
(1.10937 0.763352 0)
(1.11102 0.759754 0)
(1.11194 0.776909 0)
(1.12654 0.794994 0)
(1.15298 0.812753 0)
(1.19609 0.829628 0)
(1.2543 0.843964 0)
(1.32159 0.853772 0)
(1.41072 0.858389 0)
(3 2.82933e-17 0)
(3 4.07458e-17 0)
(3 2.39004e-16 0)
(3 3.14473e-16 0)
(3 2.19957e-16 0)
(3 -1.56835e-16 0)
(3 -2.82176e-16 0)
(3 -1.91485e-16 0)
(3 4.09817e-17 0)
(3 4.36934e-16 0)
(3 2.86562e-16 0)
(3 -2.7536e-16 0)
(3 -3.17746e-16 0)
(3 -1.23973e-16 0)
(3 -2.47236e-16 0)
(3 -8.64615e-17 0)
(3 3.3201e-16 0)
(3 -1.74162e-08 0)
(3 3.23987e-07 0)
(3.02892 0.0116038 0)
(1.85613 0.680676 0)
(1.17303 0.808177 0)
(1.15776 0.806616 0)
(1.16612 0.809339 0)
(1.18029 0.820221 0)
(1.20611 0.831737 0)
(1.24535 0.842409 0)
(1.29731 0.850965 0)
(1.35668 0.855039 0)
(1.43501 0.854033 0)
(3 2.85735e-16 0)
(3 1.99069e-16 0)
(3 3.18792e-16 0)
(3 5.73729e-16 0)
(3 -6.92192e-17 0)
(3 -7.11653e-16 0)
(3 -6.84287e-16 0)
(3 1.88674e-16 0)
(3 1.60494e-16 0)
(3 2.89792e-17 0)
(3 -1.73477e-16 0)
(3 -1.3246e-16 0)
(3 1.09803e-16 0)
(3 -2.8897e-16 0)
(3 -2.77566e-16 0)
(3 -6.92012e-16 0)
(3 -2.19676e-16 0)
(3 -2.36963e-10 0)
(3 -2.12308e-10 0)
(3.00037 0.000196389 0)
(2.91264 0.195262 0)
(1.51799 0.812559 0)
(1.20452 0.830273 0)
(1.22162 0.825951 0)
(1.2305 0.834137 0)
(1.25585 0.839748 0)
(1.29036 0.846665 0)
(1.33711 0.851572 0)
(1.38888 0.852487 0)
(1.45672 0.850117 0)
(3 -4.85756e-17 0)
(3 -4.9508e-17 0)
(3 2.12254e-16 0)
(3 1.12151e-16 0)
(3 -1.92627e-16 0)
(3 -7.1361e-16 0)
(3 -5.80101e-16 0)
(3 -5.05641e-16 0)
(3 2.14117e-16 0)
(3 8.31027e-16 0)
(3 1.05959e-15 0)
(3 1.03104e-15 0)
(3 2.11546e-16 0)
(3 -5.42781e-16 0)
(3 -6.52503e-16 0)
(3 -4.86447e-16 0)
(3 -1.96325e-16 0)
(3 -4.39616e-13 0)
(3 -5.122e-11 0)
(3 1.14969e-07 0)
(3.00761 0.00706963 0)
(2.47812 0.524952 0)
(1.35902 0.865128 0)
(1.26036 0.857993 0)
(1.2832 0.854607 0)
(1.30362 0.856368 0)
(1.33309 0.858528 0)
(1.37263 0.85917 0)
(1.41669 0.857892 0)
(1.47478 0.854357 0)
(3 -2.54735e-17 0)
(3 -7.76797e-18 0)
(3 -4.2169e-17 0)
(3 -5.14848e-16 0)
(3 -2.23911e-16 0)
(3 3.1998e-16 0)
(3 3.20567e-17 0)
(3 1.00727e-17 0)
(3 3.69451e-16 0)
(3 9.04335e-16 0)
(3 1.13888e-15 0)
(3 9.02985e-16 0)
(3 3.46177e-16 0)
(3 3.75735e-17 0)
(3 -4.64504e-16 0)
(3 -6.62418e-16 0)
(3 -1.63084e-16 0)
(3 2.83823e-16 0)
(3 -4.1242e-12 0)
(3 -6.0171e-13 0)
(3.00003 6.81051e-05 0)
(3.01936 0.0437341 0)
(1.94263 0.73637 0)
(1.3324 0.877186 0)
(1.33054 0.878217 0)
(1.35191 0.874735 0)
(1.37615 0.872314 0)
(1.40846 0.868772 0)
(1.44585 0.864339 0)
(1.49355 0.860393 0)
(3 5.98873e-17 0)
(3 7.4346e-18 0)
(3 -9.78054e-17 0)
(3 -3.10029e-16 0)
(3 -1.00779e-16 0)
(3 1.11214e-15 0)
(3 1.07043e-15 0)
(3 6.12691e-16 0)
(3 3.53149e-16 0)
(3 5.28211e-16 0)
(3 1.27797e-15 0)
(3 1.40494e-15 0)
(3 1.07879e-15 0)
(3 -2.22339e-16 0)
(3 -9.1544e-16 0)
(3 -1.02522e-15 0)
(3 1.31963e-16 0)
(3 9.19454e-16 0)
(3 -7.08037e-14 0)
(3 -1.58374e-13 0)
(3 2.66459e-08 0)
(3.00082 0.00122253 0)
(2.89054 0.203623 0)
(1.7265 0.831678 0)
(1.38209 0.901403 0)
(1.39852 0.89494 0)
(1.41821 0.890769 0)
(1.44562 0.884648 0)
(1.47693 0.878534 0)
(1.51625 0.872982 0)
(3 -2.25927e-17 0)
(3 -1.94034e-16 0)
(3 -1.14077e-16 0)
(3 2.75998e-16 0)
(3 2.79347e-16 0)
(3 1.48584e-16 0)
(3 3.94861e-17 0)
(3 -3.29432e-16 0)
(3 -3.53027e-16 0)
(3 1.2012e-16 0)
(3 6.51642e-16 0)
(3 4.71339e-16 0)
(3 -2.89793e-16 0)
(3 -2.13294e-16 0)
(3 -3.16097e-16 0)
(3 -2.39014e-16 0)
(3 7.43921e-17 0)
(3 7.20751e-16 0)
(3 1.36127e-15 0)
(3 -8.23633e-14 0)
(3 3.01181e-12 0)
(3 1.90486e-06 0)
(3.00249 0.0099381 0)
(2.68025 0.387551 0)
(1.64282 0.885965 0)
(1.42977 0.918285 0)
(1.45795 0.908442 0)
(1.48168 0.902665 0)
(1.50954 0.894788 0)
(1.54205 0.888234 0)
(3 -3.45357e-16 0)
(3 -2.74761e-16 0)
(3 -3.47101e-17 0)
(3 5.23536e-16 0)
(3 6.02237e-16 0)
(3 6.76604e-17 0)
(3 -2.38915e-17 0)
(3 -5.70312e-17 0)
(3 -1.14386e-16 0)
(3 -3.3903e-16 0)
(3 -8.95414e-16 0)
(3 -3.33606e-16 0)
(3 1.48439e-17 0)
(3 2.39524e-16 0)
(3 -4.16753e-17 0)
(3 -3.80962e-16 0)
(3 -5.97746e-16 0)
(3 -3.44441e-16 0)
(3 6.05614e-16 0)
(3 -1.16146e-14 0)
(3 -1.56705e-14 0)
(3 3.45905e-10 0)
(3 7.45083e-05 0)
(2.99994 0.0273251 0)
(2.46119 0.541643 0)
(1.61113 0.918176 0)
(1.47705 0.925623 0)
(1.51324 0.916179 0)
(1.53972 0.909459 0)
(1.56878 0.901855 0)
(3 -8.68194e-17 0)
(3 3.11526e-16 0)
(3 2.05579e-16 0)
(3 3.0134e-16 0)
(3 4.449e-16 0)
(3 4.03958e-16 0)
(3 3.27362e-16 0)
(3 4.29837e-16 0)
(3 2.2905e-16 0)
(3 -6.28963e-16 0)
(3 -1.44967e-15 0)
(3 -1.05822e-16 0)
(3 8.60713e-16 0)
(3 8.09846e-16 0)
(3 5.67811e-16 0)
(3 -4.05677e-17 0)
(3 -5.35178e-16 0)
(3 -4.88498e-16 0)
(3 -3.75844e-17 0)
(3 -3.14285e-16 0)
(3 -3.72752e-15 0)
(3 3.45392e-14 0)
(3 3.67199e-08 0)
(3.00001 0.000476162 0)
(2.98254 0.0589526 0)
(2.29022 0.651622 0)
(1.6041 0.938461 0)
(1.52829 0.932353 0)
(1.56512 0.9227 0)
(1.59347 0.914697 0)
(3 1.84708e-16 0)
(3 3.70873e-17 0)
(3 -3.62523e-16 0)
(3 -7.43809e-16 0)
(3 -3.91458e-16 0)
(3 -2.30833e-16 0)
(3 -1.97723e-16 0)
(3 3.47408e-17 0)
(3 8.2987e-17 0)
(3 3.86019e-17 0)
(3 -6.69684e-17 0)
(3 -2.52784e-16 0)
(3 -2.06601e-16 0)
(3 -1.65423e-16 0)
(3 8.1139e-17 0)
(3 2.02891e-16 0)
(3 1.79962e-16 0)
(3 1.90541e-16 0)
(3 3.53901e-16 0)
(3 7.80329e-16 0)
(3 3.38756e-17 0)
(3 -6.73123e-16 0)
(3 7.60541e-12 0)
(3 4.43598e-07 0)
(2.99995 0.00167653 0)
(2.94549 0.109144 0)
(2.18109 0.720078 0)
(1.62868 0.945582 0)
(1.58219 0.94485 0)
(1.61458 0.930876 0)
(3 4.67524e-17 0)
(3 -4.69747e-17 0)
(3 -2.38445e-16 0)
(3 -4.7348e-16 0)
(3 -5.24336e-16 0)
(3 -4.16946e-16 0)
(3 -4.94847e-16 0)
(3 -4.86317e-16 0)
(3 -1.98276e-16 0)
(3 5.1745e-16 0)
(3 8.64334e-16 0)
(3 4.28779e-16 0)
(3 -5.74131e-16 0)
(3 -9.04587e-16 0)
(3 -5.8155e-17 0)
(3 7.09289e-16 0)
(3 9.01514e-16 0)
(3 4.34488e-16 0)
(3 8.34162e-17 0)
(3 9.76389e-17 0)
(3 2.26571e-16 0)
(3 -6.62649e-17 0)
(3 6.35082e-16 0)
(3 1.51641e-10 0)
(3 2.95949e-06 0)
(2.99953 0.00416811 0)
(2.8958 0.166236 0)
(2.13044 0.754849 0)
(1.67403 0.955301 0)
(1.63116 0.954519 0)
(3 -1.91765e-17 0)
(3 2.86613e-16 0)
(3 4.3353e-16 0)
(3 9.73291e-17 0)
(3 -1.02806e-16 0)
(3 -3.82921e-16 0)
(3 -4.88882e-16 0)
(3 -7.0992e-16 0)
(3 -5.73526e-16 0)
(3 -3.38795e-16 0)
(3 2.97314e-16 0)
(3 3.03272e-16 0)
(3 -2.65691e-16 0)
(3 -1.23217e-16 0)
(3 3.02122e-16 0)
(3 6.54352e-16 0)
(3 8.09394e-16 0)
(3 5.41333e-16 0)
(3 -9.56715e-18 0)
(3 -2.51775e-16 0)
(3 3.98276e-16 0)
(3 9.61225e-16 0)
(3 8.19181e-16 0)
(3 1.08332e-14 0)
(3 1.44722e-09 0)
(3 1.31396e-05 0)
(2.99843 0.00764593 0)
(2.84995 0.209984 0)
(2.13632 0.778575 0)
(1.70234 0.952597 0)
(3 -2.37539e-16 0)
(3 -2.48757e-16 0)
(3 5.40057e-17 0)
(3 1.81616e-16 0)
(3 -2.05187e-16 0)