/*--------------------------------*- C++ -*----------------------------------*\
  =========                 |
  \\      /  F ield         | OpenFOAM: The Open Source CFD Toolbox
   \\    /   O peration     | Website:  https://openfoam.org
    \\  /    A nd           | Version:  6.0
     \\/     M anipulation  |
\*---------------------------------------------------------------------------*/
FoamFile
{
    version     2.0;
    format      ascii;
    class       volScalarField;
    location    "2";
    object      p;
}
// * * * * * * * * * * * * * * * * * * * * * * * * * * * * * * * * * * * * * //

dimensions      [1 -1 -2 0 0 0 0];

internalField   nonuniform List<scalar> 
24000
(
0.704416
0.583922
0.535374
0.502705
0.480374
0.479988
0.482335
0.492532
0.523654
0.608287
0.837323
1.50631
3.31898
3.72956
3.75182
3.74445
3.76296
3.86907
4.21467
5.17358
0.704415
0.583922
0.535374
0.502704
0.480371
0.47998
0.482326
0.492518
0.523628
0.60823
0.837194
1.50605
3.31911
3.7296
3.75221
3.74444
3.76307
3.86936
4.21493
5.17289
0.704414
0.583922
0.535372
0.502704
0.480365
0.479963
0.482306
0.492487
0.523569
0.608099
0.836884
1.50532
3.31838
3.72928
3.75237
3.74407
3.76287
3.86968
4.2159
5.1729
0.704413
0.583922
0.53537
0.502703
0.480355
0.479936
0.482274
0.492438
0.523471
0.607879
0.836345
1.50397
3.31612
3.72859
3.75211
3.74318
3.76219
3.86982
4.21741
5.1729
0.70441
0.583921
0.535368
0.502702
0.480342
0.479896
0.482228
0.492366
0.523328
0.60755
0.835522
1.50181
3.31162
3.72714
3.75119
3.74164
3.7609
3.86957
4.21913
5.17292
0.704407
0.583921
0.535364
0.5027
0.480323
0.479843
0.482165
0.492268
0.52313
0.607093
0.834356
1.49866
3.3042
3.72457
3.74939
3.73932
3.75887
3.86878
4.2207
5.17294
0.704402
0.58392
0.535359
0.502698
0.480299
0.479773
0.482084
0.49214
0.52287
0.606484
0.832785
1.49431
3.2932
3.72059
3.74647
3.73604
3.75598
3.86721
4.22164
5.17282
0.704396
0.58392
0.535353
0.502695
0.48027
0.479685
0.48198
0.491977
0.522537
0.605701
0.830748
1.48856
3.27805
3.71484
3.74212
3.73158
3.75196
3.86457
4.22153
5.1725
0.704388
0.583919
0.535346
0.502692
0.480233
0.479577
0.481853
0.491775
0.522124
0.604722
0.828182
1.48123
3.25822
3.70703
3.73614
3.72572
3.74663
3.86058
4.21989
5.17151
0.704379
0.583919
0.535338
0.502688
0.48019
0.479445
0.481697
0.491529
0.521618
0.603523
0.825024
1.47211
3.23318
3.69698
3.72816
3.7182
3.73962
3.85479
4.21594
5.169
0.704368
0.583918
0.535328
0.502682
0.480138
0.479287
0.481512
0.491234
0.52101
0.602076
0.821204
1.46103
3.20245
3.68471
3.71787
3.70856
3.73053
3.84675
4.20878
5.16335
0.704354
0.583917
0.535316
0.502677
0.480077
0.4791
0.481291
0.490883
0.520286
0.600352
0.816644
1.4477
3.16552
3.67013
3.70496
3.69644
3.71893
3.83582
4.19739
5.15232
0.704337
0.583917
0.535303
0.502671
0.480008
0.478881
0.481032
0.490469
0.519432
0.598317
0.811258
1.43186
3.12169
3.65281
3.68921
3.68154
3.7044
3.82131
4.18048
5.13388
0.704317
0.583918
0.535288
0.502665
0.479928
0.478623
0.480727
0.489984
0.51843
0.595932
0.804954
1.41328
3.0702
3.63251
3.67033
3.66352
3.68654
3.80243
4.15615
5.10364
0.704293
0.583921
0.535272
0.502663
0.479834
0.478319
0.480369
0.489414
0.517258
0.593152
0.797628
1.39169
3.01013
3.60907
3.64799
3.64197
3.66472
3.77805
4.12235
5.05738
0.704267
0.583928
0.535252
0.502668
0.479721
0.477959
0.479945
0.488744
0.515892
0.58993
0.789172
1.3668
2.94042
3.58259
3.62198
3.61653
3.63842
3.74695
4.07586
4.98832
0.704241
0.583938
0.535227
0.502685
0.479574
0.477528
0.47944
0.487957
0.514304
0.586208
0.779428
1.33808
2.85984
3.55334
3.59181
3.58635
3.60632
3.70669
4.01165
4.88589
0.704235
0.583932
0.535198
0.502712
0.479379
0.47703
0.478853
0.48704
0.512467
0.581917
0.768212
1.30515
2.76624
3.52173
3.5574
3.55096
3.56772
3.65527
3.92394
4.73399
0.704245
0.583911
0.535165
0.502741
0.479147
0.476452
0.478172
0.485981
0.510344
0.576956
0.755239
1.26709
2.65648
3.48808
3.51764
3.5089
3.51909
3.58509
3.79911
4.50371
0.704262
0.583883
0.535132
0.502759
0.478883
0.475799
0.477401
0.484771
0.507896
0.571198
0.740115
1.22253
2.5268
3.4505
3.47501
3.46289
3.46218
3.49694
3.6263
4.14011
1.048
1.03908
1.01577
0.980491
0.960269
0.962114
0.971945
1.00309
1.08617
1.29706
1.84662
3.4229
7.82928
8.24661
8.17959
8.01076
8.06012
8.31743
9.03037
10.7459
1.04799
1.03908
1.01577
0.980489
0.960261
0.962104
0.971928
1.00306
1.0861
1.2969
1.84624
3.42186
7.82742
8.24371
8.17629
8.00765
8.05763
8.31565
9.02686
10.7437
1.04799
1.03908
1.01577
0.980485
0.960244
0.962082
0.971893
1.00299
1.08596
1.29657
1.84542
3.41959
7.82202
8.23733
8.1693
8.0009
8.05194
8.31156
9.02152
10.733
1.04799
1.03907
1.01576
0.98048
0.960218
0.962048
0.971837
1.00288
1.08573
1.29603
1.84408
3.41576
7.81172
8.2276
8.15878
7.9905
8.04305
8.30469
9.01396
10.7147
1.04799
1.03907
1.01576
0.980473
0.960181
0.962
0.971757
1.00273
1.08539
1.29526
1.8421
3.40999
7.79509
8.21385
8.14438
7.97656
8.03073
8.29441
9.00293
10.6893
1.04798
1.03906
1.01575
0.980463
0.960131
0.961935
0.971649
1.00252
1.08494
1.2942
1.83937
3.40191
7.77085
8.19556
8.12581
7.959
8.01474
8.28017
8.98714
10.6568
1.04798
1.03906
1.01573
0.980451
0.960067
0.961852
0.97151
1.00224
1.08435
1.2928
1.83576
3.39112
7.73784
8.17226
8.10272
7.93762
7.9948
8.26155
8.96523
10.6177
1.04797
1.03905
1.01572
0.980435
0.959986
0.961747
0.971335
1.0019
1.0836
1.29103
1.83115
3.37725
7.69501
8.14345
8.07477
7.91223
7.97068
8.23828
8.93604
10.5703
1.04796
1.03904
1.0157
0.980417
0.959888
0.961618
0.971119
1.00147
1.08267
1.28883
1.8254
3.35992
7.64137
8.10868
8.04157
7.88247
7.94203
8.21011
8.89806
10.5141
1.04795
1.03902
1.01568
0.980395
0.959768
0.961462
0.970858
1.00096
1.08154
1.28615
1.81839
3.33875
7.57595
8.06759
8.00266
7.84802
7.90818
8.17592
8.85109
10.4476
1.04793
1.03901
1.01565
0.98037
0.959626
0.961276
0.970546
1.00034
1.08018
1.28294
1.80998
3.31334
7.49781
8.01977
7.95769
7.80806
7.86856
8.13473
8.79375
10.3687
1.04791
1.03899
1.01562
0.980341
0.95946
0.961057
0.970177
0.999608
1.07858
1.27913
1.8
3.28328
7.40596
7.96485
7.90624
7.76224
7.82244
8.08519
8.7241
10.2743
1.04789
1.03897
1.01558
0.980308
0.959265
0.960801
0.969745
0.998749
1.07669
1.27465
1.7883
3.24811
7.29931
7.9025
7.84797
7.71012
7.76918
8.02598
8.6398
10.1596
1.04787
1.03894
1.01554
0.980274
0.95904
0.960504
0.96924
0.997743
1.07449
1.26942
1.77468
3.20735
7.17659
7.83254
7.78254
7.6513
7.70803
7.95555
8.53791
10.0185
1.04784
1.03892
1.0155
0.980241
0.958779
0.960156
0.968646
0.996563
1.07191
1.26335
1.75892
3.16044
7.03634
7.755
7.71002
7.58536
7.63828
7.87188
8.41421
9.84176
1.04782
1.03889
1.01546
0.980219
0.958463
0.959737
0.967937
0.99517
1.06891
1.25632
1.74081
3.10674
6.87668
7.67016
7.63057
7.51169
7.55869
7.77229
8.26326
9.61796
1.04779
1.03887
1.01542
0.980241
0.958022
0.959184
0.967068
0.993541
1.06545
1.24827
1.72005
3.04543
6.69516
7.57878
7.54477
7.43033
7.46878
7.6539
8.07759
9.32768
1.04778
1.03885
1.01539
0.980282
0.957443
0.958483
0.966025
0.991655
1.0615
1.23905
1.69629
2.97522
6.48834
7.48253
7.4536
7.34057
7.36647
7.51163
7.84677
8.94699
1.04777
1.03883
1.01535
0.980326
0.956752
0.957656
0.964813
0.98949
1.05698
1.22851
1.66905
2.89472
6.25115
7.38413
7.35857
7.24263
7.24915
7.34001
7.5582
8.43081
1.04776
1.03881
1.01529
0.980337
0.955996
0.956744
0.963462
0.987049
1.05184
1.21648
1.63785
2.80184
5.97588
7.28697
7.26211
7.14574
7.10451
7.13484
7.19695
7.71103
1.07513
1.13295
1.14837
1.14696
1.14736
1.15278
1.17153
1.22129
1.34327
1.64107
2.40754
4.63471
11.2256
11.2646
10.9107
10.5033
10.5743
10.9108
11.7058
13.2793
1.07513
1.13295
1.14837
1.14696
1.14736
1.15277
1.17151
1.22125
1.34318
1.64087
2.40705
4.63329
11.2219
11.2585
10.9019
10.4974
10.57
10.9088
11.6996
13.2699
1.07513
1.13295
1.14836
1.14695
1.14734
1.15275
1.17147
1.22117
1.34301
1.64047
2.40603
4.63023
11.2122
11.2449
10.8843
10.4844
10.5597
10.9024
11.6885
13.2444
1.07513
1.13295
1.14835
1.14694
1.14733
1.15272
1.17141
1.22104
1.34273
1.63981
2.40438
4.62516
11.1943
11.2237
10.8591
10.4648
10.5432
10.8904
11.6709
13.2039
1.07513
1.13295
1.14834
1.14692
1.1473
1.15268
1.17133
1.22086
1.34233
1.63887
2.40195
4.61764
11.1668
11.1947
10.8265
10.4387
10.5204
10.8718
11.6447
13.1498
1.07512
1.13294
1.14832
1.1469
1.14727
1.15262
1.17121
1.22062
1.34178
1.63758
2.39862
4.60719
11.1282
11.1573
10.7865
10.406
10.4908
10.8461
11.6077
13.0824
1.07512
1.13294
1.1483
1.14687
1.14723
1.15255
1.17107
1.2203
1.34107
1.6359
2.39423
4.59335
11.0771
11.1111
10.7391
10.3665
10.4544
10.8127
11.5584
13.0024
1.07511
1.13293
1.14827
1.14683
1.14717
1.15245
1.17088
1.2199
1.34017
1.63375
2.38863
4.57566
11.0125
11.0557
10.6842
10.32
10.4108
10.7721
11.4955
12.9085
1.07511
1.13293
1.14823
1.14678
1.14711
1.15234
1.17065
1.21941
1.33906
1.6311
2.38166
4.55365
10.9332
10.9906
10.6216
10.2664
10.3598
10.7244
11.416
12.7995
1.0751
1.13292
1.14819
1.14673
1.14703
1.1522
1.17037
1.21881
1.33771
1.62786
2.37315
4.52687
10.8383
10.9154
10.5511
10.2053
10.3007
10.6671
11.3221
12.6736
1.07509
1.13291
1.14814
1.14666
1.14694
1.15204
1.17004
1.2181
1.33609
1.62398
2.36294
4.49483
10.7268
10.8296
10.4725
10.1362
10.2326
10.5984
11.2124
12.529
1.07508
1.1329
1.14808
1.14659
1.14683
1.15184
1.16965
1.21725
1.33417
1.61938
2.35085
4.45708
10.5979
10.7329
10.3858
10.0589
10.1552
10.5165
11.0855
12.3627
1.07507
1.13289
1.14802
1.1465
1.14671
1.15162
1.16919
1.21626
1.33192
1.61398
2.33669
4.41313
10.4504
10.6251
10.2909
9.97318
10.0676
10.4197
10.9393
12.1697
1.07506
1.13287
1.14794
1.14641
1.14656
1.15136
1.16866
1.2151
1.32929
1.60769
2.32024
4.36242
10.2831
10.506
10.1879
9.87892
9.96954
10.3061
10.7712
11.9435
1.07504
1.13286
1.14786
1.1463
1.14641
1.15106
1.16804
1.21374
1.32622
1.60039
2.30123
4.30433
10.0948
10.3758
10.0776
9.77627
9.86048
10.1735
10.5767
11.6747
1.07503
1.13284
1.14778
1.14619
1.14622
1.1507
1.16728
1.21213
1.32263
1.59195
2.27938
4.23814
9.88392
10.235
9.96115
9.66519
9.73985
10.0198
10.351
11.3518
1.07502
1.13283
1.14774
1.14616
1.14583
1.15017
1.16636
1.21027
1.31854
1.58231
2.25442
4.16292
9.64816
10.0849
9.84109
9.54718
9.60782
9.84057
10.0871
10.9561
1.07501
1.13282
1.14772
1.14617
1.14523
1.14945
1.16525
1.20813
1.31389
1.57134
2.22597
4.07734
9.38412
9.92793
9.72027
9.42296
9.46317
9.63198
9.77737
10.4663
1.07499
1.13281
1.14771
1.14619
1.14449
1.14859
1.16396
1.2057
1.30863
1.55888
2.19358
3.98003
9.08643
9.77125
9.60319
9.29756
9.30418
9.39055
9.41066
9.84063
1.07498
1.13281
1.14766
1.14616
1.14371
1.14766
1.16254
1.20298
1.3027
1.54481
2.15684
3.86917
8.74351
9.62932
9.48741
9.18672
9.11766
9.11615
8.97102
9.02005
1.04239
1.10632
1.14097
1.16009
1.17619
1.19021
1.2198
1.28527
1.43491
1.79078
2.70327
5.40873
13.8867
13.4803
12.5495
11.9781
12.0539
12.4133
13.0599
14.0933
1.04239
1.10632
1.14097
1.16008
1.17619
1.1902
1.21978
1.28524
1.43483
1.7906
2.70284
5.40737
13.8815
13.4705
12.5355
11.9694
12.0487
12.411
13.052
14.0788
1.04239
1.10632
1.14096
1.16008
1.17618
1.19019
1.21974
1.28516
1.43466
1.79022
2.7019
5.40437
13.8678
13.4495
12.5073
11.95
12.0347
12.4029
13.0349
14.0415
1.04239
1.10632
1.14096
1.16007
1.17617
1.19016
1.21969
1.28505
1.4344
1.78961
2.70035
5.39933
13.8434
13.4176
12.4672
11.9209
12.0112
12.3876
13.0056
13.9837
1.04239
1.10632
1.14095
1.16005
1.17615
1.19013
1.21962
1.28488
1.43403
1.78873
2.69807
5.39178
13.8069
13.3745
12.4163
11.8825
11.9788
12.3639
12.9613
13.9089
1.04239
1.10632
1.14094
1.16003
1.17613
1.19008
1.21951
1.28465
1.43351
1.7875
2.6949
5.38123
13.7567
13.3198
12.3555
11.8349
11.9371
12.331
12.901
13.8182
1.04239
1.10632
1.14092
1.16
1.17611
1.19002
1.21938
1.28436
1.43284
1.78589
2.69068
5.36716
13.6918
13.253
12.2851
11.7782
11.8859
12.2877
12.824
13.7119
1.04239
1.10631
1.1409
1.15996
1.17607
1.18994
1.21921
1.28398
1.43198
1.78383
2.68526
5.34906
13.611
13.1739
12.2056
11.7124
11.825
12.2337
12.7303
13.5896
1.04238
1.10631
1.14088
1.15992
1.17603
1.18985
1.219
1.28351
1.43091
1.78126
2.67846
5.32645
13.5134
13.0821
12.117
11.6375
11.7542
12.1682
12.6191
13.45
1.04238
1.10631
1.14086
1.15987
1.17599
1.18974
1.21875
1.28295
1.4296
1.77811
2.67012
5.29881
13.3983
12.9772
12.0197
11.5535
11.673
12.0896
12.491
13.2913
1.04238
1.1063
1.14083
1.15981
1.17593
1.18961
1.21845
1.28226
1.42803
1.77432
2.66006
5.26566
13.2651
12.8588
11.914
11.4601
11.581
11.9959
12.3453
13.1115
1.04237
1.1063
1.14079
1.15974
1.17587
1.18945
1.21809
1.28146
1.42616
1.76982
2.64811
5.22663
13.1131
12.7262
11.8002
11.3577
11.4779
11.8856
12.1816
12.9075
1.04236
1.10629
1.14075
1.15966
1.1758
1.18927
1.21767
1.28051
1.42397
1.76453
2.6341
5.18125
12.9414
12.5793
11.679
11.2459
11.3633
11.7567
11.9987
12.675
1.04236
1.10628
1.14071
1.15957
1.17573
1.18907
1.21719
1.2794
1.42141
1.75836
2.61781
5.129
12.7493
12.418
11.551
11.1256
11.2374
11.6078
11.7948
12.4087
1.04235
1.10628
1.14066
1.15947
1.17565
1.18883
1.21663
1.27811
1.41843
1.7512
2.59899
5.06932
12.536
12.2424
11.4177
10.9973
11.0999
11.4365
11.5652
12.1002
1.04234
1.10627
1.14061
1.15939
1.17555
1.18854
1.21595
1.27658
1.41495
1.74294
2.57738
5.00149
12.3006
12.0528
11.2815
10.8622
10.9514
11.2419
11.3064
11.7407
1.04234
1.10627
1.14057
1.15935
1.17534
1.18813
1.21511
1.2748
1.41097
1.73348
2.55271
4.92466
12.0416
11.8499
11.1468
10.7224
10.7922
11.0188
11.0124
11.3134
1.04233
1.10627
1.14055
1.15936
1.175
1.18759
1.21411
1.27274
1.40644
1.72274
2.52461
4.83774
11.7567
11.6358
11.019
10.5811
10.622
10.7642
10.677
10.8023
1.04232
1.10627
1.14052
1.15938
1.17459
1.18693
1.21294
1.27041
1.40131
1.71057
2.49273
4.73938
11.4413
11.4184
10.9042
10.4451
10.4378
10.4785
10.2884
10.1649
1.04231
1.10628
1.14047
1.15935
1.17414
1.18622
1.21167
1.26782
1.39557
1.69687
2.45669
4.62788
11.079
11.2318
10.7938
10.3268
10.2331
10.1712
9.82673
9.33571
1.01507
1.0557
1.09243
1.11941
1.14301
1.16091
1.19688
1.27246
1.43965
1.83196
2.83852
5.88994
16.0067
15.0964
13.5689
12.812
12.8701
13.1625
13.6086
14.1168
1.01507
1.0557
1.09243
1.11941
1.143
1.16091
1.19687
1.27244
1.43959
1.83183
2.83821
5.88897
16.0001
15.0827
13.5518
12.8006
12.8646
13.1609
13.6005
14.098
1.01507
1.0557
1.09243
1.11941
1.143
1.1609
1.19685
1.27238
1.43946
1.83154
2.83752
5.88669
15.983
15.0546
13.516
12.775
12.8473
13.1532
13.5788
14.0512
1.01507
1.0557
1.09243
1.1194
1.14299
1.16088
1.1968
1.27229
1.43926
1.83107
2.83634
5.88264
15.9533
15.0129
13.4648
12.7367
12.8168
13.1378
13.5383
13.9817
1.01507
1.0557
1.09243
1.11939
1.14298
1.16085
1.19674
1.27215
1.43896
1.83036
2.83454
5.87632
15.9096
14.9577
13.4002
12.687
12.7749
13.1134
13.4783
13.8973
1.01507
1.0557
1.09243
1.11937
1.14297
1.16082
1.19666
1.27197
1.43854
1.82937
2.83198
5.86722
15.8506
14.8887
13.3231
12.6261
12.7218
13.078
13.3996
13.7978
1.01507
1.05569
1.09242
1.11935
1.14296
1.16077
1.19656
1.27172
1.43798
1.82804
2.8285
5.85478
15.7751
14.8061
13.2346
12.5543
12.6575
13.03
13.3036
13.6832
1.01507
1.05569
1.09242
1.11933
1.14294
1.16072
1.19642
1.27141
1.43725
1.82631
2.82394
5.83843
15.6821
14.7101
13.1349
12.4721
12.5818
12.9675
13.1909
13.553
1.01506
1.05569
1.09241
1.1193
1.14292
1.16065
1.19625
1.27101
1.43634
1.82412
2.81813
5.81764
15.5711
14.6006
13.0245
12.3801
12.4948
12.8899
13.0627
13.4064
1.01506
1.05569
1.0924
1.11926
1.14289
1.16056
1.19604
1.27053
1.43522
1.82141
2.81091
5.79197
15.4414
14.4772
12.9043
12.2785
12.3962
12.7958
12.9182
13.2414
1.01506
1.05569
1.0924
1.11922
1.14286
1.16046
1.19579
1.26994
1.43386
1.81812
2.80213
5.76098
15.2929
14.3396
12.7749
12.1675
12.2864
12.6836
12.7585
13.056
1.01506
1.05568
1.09239
1.11917
1.14283
1.16034
1.19549
1.26924
1.43224
1.8142
2.79163
5.72435
15.1251
14.187
12.6374
12.0475
12.1651
12.5524
12.5822
12.8476
1.01506
1.05568
1.09238
1.11911
1.14279
1.16021
1.19514
1.26842
1.43032
1.80956
2.77922
5.68164
14.9375
14.0197
12.4926
11.9189
12.0327
12.4006
12.3894
12.612
1.01506
1.05568
1.09237
1.11904
1.14276
1.16006
1.19474
1.26746
1.42808
1.80414
2.76474
5.63242
14.7297
13.8376
12.3417
11.7828
11.8895
12.2272
12.1781
12.3445
1.01505
1.05568
1.09235
1.11898
1.14272
1.15988
1.19427
1.26634
1.42547
1.79783
2.74797
5.57621
14.5011
13.6407
12.1866
11.6403
11.7358
12.0304
11.9437
12.0384
1.01505
1.05568
1.09234
1.11892
1.14267
1.15967
1.19371
1.26503
1.42244
1.79055
2.72868
5.51239
14.2512
13.4293
12.0305
11.4935
11.5725
11.8101
11.6822
11.6856
1.01505
1.05568
1.09232
1.11889
1.14259
1.15939
1.19304
1.2635
1.41894
1.78219
2.7066
5.44017
13.9794
13.204
11.8779
11.3449
11.3996
11.5623
11.3886
11.2694
1.01505
1.05568
1.0923
1.11889
1.14246
1.15904
1.19224
1.26173
1.41495
1.77266
2.6814
5.35854
13.684
12.9672
11.7355
11.199
11.2162
11.2877
11.0542
10.7717
1.01504
1.05569
1.09227
1.11889
1.14228
1.15863
1.19132
1.25972
1.41043
1.76184
2.65274
5.26631
13.3616
12.7252
11.6091
11.0628
11.0177
10.9885
10.6631
10.1514
1.01503
1.0557
1.09223
1.11887
1.14208
1.15819
1.19031
1.25748
1.40533
1.74962
2.62024
5.16205
13.0015
12.4972
11.5052
10.9384
10.8049
10.6678
10.1932
9.34164
1.00391
1.02015
1.04467
1.06832
1.09206
1.1112
1.14966
1.23008
1.40659
1.81845
2.87933
6.17017
17.6919
16.2438
14.2087
13.2413
13.2429
13.4259
13.6934
13.8948
1.00391
1.02015
1.04467
1.06832
1.09206
1.1112
1.14965
1.23006
1.40655
1.81837
2.87915
6.16977
17.6836
16.2275
14.1901
13.2274
13.2361
13.4267
13.6846
13.8747
1.00391
1.02015
1.04467
1.06832
1.09206
1.11119
1.14963
1.23002
1.40647
1.81818
2.87873
6.16857
17.6634
16.1938
14.1501
13.1957
13.2139
13.4219
13.657
13.8259
1.00391
1.02015
1.04467
1.06831
1.09206
1.11118
1.1496
1.22996
1.40633
1.81786
2.87796
6.16605
17.6292
16.1445
14.0923
13.1487
13.1756
13.4085
13.607
13.7544
1.00391
1.02015
1.04467
1.06831
1.09205
1.11117
1.14956
1.22986
1.40611
1.81736
2.87674
6.1617
17.5798
16.0798
14.0191
13.0882
13.1249
13.3845
13.5385
13.6693
1.00391
1.02015
1.04467
1.0683
1.09205
1.11114
1.14951
1.22973
1.4058
1.81663
2.8749
6.15498
17.5142
15.9998
13.9321
13.0153
13.0624
13.3468
13.4528
13.5716
1.00391
1.02015
1.04467
1.06829
1.09204
1.11111
1.14943
1.22955
1.40538
1.81563
2.87231
6.14528
17.431
15.9054
13.832
12.9302
12.9885
13.2938
13.3527
13.4605
1.00391
1.02014
1.04467
1.06827
1.09203
1.11107
1.14933
1.22931
1.40482
1.81428
2.86879
6.13192
17.3294
15.7978
13.7192
12.8343
12.9031
13.2234
13.2377
13.3359
1.00391
1.02014
1.04468
1.06826
1.09202
1.11103
1.1492
1.229
1.4041
1.81254
2.86421
6.11438
17.2088
15.6771
13.5946
12.7288
12.806
13.136
13.1104
13.197
1.00391
1.02014
1.04468
1.06824
1.09201
1.11097
1.14904
1.22861
1.40319
1.81036
2.85842
6.09224
17.0692
15.543
13.4591
12.6144
12.6964
13.03
12.9686
13.0424
1.00391
1.02014
1.04468
1.06821
1.09199
1.1109
1.14884
1.22814
1.40209
1.80767
2.85127
6.0651
16.9102
15.3952
13.3138
12.4915
12.5763
12.905
12.8142
12.8693
1.00391
1.02014
1.04468
1.06818
1.09198
1.11081
1.14861
1.22758
1.40076
1.80444
2.84262
6.03261
16.732
15.2336
13.16
12.3606
12.4452
12.7602
12.6443
12.6766
1.00391
1.02014
1.04469
1.06815
1.09196
1.11071
1.14834
1.22692
1.39918
1.80059
2.83227
5.99442
16.5341
15.0579
12.9988
12.2225
12.3041
12.595
12.4587
12.4584
1.00391
1.02014
1.04469
1.06811
1.09195
1.1106
1.14802
1.22613
1.39732
1.79606
2.82011
5.95012
16.3164
14.8683
12.8319
12.0785
12.1533
12.4093
12.255
12.2121
1.00391
1.02014
1.04469
1.06807
1.09194
1.11047
1.14764
1.22522
1.39516
1.79079
2.80597
5.89936
16.0786
14.6643
12.6616
11.9303
11.9934
12.2014
12.0289
11.93
1.00391
1.02014
1.0447
1.06804
1.09192
1.11033
1.14721
1.22416
1.39265
1.78469
2.78967
5.84166
15.8206
14.4459
12.4916
11.78
11.8248
11.9722
11.7756
11.6028
1.00391
1.02014
1.04469
1.06802
1.0919
1.11015
1.1467
1.22293
1.38974
1.77765
2.7709
5.77607
15.5416
14.2143
12.3263
11.6309
11.6463
11.7193
11.4886
11.2133
1.00391
1.02014
1.04468
1.068
1.09187
1.10993
1.14611
1.2215
1.38641
1.76958
2.74934
5.7016
15.2406
13.972
12.1725
11.4876
11.456
11.4461
11.1554
10.7392
1.00391
1.02014
1.04466
1.06799
1.09183
1.10968
1.14543
1.21988
1.3826
1.76036
2.72464
5.61718
14.9146
13.7246
12.0367
11.3534
11.2529
11.151
10.7597
10.1381
1.00391
1.02014
1.04465
1.06797
1.09177
1.10941
1.14468
1.21806
1.37831
1.7499
2.69644
5.52164
14.5558
13.4852
11.9291
11.2242
11.0348
10.8276
10.2864
9.33807
1.00094
1.00523
1.01471
1.02985
1.04843
1.06731
1.10557
1.18623
1.36449
1.78327
2.87025
6.31308
18.9994
17.0335
14.5948
13.4253
13.3184
13.4262
13.56
13.6459
1.00094
1.00523
1.01471
1.02985
1.04843
1.06731
1.10557
1.18622
1.36447
1.78323
2.87017
6.31331
18.9897
17.0153
14.576
13.4089
13.3094
13.4262
13.5514
13.6299
1.00094
1.00523
1.01471
1.02985
1.04842
1.06731
1.10556
1.1862
1.36442
1.78312
2.86997
6.31328
18.9669
16.9776
14.5348
13.3711
13.2823
13.4183
13.5234
13.5878
1.00094
1.00523
1.01471
1.02985
1.04842
1.0673
1.10554
1.18616
1.36434
1.78293
2.86955
6.31245
18.9291
16.9226
14.4745
13.3153
13.2382
13.3992
13.4732
13.5253
1.00094
1.00524
1.01471
1.02985
1.04842
1.06729
1.10552
1.1861
1.3642
1.78262
2.86879
6.31029
18.8753
16.8513
14.398
13.2449
13.1821
13.3682
13.4073
13.4514
1.00094
1.00524
1.01471
1.02984
1.04842
1.06728
1.10548
1.18601
1.36399
1.78213
2.86757
6.30618
18.8045
16.7639
14.3066
13.1608
13.1155
13.3219
13.3264
13.3672
1.00094
1.00524
1.01471
1.02984
1.04842
1.06726
1.10543
1.18588
1.36369
1.78141
2.86573
6.29948
18.7156
16.6621
14.201
13.0642
13.0386
13.2601
13.2339
13.2707
1.00094
1.00524
1.01471
1.02983
1.04841
1.06723
1.10535
1.18571
1.36328
1.78042
2.86313
6.28954
18.6079
16.5471
14.0818
12.9571
12.9508
13.1795
13.1276
13.163
1.00094
1.00524
1.01471
1.02983
1.04841
1.0672
1.10526
1.18548
1.36273
1.7791
2.85962
6.27584
18.4813
16.4193
13.95
12.8414
12.8513
13.0837
13.0108
13.0421
1.00094
1.00524
1.01472
1.02982
1.0484
1.06716
1.10514
1.18518
1.36204
1.7774
2.85506
6.25793
18.3356
16.2787
13.8066
12.7183
12.7389
12.9701
12.88
12.9079
1.00094
1.00524
1.01472
1.02981
1.04839
1.0671
1.10499
1.18482
1.36117
1.77528
2.84933
6.2354
18.1706
16.1254
13.6532
12.5879
12.6165
12.8398
12.7362
12.7556
1.00094
1.00524
1.01472
1.02979
1.04839
1.06704
1.10481
1.18437
1.36011
1.77268
2.84229
6.20786
17.9865
15.9594
13.4909
12.4511
12.4838
12.6922
12.5774
12.5866
1.00094
1.00524
1.01472
1.02978
1.04838
1.06697
1.10459
1.18384
1.35885
1.76955
2.83382
6.17495
17.7832
15.7806
13.3211
12.3088
12.3418
12.5268
12.4013
12.3926
1.00094
1.00524
1.01473
1.02976
1.04837
1.06688
1.10434
1.18321
1.35734
1.76585
2.82377
6.13629
17.5606
15.5888
13.1455
12.1627
12.1906
12.3432
12.2061
12.172
1.00094
1.00524
1.01473
1.02974
1.04836
1.06678
1.10404
1.18248
1.35558
1.7615
2.81202
6.09146
17.3186
15.3834
12.967
12.0143
12.0306
12.14
11.9869
11.9158
1.00094
1.00524
1.01473
1.02972
1.04836
1.06666
1.10369
1.18162
1.35353
1.75647
2.79849
6.0403
17.0575
15.1635
12.7894
11.8661
11.8611
11.9176
11.738
11.6134
1.00094
1.00524
1.01473
1.02971
1.04835
1.06653
1.10329
1.18062
1.35115
1.75064
2.7828
5.98154
16.776
14.932
12.6169
11.7219
11.6802
11.6761
11.4503
11.2467
1.00094
1.00524
1.01472
1.02969
1.04834
1.06638
1.10283
1.17947
1.34841
1.7439
2.76461
5.91408
16.4725
14.6926
12.4556
11.5833
11.4899
11.4151
11.1102
10.7881
1.00094
1.00524
1.01472
1.02968
1.04834
1.0662
1.1023
1.17816
1.34525
1.73613
2.74357
5.83691
16.1445
14.4499
12.3128
11.4508
11.2864
11.1283
10.7107
10.1952
1.00094
1.00524
1.01472
1.02966
1.04832
1.066
1.1017
1.17667
1.34168
1.72728
2.7193
5.74897
15.7842
14.2194
12.1968
11.3191
11.0647
10.8066
10.2343
9.38247
1.0002
1.00111
1.00356
1.00936
1.0212
1.03885
1.07524
1.15349
1.32912
1.74661
2.84061
6.36943
19.9634
17.5495
14.8153
13.4702
13.2377
13.2824
13.3665
13.4747
1.0002
1.00111
1.00356
1.00936
1.0212
1.03885
1.07524
1.15348
1.32911
1.7466
2.84063
6.37023
19.9525
17.53
14.7967
13.4519
13.2259
13.2798
13.3606
13.4648
1.0002
1.00111
1.00356
1.00936
1.0212
1.03885
1.07524
1.15347
1.32909
1.74656
2.8406
6.37131
19.9277
17.4897
14.7556
13.4094
13.1938
13.2646
13.3375
13.4337
1.0002
1.00111
1.00356
1.00936
1.0212
1.03884
1.07523
1.15345
1.32905
1.74647
2.84045
6.37208
19.8873
17.4308
14.695
13.3468
13.1449
13.2345
13.295
13.3848
1.0002
1.00111
1.00356
1.00936
1.0212
1.03884
1.07521
1.15342
1.32896
1.74629
2.84006
6.37196
19.8304
17.3549
14.6178
13.2691
13.0852
13.1927
13.2397
13.3268
1.0002
1.00111
1.00356
1.00936
1.0212
1.03883
1.07519
1.15336
1.32883
1.74598
2.83934
6.37032
19.756
17.2633
14.5246
13.1775
13.0165
13.137
13.1709
13.2589
1.0002
1.00111
1.00356
1.00936
1.02119
1.03882
1.07515
1.15327
1.32863
1.74549
2.83814
6.36651
19.6632
17.1575
14.4165
13.0737
12.9391
13.0688
13.0911
13.1788
1.0002
1.00111
1.00356
1.00936
1.02119
1.0388
1.0751
1.15314
1.32833
1.74478
2.83632
6.35988
19.5517
17.0385
14.2946
12.9597
12.8521
12.9851
12.9965
13.087
1.0002
1.00111
1.00356
1.00936
1.02118
1.03877
1.07503
1.15297
1.32793
1.7438
2.83375
6.34989
19.4213
16.9066
14.1601
12.8375
12.755
12.8894
12.8915
12.9823
1.0002
1.00111
1.00356
1.00935
1.02118
1.03874
1.07493
1.15275
1.3274
1.7425
2.83027
6.33607
19.2722
16.7622
14.0145
12.7086
12.6467
12.7785
12.7715
12.8643
1.0002
1.00111
1.00356
1.00935
1.02117
1.03869
1.07482
1.15247
1.32672
1.74083
2.82578
6.31799
19.1042
16.6055
13.8588
12.5736
12.5288
12.654
12.6379
12.728
1.0002
1.00111
1.00356
1.00935
1.02116
1.03864
1.07467
1.15211
1.32588
1.73875
2.82015
6.29522
18.9173
16.4368
13.6941
12.4339
12.401
12.5148
12.4886
12.5755
1.0002
1.00111
1.00355
1.00934
1.02114
1.03857
1.07449
1.15168
1.32485
1.7362
2.81323
6.26738
18.7116
16.2565
13.5213
12.2906
12.2638
12.3605
12.3209
12.3967
1.0002
1.00111
1.00355
1.00933
1.02113
1.03849
1.07428
1.15117
1.32362
1.73315
2.80491
6.23402
18.4871
16.0642
13.3427
12.1454
12.1167
12.1896
12.1319
12.1914
1.0002
1.00111
1.00355
1.00932
1.02111
1.0384
1.07403
1.15056
1.32216
1.72953
2.79504
6.19468
18.2438
15.8595
13.1609
11.9997
11.9596
12.0013
11.9166
11.9496
1.0002
1.0011
1.00354
1.00931
1.02109
1.03829
1.07374
1.14984
1.32045
1.72528
2.78348
6.14893
17.9816
15.6421
12.9799
11.8561
11.7919
11.7932
11.6669
11.6607
1.0002
1.0011
1.00354
1.0093
1.02106
1.03817
1.07339
1.14901
1.31846
1.72032
2.76995
6.09572
17.6995
15.4145
12.8037
11.7164
11.6156
11.5667
11.3735
11.3045
1.0002
1.0011
1.00353
1.00929
1.02104
1.03803
1.073
1.14804
1.31613
1.71453
2.75413
6.03403
17.396
15.1797
12.639
11.5816
11.428
11.3163
11.0284
10.8491
1.00019
1.0011
1.00353
1.00927
1.02101
1.03786
1.07254
1.14692
1.31344
1.70782
2.73571
5.96269
17.0676
14.9442
12.4924
11.4503
11.2254
11.0357
10.6274
10.2518
1.00019
1.00109
1.00352
1.00925
1.02097
1.03767
1.07202
1.14565
1.31036
1.7001
2.71436
5.88057
16.7057
14.726
12.37
11.3181
11.0016
10.7148
10.1475
9.41329
1.00007
1.00037
1.00124
1.00375
1.01028
1.02526
1.05868
1.13354
1.30526
1.71858
2.81014
6.38066
20.6006
17.8577
14.9308
13.4562
13.1105
13.0928
13.2068
13.3844
1.00007
1.00037
1.00124
1.00375
1.01028
1.02526
1.05868
1.13354
1.30526
1.71859
2.81022
6.38191
20.5889
17.8374
14.9123
13.4363
13.096
13.0903
13.2044
13.3803
1.00007
1.00037
1.00124
1.00375
1.01028
1.02526
1.05868
1.13354
1.30526
1.71859
2.81031
6.38384
20.5628
17.7952
14.8716
13.3903
13.0595
13.0725
13.1884
13.3585
1.00007
1.00037
1.00124
1.00375
1.01028
1.02526
1.05867
1.13353
1.30524
1.71856
2.81033
6.38584
20.5207
17.734
14.8115
13.3236
13.0067
13.0373
13.1563
13.3195
1.00007
1.00037
1.00124
1.00375
1.01028
1.02526
1.05866
1.13351
1.3052
1.71846
2.81018
6.38728
20.4618
17.6558
14.734
13.2416
12.9446
12.9909
13.113
13.2714
1.00007
1.00037
1.00124
1.00375
1.01027
1.02525
1.05865
1.13347
1.30511
1.71827
2.80978
6.38754
20.385
17.5622
14.6398
13.146
12.8753
12.9337
13.057
13.2133
1.00007
1.00037
1.00124
1.00375
1.01027
1.02524
1.05862
1.13341
1.30497
1.71793
2.80902
6.38599
20.2898
17.4547
14.5306
13.0388
12.7986
12.8669
12.9887
13.1431
1.00007
1.00037
1.00124
1.00375
1.01026
1.02522
1.05858
1.13331
1.30475
1.71742
2.80775
6.38195
20.176
17.334
14.4076
12.9215
12.7142
12.7881
12.9052
13.0603
1.00007
1.00037
1.00123
1.00374
1.01025
1.0252
1.05852
1.13318
1.30445
1.71667
2.80584
6.37485
20.0435
17.2006
14.2722
12.7964
12.6211
12.6991
12.8096
12.9641
1.00007
1.00037
1.00123
1.00374
1.01024
1.02517
1.05845
1.13301
1.30403
1.71565
2.80315
6.36421
19.8925
17.0546
14.126
12.6646
12.5188
12.597
12.6982
12.8539
1.00007
1.00037
1.00123
1.00373
1.01023
1.02513
1.05835
1.13277
1.30348
1.7143
2.79955
6.34957
19.7229
16.8964
13.9703
12.5279
12.4077
12.4832
12.5723
12.7255
1.00007
1.00037
1.00123
1.00372
1.01021
1.02508
1.05823
1.13248
1.30278
1.71258
2.79493
6.33051
19.535
16.7261
13.8059
12.3871
12.2871
12.3563
12.4294
12.5795
1.00007
1.00037
1.00122
1.00371
1.01018
1.02502
1.05807
1.13212
1.30192
1.71044
2.78914
6.30659
19.3286
16.5445
13.634
12.2438
12.1568
12.2154
12.2673
12.4059
1.00006
1.00036
1.00122
1.0037
1.01015
1.02494
1.05789
1.13168
1.30087
1.70784
2.78206
6.2773
19.1038
16.3511
13.4565
12.0997
12.016
12.0587
12.0823
12.2045
1.00006
1.00036
1.00121
1.00369
1.01011
1.02485
1.05766
1.13115
1.29961
1.70471
2.77352
6.24213
18.8607
16.1461
13.2753
11.9566
11.8646
11.8845
11.8688
11.9645
1.00006
1.00036
1.0012
1.00367
1.01007
1.02474
1.0574
1.13052
1.29812
1.70099
2.76335
6.20045
18.5989
15.9305
13.0938
11.8165
11.7025
11.6888
11.6172
11.6784
1.00006
1.00036
1.0012
1.00365
1.01002
1.02461
1.05709
1.12978
1.29636
1.6966
2.75132
6.15131
18.3171
15.7063
12.9161
11.6803
11.5317
11.4712
11.3193
11.3236
1.00006
1.00035
1.00119
1.00362
1.00996
1.02446
1.05673
1.12892
1.29429
1.69143
2.73712
6.09378
18.0143
15.4758
12.7496
11.5481
11.347
11.2258
10.9728
10.8644
1.00006
1.00035
1.00117
1.0036
1.00989
1.02429
1.05631
1.12792
1.29189
1.6854
2.72049
6.02647
17.6857
15.2467
12.601
11.4182
11.1454
10.9465
10.5718
10.257
1.00006
1.00034
1.00116
1.00356
1.00981
1.02409
1.05582
1.12677
1.28912
1.67843
2.70109
5.94841
17.3231
15.0385
12.4747
11.2866
10.9204
10.6241
10.0872
9.39892
1.00007
1.00038
1.00113
1.00313
1.00833
1.02137
1.05243
1.12467
1.2935
1.70362
2.79162
6.37773
20.918
18.0023
14.9791
13.4366
13.0248
12.9717
13.1224
13.3493
1.00007
1.00038
1.00113
1.00313
1.00833
1.02137
1.05243
1.12467
1.29351
1.70364
2.79173
6.37921
20.9059
17.9813
14.9605
13.4155
13.0084
12.9692
13.1232
13.3471
1.00007
1.00038
1.00113
1.00313
1.00833
1.02137
1.05243
1.12467
1.29351
1.70366
2.79189
6.3816
20.8791
17.938
14.9202
13.3675
12.9687
12.9521
13.1127
13.329
1.00007
1.00038
1.00113
1.00313
1.00833
1.02137
1.05243
1.12467
1.29351
1.70366
2.79199
6.38426
20.8362