/*--------------------------------*- C++ -*----------------------------------*\
  =========                 |
  \\      /  F ield         | OpenFOAM: The Open Source CFD Toolbox
   \\    /   O peration     | Website:  https://openfoam.org
    \\  /    A nd           | Version:  6.0
     \\/     M anipulation  |
\*---------------------------------------------------------------------------*/
FoamFile
{
    version     2.0;
    format      ascii;
    class       surfaceScalarField;
    location    "2";
    object      phi;
}
// * * * * * * * * * * * * * * * * * * * * * * * * * * * * * * * * * * * * * //

dimensions      [1 0 -1 0 0 0 0];

internalField   nonuniform List<scalar> 
69200
(
0.000164423
5.10946e-11
4.66742e-05
0.00014776
6.59452e-11
1.66635e-05
0.000140659
1.38717e-10
7.09582e-06
0.000135283
1.61557e-10
5.37568e-06
0.000132718
5.55615e-10
2.56787e-06
0.00012974
1.63486e-09
2.97926e-06
0.000126375
2.91221e-09
3.36474e-06
0.000122879
4.93178e-09
3.49422e-06
0.00011961
9.18676e-09
3.26819e-06
0.000116955
1.96665e-08
2.65985e-06
0.00011611
4.74038e-08
8.35411e-07
0.0001295
1.24195e-07
-1.32316e-05
0.000180827
4.23613e-07
-5.15231e-05
0.0001762
5.07631e-07
4.08716e-06
0.00017751
4.16738e-07
-1.68787e-06
0.000164864
4.07101e-07
1.22485e-05
0.0001447
3.3137e-07
1.97056e-05
0.000116388
1.96452e-07
2.7559e-05
9.99188e-05
7.35201e-08
1.51525e-05
-5.23651e-07
0.000101142
0.000164423
1.15283e-10
4.6674e-05
0.00014776
1.37982e-10
1.66637e-05
0.000140659
2.9494e-10
7.0956e-06
0.000135283
3.4788e-10
5.37583e-06
0.000132717
1.16784e-09
2.56858e-06
0.00012974
3.48927e-09
2.97788e-06
0.000126376
6.21396e-09
3.36362e-06
0.00012288
1.05719e-08
3.49353e-06
0.00011961
1.98844e-08
3.26799e-06
0.00011695
4.33279e-08
2.66034e-06
0.000116092
1.08111e-07
8.35224e-07
0.000129441
3.07281e-07
-1.32515e-05
0.000180595
1.23474e-06
-5.1748e-05
0.00017583
1.43071e-06
3.82309e-06
0.000177191
1.34912e-06
-2.24e-06
0.000164315
1.33803e-06
1.19452e-05
0.000144148
1.24019e-06
1.91318e-05
0.000116092
9.39158e-07
2.67473e-05
9.9851e-05
2.49058e-07
1.49495e-05
-4.73561e-07
9.98899e-05
0.000164424
1.92483e-10
4.66738e-05
0.000147759
2.21167e-10
1.66643e-05
0.000140659
4.68823e-10
7.09513e-06
0.000135282
5.59186e-10
5.37618e-06
0.000132715
1.85054e-09
2.57015e-06
0.000129741
5.60127e-09
2.97505e-06
0.000126378
1.00083e-08
3.36154e-06
0.000122883
1.71141e-08
3.49258e-06
0.00011961
3.24592e-08
3.26849e-06
0.000116942
7.16822e-08
2.66357e-06
0.000116062
1.83052e-07
8.42822e-07
0.000129336
5.37498e-07
-1.32294e-05
0.000180358
2.39364e-06
-5.19748e-05
0.000175468
2.75545e-06
3.56447e-06
0.000176923
2.77022e-06
-2.80961e-06
0.000163737
2.79548e-06
1.17111e-05
0.000143566
2.71675e-06
1.85717e-05
0.000115642
2.31358e-06
2.5975e-05
9.95303e-05
1.06841e-06
1.42066e-05
2.75889e-07
9.87882e-05
0.000164424
2.86537e-10
4.66733e-05
0.000147759
3.17909e-10
1.66653e-05
0.000140659
6.65559e-10
7.0944e-06
0.000135282
7.98141e-10
5.37675e-06
0.000132713
2.62455e-09
2.57267e-06
0.000129743
8.03444e-09
2.97052e-06
0.000126383
1.44081e-08
3.35827e-06
0.000122887
2.47602e-08
3.49113e-06
0.000119611
4.73127e-08
3.26926e-06
0.000116933
1.05641e-07
2.66825e-06
0.000116022
2.74578e-07
8.56524e-07
0.000129204
8.28514e-07
-1.32068e-05
0.000180117
3.89918e-06
-5.22234e-05
0.000175122
4.54756e-06
3.218e-06
0.000176673
4.68754e-06
-3.391e-06
0.000163166
4.76259e-06
1.15134e-05
0.000142964
4.72182e-06
1.80712e-05
0.0001153
4.27914e-06
2.50967e-05
9.94801e-05
2.55621e-06
1.32984e-05
1.53719e-06
9.81413e-05
0.000164425
4.0158e-10
4.66726e-05
0.000147758
4.31426e-10
1.66666e-05
0.000140659
8.90625e-10
7.09337e-06
0.000135282
1.07069e-09
5.37758e-06
0.000132709
3.50695e-09
2.57628e-06
0.000129745
1.08443e-08
2.96395e-06
0.000126389
1.95143e-08
3.35354e-06
0.000122894
3.36833e-08
3.48897e-06
0.000119615
6.47625e-08
3.26999e-06
0.000116925
1.45867e-07
2.67363e-06
0.000115977
3.84196e-07
8.74254e-07
0.000129068
1.18241e-06
-1.31896e-05
0.000179887
5.76152e-06
-5.24946e-05
0.000174836
6.78924e-06
2.84256e-06
0.000176449
7.09925e-06
-3.9414e-06
0.000162637
7.25061e-06
1.12911e-05
0.000142398
7.27251e-06
1.75513e-05
0.000115038
6.85207e-06
2.41442e-05
9.96185e-05
4.80417e-06
1.21971e-05
3.61974e-06
9.73543e-05
0.000164427
5.43566e-10
4.66716e-05
0.000147757
5.63206e-10
1.66685e-05
0.00014066
1.14826e-09
7.09199e-06
0.000135281
1.38142e-09
5.37871e-06
0.000132703
4.51136e-09
2.58116e-06
0.000129748
1.40748e-08
2.955e-06
0.000126398
2.54065e-08
3.34711e-06
0.000122905
4.40173e-08
3.4859e-06
0.000119622
8.50478e-08
3.27045e-06
0.00011692
1.92835e-07
2.67912e-06
0.000115932
5.13044e-07
8.95598e-07
0.000128941
1.60596e-06
-1.31899e-05
0.000179702
7.94774e-06
-5.27592e-05
0.000174638
9.46636e-06
2.43091e-06
0.000176245
1.00117e-05
-4.43667e-06
0.000162171
1.0267e-05
1.10175e-05
0.000141934
1.03924e-05
1.69679e-05
0.000114892
1.00767e-05
2.3142e-05
9.98518e-05
7.92681e-06
1.09859e-05
6.9716e-06
9.62227e-05
0.000164428
7.13482e-10
4.66702e-05
0.000147755
7.17878e-10
1.6671e-05
0.00014066
1.44085e-09
7.09021e-06
0.000135281
1.73709e-09
5.38018e-06
0.000132696
5.64962e-09
2.5875e-06
0.000129752
1.77578e-08
2.94331e-06
0.00012641
3.21454e-08
3.33868e-06
0.00012292
5.58632e-08
3.48172e-06
0.000119635
1.08334e-07
3.27041e-06
0.00011692
2.46785e-07
2.68418e-06
0.00011589
6.61275e-07
9.18314e-07
0.000128839
2.0898e-06
-1.31993e-05
0.000179564
1.04418e-05
-5.30262e-05
0.000174541
1.25713e-05
1.96506e-06
0.000176055
1.34133e-05
-4.83489e-06
0.000161795
1.38159e-05
1.06688e-05
0.000141637
1.40986e-05
1.62978e-05
0.000114936
1.39774e-05
2.21055e-05
0.00010025
1.19035e-05
9.81672e-06
1.16375e-05
9.51651e-05
0.00016443
9.11078e-10
4.66684e-05
0.000147753
8.9908e-10
1.66743e-05
0.000140661
1.76909e-09
7.088e-06
0.00013528
2.1421e-09
5.38203e-06
0.000132688
6.92968e-09
2.59551e-06
0.000129758
2.19237e-08
2.92846e-06
0.000126425
3.97894e-08
3.32796e-06
0.000122939
6.93246e-08
3.47626e-06
0.000119652
1.34812e-07
3.26972e-06
0.000116927
3.08119e-07
2.68846e-06
0.000115853
8.29774e-07
9.42609e-07
0.000128758
2.64222e-06
-1.32323e-05
0.000179482
1.32195e-05
-5.32935e-05
0.000174565
1.60808e-05
1.45333e-06
0.000175889
1.72738e-05
-5.10959e-06
0.00016154
1.78722e-05
1.02479e-05
0.000141542
1.8368e-05
1.5571e-05
0.000115184
1.85354e-05
2.11011e-05
0.000100783
1.67783e-05
8.66221e-06
1.78091e-05
9.42448e-05
0.000164433
1.14015e-09
4.66659e-05
0.000147751
1.10451e-09
1.66783e-05
0.000140662
2.1315e-09
7.08533e-06
0.000135279
2.59271e-09
5.38435e-06
0.000132677
8.35414e-09
2.60537e-06
0.000129765
2.66019e-08
2.91001e-06
0.000126445
4.84004e-08
3.31461e-06
0.000122965
8.45125e-08
3.4693e-06
0.000119677
1.64686e-07
3.26822e-06
0.000116942
3.77204e-07
2.69163e-06
0.000115823
1.01914e-06
9.66784e-07
0.000128704
3.25866e-06
-1.32795e-05
0.000179458
1.62674e-05
-5.35675e-05
0.000174708
1.99674e-05
8.99555e-07
0.000175732
2.15793e-05
-5.26679e-06
0.000161396
2.24362e-05
9.73324e-06
0.000141647
2.32124e-05
1.47524e-05
0.000115645
2.37657e-05
2.00658e-05
0.000101462
2.25675e-05
7.57358e-06
2.56256e-05
9.33772e-05
0.000164435
1.40782e-09
4.66629e-05
0.000147749
1.32573e-09
1.66833e-05
0.000140664
2.5231e-09
7.08217e-06
0.000135278
3.07736e-09
5.3872e-06
0.000132663
9.91386e-09
2.61733e-06
0.000129774
3.18248e-08
2.8875e-06
0.000126469
5.80549e-08
3.29829e-06
0.000122997
1.0157e-07
3.46063e-06
0.000119709
1.98231e-07
3.26576e-06
0.000116966
4.54625e-07
2.69343e-06
0.000115802
1.23062e-06
9.90831e-07
0.000128677
3.94095e-06
-1.33445e-05
0.000179491
1.95681e-05
-5.38486e-05
0.000174979
2.41887e-05
3.16687e-07
0.000175603
2.62981e-05
-5.29113e-06
0.000161377
2.74972e-05
9.12732e-06
0.000141943
2.86316e-05
1.38649e-05
0.000116373
2.96992e-05
1.89393e-05
0.000102154
2.93023e-05
6.7073e-06
3.54119e-05
9.22076e-05
0.000164439
1.71397e-09
4.66591e-05
0.000147746
1.55434e-09
1.66893e-05
0.000140666
2.93839e-09
7.07844e-06
0.000135277
3.57372e-09
5.39061e-06
0.000132647
1.15881e-08
2.63164e-06
0.000129784
3.76299e-08
2.86041e-06
0.000126499
6.88604e-08
3.27863e-06
0.000123036
1.20713e-07
3.45006e-06
0.000119749
2.35903e-07
3.26221e-06
0.000116999
5.41444e-07
2.69359e-06
0.000115788
1.46727e-06
1.01503e-06
0.000128664
4.70444e-06
-1.34313e-05
0.000179563
2.31097e-05
-5.41194e-05
0.000175332
2.87394e-05
-3.04076e-07
0.0001755
3.14394e-05
-5.25676e-06
0.000161474
3.30474e-05
8.44763e-06
0.000142451
3.46222e-05
1.28957e-05
0.000117399
3.63404e-05
1.77293e-05
0.000102829
3.70372e-05
6.0987e-06
4.7292e-05
9.08707e-05
0.000164443
2.05532e-09
4.66543e-05
0.000147743
1.77568e-09
1.66967e-05
0.00014067
3.36568e-09
7.07406e-06
0.000135276
4.03509e-09
5.39461e-06
0.000132628
1.33346e-08
2.64861e-06
0.000129797
4.40766e-08
2.82814e-06
0.000126534
8.09903e-08
3.25519e-06
0.000123083
1.42283e-07
3.43729e-06
0.000119799
2.78351e-07
3.25725e-06
0.000117043
6.3896e-07
2.69145e-06
0.000115788
1.73161e-06
1.03451e-06
0.000128661
5.55147e-06
-1.35171e-05
0.000179655
2.69173e-05
-5.44176e-05
0.000175644
3.37562e-05
-1.00082e-06
0.000175328
3.70193e-05
-5.20955e-06
0.000161627
3.90794e-05
7.66209e-06
0.000143133
4.11657e-05
1.18366e-05
0.000118676
4.36994e-05
1.64467e-05
0.000103541
4.58362e-05
5.63592e-06
6.13865e-05
8.94491e-05
0.000164448
2.43102e-09
4.66485e-05
0.000147739
1.95448e-09
1.67056e-05
0.000140673
3.77153e-09
7.0689e-06
0.000135275
4.35698e-09
5.39924e-06
0.000132605
1.50967e-08
2.66863e-06
0.000129812
5.13113e-08
2.78992e-06
0.000126576
9.47948e-08
3.22744e-06
0.000123139
1.66901e-07
3.422e-06
0.000119859
3.26645e-07
3.25062e-06
0.000117098
7.49065e-07
2.68633e-06
0.000115803
2.02703e-06
1.04828e-06
0.000128677
6.4853e-06
-1.36042e-05
0.000179797
3.09938e-05
-5.47542e-05
0.000176015
3.92182e-05
-1.68574e-06
0.000175166
4.30642e-05
-5.1353e-06
0.000161871
4.56031e-05
6.79308e-06
0.000143981
4.82596e-05
1.07114e-05
0.000120204
5.178e-05
1.50782e-05
0.000104132
5.58648e-05
5.40083e-06
7.81667e-05
8.74013e-05
0.000164455
2.82914e-09
4.66414e-05
0.000147736
2.00861e-09
1.67164e-05
0.000140678
4.09937e-09
7.06272e-06
0.000135273
4.34271e-09
5.40455e-06
0.000132579
1.68768e-08
2.69223e-06
0.000129831
5.97203e-08
2.74473e-06
0.000126627
1.11003e-07
3.19467e-06
0.000123205
1.95703e-07
3.40389e-06
0.000119929
3.8248e-07
3.24228e-06
0.000117166
8.74371e-07
2.67807e-06
0.000115831
2.35779e-06
1.05597e-06
0.000128715
7.50751e-06
-1.36924e-05
0.000179991
3.53683e-05
-5.51528e-05
0.00017645
4.51416e-05
-2.39961e-06
0.000175043
4.95895e-05
-5.05036e-06
0.000162229
5.26421e-05
5.82508e-06
0.00014502
5.59371e-05
9.48927e-06
0.000121975
6.06486e-05
1.3593e-05
0.000104807
6.71206e-05
5.29683e-06
9.78658e-05
8.52604e-05
0.000164464
3.161e-09
4.66327e-05
0.000147732
1.76277e-09
1.67297e-05
0.000140683
4.35531e-09
7.05512e-06
0.00013527
3.68724e-09
5.41058e-06
0.000132548
1.9067e-08
2.72013e-06
0.000129853
7.01156e-08
2.69121e-06
0.000126685
1.30816e-07
3.15611e-06
0.000123281
2.30278e-07
3.38296e-06
0.000120008
4.47848e-07
3.23279e-06
0.000117243
1.01741e-06
2.66711e-06
0.000115871
2.7281e-06
1.05926e-06
0.000128783
8.63022e-06
-1.37958e-05
0.000180281
4.00622e-05
-5.56292e-05
0.000176966
5.15374e-05
-3.11803e-06
0.000175005
5.65989e-05
-4.98332e-06
0.000162748
6.02013e-05
4.76706e-06
0.000146268
6.42099e-05
8.19483e-06
0.000123945
7.03653e-05
1.20656e-05
0.000105448
7.99191e-05
5.10617e-06
0.000121228
8.23411e-05
0.000164474
3.07824e-09
4.66223e-05
0.000147729
9.9069e-10
1.6746e-05
0.000140689
4.90713e-09
7.04544e-06
0.000135268
2.36885e-09
5.41707e-06
0.000132511
2.24736e-08
2.75394e-06
0.000129877
8.35608e-08
2.6284e-06
0.000126752
1.55132e-07
3.11123e-06
0.000123368
2.71522e-07
3.35943e-06
0.000120097
5.23829e-07
3.22274e-06
0.000117331
1.18063e-06
2.65259e-06
0.000115933
3.14792e-06
1.04264e-06
0.000128886
9.89349e-06
-1.39443e-05
0.000180686
4.50979e-05
-5.61918e-05
0.000177524
5.8499e-05
-3.88159e-06
0.000175024
6.41942e-05
-5.04032e-06
0.000163422
6.84108e-05
3.48603e-06
0.000147749
7.32549e-05
6.67554e-06
0.000126162
8.11856e-05
1.03028e-05
0.000105943
9.45849e-05
5.0106e-06
0.000148975
7.84807e-05
0.000164488
1.01682e-09
4.66108e-05
0.000147724
1.36471e-09
1.67641e-05
0.000140695
5.4388e-09
7.03367e-06
0.000135266
1.55458e-09
5.42312e-06
0.000132466
2.87109e-08
2.79382e-06
0.000129903
9.82616e-08
2.56e-06
0.000126826
1.82157e-07
3.06382e-06
0.000123466
3.17945e-07
3.33297e-06
0.000120203
6.0987e-07
3.2069e-06
0.000117447
1.36571e-06
2.62619e-06
0.000116038
3.62439e-06
1.0034e-06
0.000129043
1.12857e-05
-1.40881e-05
0.000181153
5.06589e-05
-5.69538e-05
0.000178151
6.61308e-05
-4.72179e-06
0.000175245
7.24384e-05
-5.28063e-06
0.000164395
7.73082e-05
2.05576e-06
0.000149573
8.30657e-05
5.06615e-06
0.000128831
9.31642e-05
8.34107e-06
0.000106453
0.000111561
4.86426e-06
0.000182403
7.33948e-05
0.000164485
-1.31526e-09
4.66097e-05
0.000147724
1.98939e-09
1.67666e-05
0.000140693
6.09073e-09
7.03211e-06
0.000135269
1.66422e-09
5.41916e-06
0.000132418
3.42574e-08
2.84615e-06
0.00012993
1.15283e-07
2.48528e-06
0.000126901
2.11989e-07
3.01533e-06
0.000123569
3.68724e-07
3.30334e-06
0.000120326
7.05649e-07
3.18104e-06
0.000117598
1.57714e-06
2.57805e-06
0.000116181
4.17909e-06
9.43531e-07
0.000129285
1.29115e-05
-1.43964e-05
0.000181855
5.68652e-05
-5.79001e-05
0.000178714
7.48644e-05
-5.74253e-06
0.000175478
8.18352e-05
-6.14871e-06
0.000165421
8.73891e-05
7.83746e-08
0.000151593
9.43251e-05
2.68611e-06
0.000131645
0.000107348
5.43081e-06
0.000106949
0.000131902
3.8325e-06
0.000223351
6.63952e-05
0.000164474
-2.00333e-09
4.66199e-05
0.000147722
2.01876e-09
1.67576e-05
0.000140687
6.69567e-09
7.03353e-06
0.000135267
3.41368e-09
5.4122e-06
0.000132357
4.0234e-08
2.90643e-06
0.000129957
1.31717e-07
2.4011e-06
0.000126985
2.42302e-07
2.96056e-06
0.000123689
4.22602e-07
3.26722e-06
0.000120478
8.12215e-07
3.14299e-06
0.0001178
1.82273e-06
2.50136e-06
0.000116391
4.84768e-06
8.32838e-07
0.000129709
1.4879e-05
-1.48891e-05
0.000182757
6.40694e-05
-5.92735e-05
0.000179017
8.60101e-05
-7.61743e-06
0.000175293
9.3587e-05
-8.05082e-06
0.000166319
0.000100008
-3.47569e-06
0.000153382
0.00010841
-1.07621e-06
0.00013409
0.00012502
1.27994e-06
0.000107136
0.000157728
6.6794e-07
0.000275702
5.51635e-05
0.000164461
4.66324e-05
-2.34458e-09
0.00014772
1.67458e-05
3.10553e-09
0.000140681
7.03595e-06
6.55292e-09
0.000135268
5.40642e-06
6.96233e-09
0.000132292
2.97274e-06
4.65293e-08
0.000129992
2.3019e-06
1.47716e-07
0.000127086
2.8943e-06
2.72763e-07
0.000123835
3.22035e-06
4.79408e-07
0.000120672
3.08669e-06
9.30037e-07
0.000118091
2.37488e-06
2.10752e-06
0.00011675
6.11353e-07
5.68598e-06
0.000130341
-1.59538e-05
1.76744e-05
0.000183513
-6.17242e-05
7.3711e-05
0.000177918
-1.15841e-05
0.000102924
0.000173112
-1.26554e-05
0.000110995
0.000165422
-9.81202e-06
0.000117725
0.000152105
-6.41293e-06
0.00012819
0.000135047
-8.20114e-06
0.000150013
0.000107342
-8.74719e-06
0.00019394
3.85762e-05
0.000345085
0.000230909
1.04933e-10
2.56248e-05
0.000226339
2.19446e-10
2.12335e-05
0.000216838
4.40061e-10
1.65951e-05
0.000212268
6.42053e-10
9.94647e-06
0.000208307
1.74715e-09
6.52746e-06
0.000204234
3.20308e-09
7.0505e-06
0.000200604
5.65687e-09
6.9925e-06
0.000197607
1.06265e-08
6.48765e-06
0.00019523
2.20145e-08
5.64164e-06
0.000193556
5.11171e-08
4.32833e-06
0.000193093
1.34958e-07
1.25039e-06
0.0001971
4.09749e-07
-1.74937e-05
0.000237664
2.01648e-06
-9.33058e-05
0.000237072
3.16584e-06
2.03499e-06
0.000229952
4.26502e-06
1.43478e-06
0.000198374
4.9601e-06
3.8629e-05
0.000170191
5.41447e-06
4.23769e-05
0.000145548
5.2591e-06
4.68778e-05
8.94966e-05
5.80276e-06
6.46205e-05
5.36651e-06
0.000182367
0.000230909
2.23036e-10
2.56247e-05
0.000226339
4.59347e-10
2.12333e-05
0.000216838
9.11625e-10
1.65954e-05
0.000212267
1.32489e-09
9.94685e-06
0.000208309
3.60322e-09
6.52623e-06
0.000204235
6.61228e-09
7.04988e-06
0.000200604
1.16826e-08
6.99176e-06
0.000197607
2.19562e-08
6.48652e-06
0.00019523
4.55693e-08
5.63957e-06
0.000193557
1.06346e-07
4.3234e-06
0.000193096
2.83549e-07
1.23501e-06
0.000197089
8.74709e-07
-1.75586e-05
0.000237192
4.82564e-06
-9.38589e-05
0.000236504
7.19065e-06
1.01188e-06
0.000228776
9.37839e-06
6.29321e-07
0.000197612
1.0815e-05
3.70182e-05
0.000169726
1.18588e-05
4.04886e-05
0.000145363
1.17711e-05
4.4558e-05
9.06834e-05
1.18441e-05
6.27141e-05
1.32071e-05
0.000178936
0.000230909
3.59121e-10
2.56245e-05
0.00022634
7.32456e-10
2.12329e-05
0.000216837
1.4356e-09
1.6596e-05
0.000212266
2.07695e-09
9.9477e-06
0.000208312
5.66952e-09
6.52377e-06
0.000204236
1.04242e-08
7.04882e-06
0.000200603
1.84592e-08
6.99059e-06
0.000197605
3.47895e-08
6.48491e-06
0.000195228
7.24962e-08
5.63689e-06
0.000193555
1.70263e-07
4.31771e-06
0.00019309
4.58413e-07
1.21938e-06
0.000197051
1.43889e-06
-1.76081e-05
0.000236696
8.45777e-06
-9.44478e-05
0.000235906
1.20705e-05
3.71059e-10
0.000227349
1.54205e-05
-4.69262e-08
0.00019674
1.76137e-05
3.52933e-05
0.000169374
1.92794e-05
3.84401e-05
0.000145642
1.95738e-05
4.18969e-05
9.03302e-05
1.94818e-05
6.0951e-05
2.17667e-05
0.000176476
0.000230909
5.1912e-10
2.56243e-05
0.000226341
1.04969e-09
2.12324e-05
0.000216837
2.03264e-09
1.65969e-05
0.000212265
2.92549e-09
9.94905e-06
0.000208317
8.02501e-09
6.51992e-06
0.000204237
1.47894e-08
7.04724e-06
0.000200602
2.62627e-08
6.98888e-06
0.000197603
4.96675e-08
6.48257e-06
0.000195226
1.03957e-07
5.63312e-06
0.000193553
2.45614e-07
4.31e-06
0.000193088
6.66927e-07
1.19916e-06
0.000197006
2.12335e-06
-1.76678e-05
0.00023611
1.29257e-05
-9.49873e-05
0.000234939
1.80025e-05
-1.01904e-06
0.000225513
2.24995e-05
-7.87588e-07
0.000195672
2.53257e-05
3.34412e-05
0.000169092
2.76538e-05
3.62196e-05
0.000146009
2.85314e-05
3.92613e-05
9.01666e-05
2.90726e-05
5.85737e-05
3.18366e-05
0.000173915
0.000230908
7.0936e-10
2.5624e-05
0.000226343
1.42172e-09
2.12316e-05
0.000216836
2.71942e-09
1.65983e-05
0.000212263
3.89398e-09
9.95097e-06
0.000208324
1.07315e-08
6.51446e-06
0.000204239
1.98218e-08
7.04507e-06
0.000200601
3.52953e-08
6.98649e-06
0.0001976
6.69649e-08
6.4793e-06
0.000195224
1.40705e-07
5.62783e-06
0.000193554
3.34075e-07
4.29912e-06
0.000193096
9.13226e-07
1.17078e-06
0.000196983
2.93692e-06
-1.77517e-05
0.000235594
1.81545e-05
-9.55208e-05
0.000234011
2.48941e-05
-1.94551e-06
0.000223748
3.05977e-05
-1.5147e-06
0.000194674
3.39819e-05
3.15366e-05
0.000168934
3.69969e-05
3.39147e-05
0.000146405
3.86543e-05
3.6653e-05
9.0215e-05
4.06366e-05
5.58175e-05
4.35818e-05
0.000171209
0.000230908
9.36751e-10
2.56235e-05
0.000226345
1.85763e-09
2.12306e-05
0.000216835
3.50738e-09
1.66002e-05
0.000212261
5.00243e-09
9.95357e-06
0.000208333
1.38358e-08
6.50714e-06
0.000204242
2.56071e-08
7.0422e-06
0.000200599
4.57052e-08
6.98329e-06
0.000197598
8.6947e-08
6.47489e-06
0.000195224
1.83245e-07
5.6206e-06
0.00019356
4.36664e-07
4.28416e-06
0.000193121
1.19947e-06
1.13156e-06
0.000196994
3.88097e-06
-1.78704e-05
0.000235176
2.40825e-05
-9.60419e-05
0.000233121
3.26813e-05
-2.79084e-06
0.000222148
3.96587e-05
-2.26551e-06
0.000193819
4.35758e-05
2.96117e-05
0.000168919
4.73183e-05
3.1551e-05
0.000146932
4.98929e-05
3.40803e-05
9.05456e-05
5.40836e-05
5.29227e-05
5.71008e-05
0.000168458
0.000230907
1.20415e-09
2.56229e-05
0.000226348
2.36466e-09
2.12293e-05
0.000216834
4.40527e-09
1.66025e-05
0.000212258
6.26131e-09
9.95693e-06
0.000208346
1.73736e-08
6.49768e-06
0.000204246
3.22125e-08
7.03852e-06
0.000200597
5.76094e-08
6.97915e-06
0.000197595
1.09821e-07
6.46912e-06
0.000195225
2.31966e-07
5.61108e-06
0.000193571
5.5416e-07
4.26435e-06
0.000193165
1.52723e-06
1.07959e-06
0.000197051
4.95752e-06
-1.80252e-05
0.000234867
3.06538e-05
-9.65682e-05
0.000232246
4.1307e-05
-3.53473e-06
0.000220769
4.96243e-05
-3.06832e-06
0.00019315
5.40833e-05
2.76832e-05
0.000169062
5.86161e-05
2.91466e-05
0.000147693
6.22666e-05
3.13705e-05
9.11035e-05
6.931e-05
5.01754e-05
7.28027e-05
0.000165579
0.000230906
1.51236e-09
2.56222e-05
0.000226351
2.94705e-09
2.12277e-05
0.000216833
5.41877e-09
1.66056e-05
0.000212254
7.67471e-09
9.96115e-06
0.000208361
2.13701e-08
6.48578e-06
0.000204251
3.96908e-08
7.03393e-06
0.000200596
7.11063e-08
6.97394e-06
0.000197593
1.35774e-07
6.46182e-06
0.000195229
2.87238e-07
5.59895e-06
0.00019359
6.87322e-07
4.23895e-06
0.00019323
1.89809e-06
1.01309e-06
0.000197156
6.16716e-06
-1.82266e-05
0.000234687
3.78163e-05
-9.71136e-05
0.000231375
5.07175e-05
-4.15361e-06
0.000219625
6.04462e-05
-3.94068e-06
0.000192646
6.5491e-05
2.57848e-05
0.00016934
7.09169e-05
2.66939e-05
0.000148994
7.58292e-05
2.82246e-05
9.18529e-05
8.62154e-05
4.7916e-05
9.09395e-05
0.000162946
0.000230904
1.86374e-09
2.56212e-05
0.000226356
3.60501e-09
2.12256e-05
0.000216831
6.54717e-09
1.66093e-05
0.000212249
9.24264e-09
9.96637e-06
0.000208381
2.5838e-08
6.47111e-06
0.000204257
4.8077e-08
7.02829e-06
0.000200594
8.62763e-08
6.96749e-06
0.000197591
1.64985e-07
6.45276e-06
0.000195234
3.49464e-07
5.58386e-06
0.000193615
8.37058e-07
4.20734e-06
0.000193318
2.31406e-06
9.3063e-07
0.000197315
7.51333e-06
-1.84743e-05
0.000234645
4.55224e-05
-9.76923e-05
0.000230528
6.0847e-05
-4.63684e-06
0.000218742
7.20547e-05
-4.87656e-06
0.00019233
7.77788e-05
2.39162e-05
0.000169724
8.42261e-05
2.4222e-05
0.000150767
9.07056e-05
2.45399e-05
9.26817e-05
0.00010462
4.63797e-05
0.000111808
0.000160236
0.000230902
2.25977e-09
2.56201e-05
0.000226361
4.33253e-09
2.12232e-05
0.000216829
7.77824e-09
1.66138e-05
0.000212243
1.09557e-08
9.9727e-06
0.000208405
3.07748e-08
6.45333e-06
0.000204265
5.73899e-08
7.02149e-06
0.000200592
1.0319e-07
6.95967e-06
0.000197589
1.9765e-07
6.44172e-06
0.000195243
4.1913e-07
5.56548e-06
0.000193649
1.00452e-06
4.16889e-06
0.000193427
2.77795e-06
8.31293e-07
0.000197527
9.00093e-06
-1.87713e-05
0.00023475
5.37268e-05
-9.83046e-05
0.000229724
7.16474e-05
-4.99642e-06
0.000218137
8.43884e-05
-5.86253e-06
0.000192202
9.09189e-05
2.20971e-05
0.000170225
9.84976e-05
2.1749e-05
0.000152694
0.000106865
2.07506e-05
9.37305e-05
0.000124542
4.49719e-05
0.000135692
0.000157229
0.0002309
2.69469e-09
2.56188e-05
0.000226368
5.11469e-09
2.12202e-05
0.000216826
9.09267e-09
1.66192e-05
0.000212237
1.27715e-08
9.98026e-06
0.000208433
3.61494e-08
6.43208e-06
0.000204274
6.76322e-08
7.01337e-06
0.00020059
1.21933e-07
6.95027e-06
0.000197587
2.34046e-07
6.42845e-06
0.000195254
4.96949e-07
5.54336e-06
0.00019369
1.19141e-06
4.12289e-06
0.000193562
3.29349e-06
7.13079e-07
0.000197797
1.06317e-05
-1.91242e-05
0.000235026
6.23893e-05
-9.89887e-05
0.000229028
8.30696e-05
-5.28576e-06
0.000217842
9.73926e-05
-6.88139e-06
0.000192272
0.00010483
2.03048e-05
0.000170861
0.000113689
1.93276e-05
0.000154627
0.000124282
1.70359e-05
9.48606e-05
0.00014604
4.36804e-05
0.000162975
0.000153734
0.000230897
3.157e-09
2.56172e-05
0.000226376
5.92279e-09
2.12168e-05
0.000216824
1.04473e-08
1.66256e-05
0.000212229
1.45855e-08
9.98918e-06
0.000208467
4.18839e-08
6.40694e-06
0.000204285
7.87995e-08
7.00379e-06
0.000200588
1.42662e-07
6.93908e-06
0.000197586
2.74678e-07
6.4126e-06
0.000195267
5.84123e-07
5.51695e-06
0.000193738
1.40027e-06
4.06812e-06
0.000193715
3.86591e-06
5.74674e-07
0.000198122
1.24202e-05
-1.9523e-05
0.000235464
7.15006e-05
-9.97687e-05
0.000228519
9.50763e-05
-5.63023e-06
0.000217879
0.000110996
-7.92654e-06
0.000192584
0.000119434
1.85616e-05
0.000171662
0.000129724
1.69549e-05
0.000156517
0.000142933
1.34769e-05
9.60186e-05
0.000169232
4.23755e-05
0.000194278
0.000149614
0.000230892
3.62427e-09
2.56154e-05
0.000226385
6.69777e-09
2.12127e-05
0.000216821
1.1745e-08
1.6633e-05
0.00021222
1.6173e-08
9.99968e-06
0.000208508
4.78378e-08
6.3774e-06
0.000204299
9.09594e-08
6.99253e-06
0.000200585
1.65836e-07
6.92579e-06
0.000197584
3.20726e-07
6.39372e-06
0.000195281
6.83099e-07
5.48553e-06
0.000193791
1.63581e-06
4.00301e-06
0.000193885
4.50394e-06
4.11675e-07
0.000198514
1.43779e-05
-1.9978e-05
0.000236041
8.10484e-05
-0.000100646
0.000228159
0.000107648
-5.95055e-06
0.000218208
0.000125164
-9.03198e-06
0.000193138
0.000134657
1.68388e-05
0.000172634
0.000146546
1.46463e-05
0.000158361
0.000162791
1.00886e-05
9.73102e-05
0.000194244
4.09739e-05
0.000229853
0.000144627
0.000230887
4.03818e-09
2.56133e-05
0.000226396
7.30747e-09
2.1208e-05
0.000216818
1.27755e-08
1.66415e-05
0.00021221
1.70379e-08
1.00121e-05
0.000208557
5.3841e-08
6.34269e-06
0.000204315
1.04647e-07
6.97926e-06
0.000200582
1.92946e-07
6.91003e-06
0.000197579
3.74958e-07
6.37142e-06
0.000195293
7.98291e-07
5.44856e-06
0.000193844
1.90481e-06
3.92646e-06
0.000194066
5.21942e-06
2.21527e-07
0.000198976
1.65201e-05
-2.04975e-05
0.000236745
9.10451e-05
-0.000101656
0.00022795
0.00012075
-6.25156e-06
0.000218808
0.000139797
-1.02299e-05
0.000193974
0.000150419
1.51262e-05
0.000173832
0.000164081
1.23929e-05
0.000159929
0.000183922
6.98774e-06
9.86202e-05
0.00022119
3.92667e-05
0.000270637
0.000138721
0.000230881
4.23458e-09
2.56111e-05
0.000226409
7.46289e-09
2.12027e-05
0.000216815
1.31371e-08
1.66508e-05
0.000212199
1.60024e-08
1.00273e-05
0.000208616
6.00782e-08
6.30105e-06
0.000204333
1.22471e-07
6.96338e-06
0.000200574
2.28433e-07
6.89185e-06
0.000197564
4.42727e-07
6.34602e-06
0.000195295
9.35186e-07
5.40609e-06
0.000193893
2.21298e-06
3.83747e-06
0.000194266
6.01821e-06
1.41178e-09
0.000199497
1.88772e-05
-2.10995e-05
0.000237565
0.000101559
-0.00010283
0.000227829
0.000134399
-6.56052e-06
0.000219682
0.000154834
-1.15573e-05
0.000195079
0.000166675
1.33556e-05
0.000175273
0.000182298
1.01095e-05
0.000161676
0.000206255
4.06007e-06
0.000100166
0.000250525
3.7143e-05
0.000317243
0.000131613
0.000230874
3.81564e-09
2.56088e-05
0.000226425
6.61013e-09
2.1197e-05
0.000216813
1.2014e-08
1.66601e-05
0.000212187
9.81183e-09
1.00476e-05
0.000208687
7.21718e-08
6.24795e-06
0.00020435
1.51287e-07
6.94471e-06
0.000200553
2.78475e-07
6.87273e-06
0.000197534
5.27844e-07
6.31889e-06
0.000195285
1.09467e-06
5.3584e-06
0.000193938
2.56071e-06
3.73694e-06
0.000194484
6.91438e-06
-2.66499e-07
0.000200094
2.14754e-05
-2.18085e-05
0.000238499
0.000112697
-0.00010427
0.000227775
0.000148617
-6.90223e-06
0.00022091
0.000170136
-1.31419e-05
0.000196626
0.000183254
1.15063e-05
0.000177149
0.000201045
7.77428e-06
0.000163009
0.000230109
1.34278e-06
0.000101866
0.000282219
3.42893e-05
0.000370548
0.000122928
0.000230865
2.18819e-09
2.56069e-05
0.000226441
4.90674e-09
2.11915e-05
0.000216816
1.009e-08
1.66622e-05
0.000212175
4.43556e-09
1.00656e-05
0.000208751
8.79353e-08
6.21087e-06
0.000204358
1.87118e-07
6.92972e-06
0.000200533
3.38826e-07
6.84639e-06
0.000197516
6.26859e-07
6.27953e-06
0.000195298
1.27506e-06
5.2955e-06
0.000194016
2.94992e-06
3.6131e-06
0.000194749
7.92118e-06
-5.91483e-07
0.000200769
2.44015e-05
-2.26339e-05
0.000239571
0.000124624
-0.000106085
0.000227812
0.000163473
-7.36337e-06
0.00022242
0.000185661
-1.50919e-05
0.000198443
0.000200133
9.42603e-06
0.000179275
0.000220368
5.21128e-06
0.000164434
0.000255652
-1.50667e-06
0.000104017
0.000317139
3.0464e-05
0.000431757
0.000112222
0.000230864
9.67528e-10
2.56056e-05
0.000226446
3.78329e-09
2.11879e-05
0.000216822
9.92626e-09
1.66563e-05
0.000212161
3.43872e-09
1.00773e-05
0.000208806
1.03229e-07
6.19688e-06
0.000204352
2.20839e-07
6.92019e-06
0.000200518
3.97978e-07
6.81095e-06
0.000197528
7.29332e-07
6.22305e-06
0.000195361
1.47019e-06
5.21042e-06
0.000194154
3.38183e-06
3.45727e-06
0.000195139
9.05476e-06
-1.01178e-06
0.000201591
2.76649e-05
-2.36648e-05
0.000240763
0.000137597
-0.00010826
0.000227977
0.000179104
-8.13932e-06
0.000224191
0.000201295
-1.76808e-05
0.000200909
0.000216891
6.96057e-06
0.000181728
0.000240423
2.30458e-06
0.000164986
0.000283425
-4.62977e-06
0.000106068
0.000355306
2.48603e-05
0.000502014
9.83159e-05
0.000230874
9.0223e-10
2.56045e-05
0.000226448
4.15196e-09
2.11861e-05
0.000216832
1.18322e-08
1.66472e-05
0.000212144
9.24514e-09
1.0088e-05
0.000208862
1.19515e-07
6.18442e-06
0.000204339
2.4902e-07
6.91239e-06
0.000200502
4.47434e-07
6.7712e-06
0.000197557
8.22545e-07
6.15544e-06
0.000195466
1.66397e-06
5.10444e-06
0.000194371
3.83539e-06
3.26059e-06
0.000195699
1.02808e-05
-1.53605e-06
0.00020263
3.12931e-05
-2.4958e-05
0.000242234
0.000151542
-0.000110841
0.000228449
0.000195631
-9.93957e-06
0.000226149
0.000217212
-2.13395e-05
0.000204694
0.000231944
3.28065e-06
0.000183754
0.000262601
-1.84512e-06
0.00016572
0.000311602
-7.71185e-06
0.000109124
0.000395454
1.75491e-05
0.000583179
7.9932e-05
0.000230888
2.56033e-05
1.58387e-09
0.000226452
2.11827e-05
5.92929e-09
0.00021684
1.66422e-05
1.65245e-08
0.000212125
1.0099e-05
2.63135e-08
0.000208932
6.16643e-06
1.31515e-07
0.000204335
6.90141e-06
2.63927e-07
0.000200491
6.72505e-06
4.85066e-07
0.000197595
6.07682e-06
9.01777e-07
0.000195604
4.97751e-06
1.83487e-06
0.000194686
3.01736e-06
4.24243e-06
0.000196553
-2.18649e-06
1.14227e-05
0.000204292
-2.66188e-05
3.47552e-05
0.000244167
-0.000113626
0.000165748
0.000229206
-1.36621e-05
0.000213019
0.000226022
-2.53844e-05
0.000233494
0.00020563
-3.09718e-06
0.000246002
0.000191462
-7.92685e-06
0.000278955
0.00017089
-1.22956e-05
0.000337452
0.000115352
6.88565e-06
0.000435672
5.3367e-05
0.000679953
0.00022415
7.7226e-11
1.12548e-05
0.000230739
1.63297e-10
1.46443e-05
0.000234464
6.12375e-10
1.28695e-05
0.000232837
1.15353e-09
1.15721e-05
0.000228845
1.92979e-09
1.0518e-05
0.00022685
3.32021e-09
9.04291e-06
0.000225969
6.12276e-09
7.87109e-06
0.000225457
1.22375e-08
6.99565e-06
0.000224833
2.66415e-08
6.26039e-06
0.000223786
6.39383e-08
5.36072e-06
0.000222147
1.72586e-07
2.83722e-06
0.000216998
5.5931e-07
-1.28936e-05
0.000205067
3.6117e-06
-8.35274e-05
0.000248917
7.85713e-06
-4.88775e-05
0.000182906
1.16515e-05
5.6524e-05
0.000162749
1.28973e-05
4.60446e-05
0.000141632
1.35355e-05
4.98064e-05
0.000123413
1.3042e-05
5.16492e-05
6.23707e-05
1.28592e-05
0.000107515
1.59831e-05
0.000217297
0.00022415
1.59653e-10
1.12548e-05
0.000230739
3.38619e-10
1.46442e-05
0.000234464
1.25417e-09
1.2869e-05
0.000232838
2.35955e-09
1.15718e-05
0.000228845
3.94645e-09
1.05178e-05
0.00022685
6.78716e-09
9.04257e-06
0.000225968
1.25164e-08
7.87043e-06
0.000225456
2.50344e-08
6.99426e-06
0.000224832
5.46116e-08
6.25723e-06
0.000223784
1.31749e-07