/*--------------------------------*- C++ -*----------------------------------*\
  =========                 |
  \\      /  F ield         | OpenFOAM: The Open Source CFD Toolbox
   \\    /   O peration     | Website:  https://openfoam.org
    \\  /    A nd           | Version:  6.0
     \\/     M anipulation  |
\*---------------------------------------------------------------------------*/
FoamFile
{
    version     2.0;
    format      ascii;
    class       volVectorField;
    location    "2";
    object      U;
}
// * * * * * * * * * * * * * * * * * * * * * * * * * * * * * * * * * * * * * //

dimensions      [0 1 -1 0 0 0 0];

internalField   nonuniform List<vector> 
24000
(
(3.08428 1.52854e-07 -0.139638)
(3.10999 2.16135e-07 -0.149918)
(3.12373 4.98044e-07 -0.153126)
(3.1335 5.96507e-07 -0.152734)
(3.1377 2.16138e-06 -0.153911)
(3.13733 6.36926e-06 -0.154133)
(3.13491 1.11992e-05 -0.155356)
(3.12672 1.8718e-05 -0.15859)
(3.10313 3.38784e-05 -0.166679)
(3.03743 6.81445e-05 -0.186799)
(2.84494 0.000147935 -0.239905)
(2.25718 0.000335417 -0.386234)
(1.57873 0.000600295 -0.508576)
(1.51669 0.000567482 -0.496282)
(1.50608 0.000406891 -0.494196)
(1.50091 0.000348828 -0.486658)
(1.47765 0.00021095 -0.488295)
(1.3992 -1.85048e-05 -0.494259)
(1.14085 -0.000192332 -0.53993)
(0.919395 -0.000804808 -0.467281)
(3.08428 4.97732e-07 -0.139638)
(3.10999 6.7771e-07 -0.149918)
(3.12373 1.56463e-06 -0.153126)
(3.1335 1.90359e-06 -0.152733)
(3.1377 6.74287e-06 -0.153911)
(3.13733 2.0035e-05 -0.154133)
(3.13491 3.53342e-05 -0.155355)
(3.12673 5.92856e-05 -0.158587)
(3.10314 0.000108023 -0.166672)
(3.03747 0.000220026 -0.186783)
(2.84501 0.000490039 -0.23987)
(2.25705 0.00118142 -0.386188)
(1.57751 0.00251192 -0.508579)
(1.51539 0.00251597 -0.496375)
(1.50321 0.00223142 -0.494364)
(1.49807 0.00213886 -0.486907)
(1.4746 0.00183932 -0.488851)
(1.39571 0.0011366 -0.495136)
(1.13639 -1.61356e-05 -0.540071)
(0.909182 -0.00137537 -0.469734)
(3.08428 9.20712e-07 -0.139639)
(3.10999 1.20584e-06 -0.149917)
(3.12373 2.76477e-06 -0.153127)
(3.1335 3.4119e-06 -0.152732)
(3.13771 1.18487e-05 -0.153909)
(3.13734 3.56173e-05 -0.154132)
(3.13492 6.3086e-05 -0.155352)
(3.12674 0.000106399 -0.158581)
(3.10318 0.000195491 -0.166659)
(3.03755 0.000403895 -0.186752)
(2.84521 0.000923528 -0.239796)
(2.25732 0.0023351 -0.386048)
(1.5766 0.00567806 -0.508417)
(1.51431 0.00581451 -0.496267)
(1.50042 0.00566935 -0.494298)
(1.49526 0.00565216 -0.486938)
(1.47146 0.0053445 -0.489221)
(1.39199 0.00419875 -0.495785)
(1.13173 0.0014394 -0.540835)
(0.903162 -0.000676699 -0.471237)
(3.08428 1.43304e-06 -0.139639)
(3.10999 1.81714e-06 -0.149916)
(3.12373 4.11117e-06 -0.153128)
(3.13351 5.11231e-06 -0.152731)
(3.13771 1.75795e-05 -0.153907)
(3.13735 5.34597e-05 -0.15413)
(3.13493 9.51103e-05 -0.155348)
(3.12677 0.000161242 -0.158572)
(3.10324 0.000298549 -0.166638)
(3.03771 0.000624148 -0.186703)
(2.84558 0.00145549 -0.239671)
(2.25802 0.00379289 -0.385823)
(1.57615 0.00996733 -0.508054)
(1.51349 0.0103477 -0.495978)
(1.49782 0.0104948 -0.49402)
(1.49262 0.0106053 -0.486809)
(1.46848 0.0103531 -0.489335)
(1.38826 0.00887201 -0.496286)
(1.1274 0.00462238 -0.541357)
(0.89887 0.00113377 -0.472394)
(3.08428 2.0586e-06 -0.13964)
(3.10999 2.53149e-06 -0.149914)
(3.12373 5.64508e-06 -0.153129)
(3.13351 7.04614e-06 -0.152728)
(3.13772 2.4097e-05 -0.153905)
(3.13736 7.40599e-05 -0.154127)
(3.13495 0.000132312 -0.155342)
(3.12681 0.000225387 -0.158559)
(3.10333 0.000420119 -0.166608)
(3.03794 0.000886796 -0.186631)
(2.84617 0.0020993 -0.239483)
(2.25934 0.00560114 -0.385465)
(1.57646 0.0154102 -0.50746)
(1.51318 0.0162371 -0.495445)
(1.49577 0.0168187 -0.493485)
(1.4905 0.0171049 -0.486472)
(1.46596 0.0169581 -0.489205)
(1.38482 0.0152811 -0.496615)
(1.12324 0.00987123 -0.541648)
(0.895233 0.00437284 -0.473702)
(3.08428 2.82757e-06 -0.139641)
(3.10999 3.36569e-06 -0.149911)
(3.12373 7.40039e-06 -0.153131)
(3.13351 9.25616e-06 -0.152724)
(3.13773 3.15228e-05 -0.153901)
(3.13738 9.78098e-05 -0.154124)
(3.13498 0.000175401 -0.155335)
(3.12686 0.000300026 -0.158541)
(3.10346 0.000562316 -0.166568)
(3.03826 0.00119597 -0.186532)
(2.84704 0.00286389 -0.23922)
(2.26146 0.00778844 -0.384953)
(1.57787 0.0219721 -0.506568)
(1.51364 0.0234254 -0.494644)
(1.49455 0.0246028 -0.492679)
(1.48917 0.0251494 -0.485898)
(1.4642 0.0251987 -0.488839)
(1.38198 0.0235078 -0.496695)
(1.11953 0.0174183 -0.541627)
(0.892442 0.00965804 -0.475229)
(3.08428 3.76075e-06 -0.139642)
(3.10999 4.34202e-06 -0.149908)
(3.12373 9.40112e-06 -0.153133)
(3.13352 1.17856e-05 -0.15272)
(3.13775 3.99597e-05 -0.153897)
(3.13741 0.000125009 -0.15412)
(3.13502 0.000224926 -0.155325)
(3.12693 0.000386067 -0.158519)
(3.10363 0.000726662 -0.166515)
(3.0387 0.00155424 -0.186403)
(2.84824 0.00375345 -0.238868)
(2.2646 0.010349 -0.384225)
(1.58057 0.0295911 -0.50536)
(1.51498 0.0318843 -0.493589)
(1.4944 0.0338455 -0.491596)
(1.48886 0.0347761 -0.485068)
(1.46342 0.0351648 -0.488199)
(1.38006 0.0337014 -0.496459)
(1.11661 0.0275079 -0.541135)
(0.89024 0.0179638 -0.476606)
(3.08428 4.86037e-06 -0.139644)
(3.10999 5.49e-06 -0.149904)
(3.12373 1.16643e-05 -0.153136)
(3.13352 1.4673e-05 -0.152713)
(3.13777 4.94908e-05 -0.153892)
(3.13744 0.000155901 -0.154115)
(3.13506 0.000281344 -0.155314)
(3.12702 0.000484301 -0.15849)
(3.10384 0.000914524 -0.166447)
(3.03926 0.00196399 -0.186238)
(2.84984 0.00477178 -0.238413)
(2.26887 0.0132844 -0.383278)
(1.58473 0.0382269 -0.503819)
(1.51735 0.0415774 -0.492252)
(1.49553 0.044495 -0.490211)
(1.48975 0.0459462 -0.483953)
(1.46382 0.0468323 -0.487247)
(1.37937 0.0458315 -0.495838)
(1.11517 0.040069 -0.540227)
(0.890489 0.0293521 -0.477139)
(3.08429 6.13707e-06 -0.139647)
(3.10999 6.81286e-06 -0.149899)
(3.12373 1.41904e-05 -0.153139)
(3.13353 1.79226e-05 -0.152705)
(3.13779 6.01641e-05 -0.153886)
(3.13748 0.000190728 -0.154109)
(3.13512 0.000345132 -0.155299)
(3.12714 0.000595568 -0.158455)
(3.10411 0.00112744 -0.166364)
(3.03998 0.0024282 -0.186033)
(2.85188 0.00592445 -0.237844)
(2.27448 0.016611 -0.382053)
(1.59051 0.0478589 -0.501943)
(1.52085 0.0524392 -0.490623)
(1.49798 0.0564965 -0.488537)
(1.49186 0.0586344 -0.482585)
(1.46542 0.0601891 -0.486004)
(1.37993 0.0598872 -0.494867)
(1.1151 0.0551588 -0.538799)
(0.891655 0.0438569 -0.477182)
(3.08429 7.62356e-06 -0.13965)
(3.10999 8.2761e-06 -0.149893)
(3.12373 1.69525e-05 -0.153143)
(3.13353 2.14787e-05 -0.152695)
(3.13782 7.19592e-05 -0.153878)
(3.13753 0.000229752 -0.154102)
(3.13519 0.000416842 -0.155282)
(3.12727 0.000720858 -0.158413)
(3.10444 0.00136726 -0.166263)
(3.04086 0.00295044 -0.185782)
(2.85442 0.00721812 -0.237146)
(2.28156 0.0203273 -0.380524)
(1.59801 0.0584745 -0.499719)
(1.52558 0.0643792 -0.488711)
(1.50189 0.069795 -0.486553)
(1.49531 0.0728461 -0.480939)
(1.4683 0.0752806 -0.484454)
(1.38185 0.0759785 -0.493538)
(1.11654 0.0730107 -0.536801)
(0.893379 0.0621561 -0.477024)
(3.08429 9.34087e-06 -0.139654)
(3.10999 9.82354e-06 -0.149885)
(3.12373 1.99119e-05 -0.153147)
(3.13354 2.52138e-05 -0.152683)
(3.13786 8.47719e-05 -0.15387)
(3.13759 0.000273269 -0.154094)
(3.13528 0.000497204 -0.155261)
(3.12744 0.00086157 -0.158362)
(3.10484 0.00163678 -0.166141)
(3.04193 0.00353689 -0.185482)
(2.85751 0.00866784 -0.236305)
(2.29026 0.0244916 -0.378672)
(1.60737 0.0700884 -0.49718)
(1.53111 0.07733 -0.486465)
(1.50704 0.0843017 -0.484286)
(1.50005 0.0885273 -0.478996)
(1.47247 0.0921085 -0.482572)
(1.38524 0.0941848 -0.491803)
(1.1198 0.0937691 -0.534143)
(0.896139 0.0849212 -0.476428)
(3.08429 1.1279e-05 -0.139659)
(3.10999 1.13732e-05 -0.149876)
(3.12374 2.30191e-05 -0.153152)
(3.13355 2.88761e-05 -0.152669)
(3.1379 9.83919e-05 -0.153861)
(3.13766 0.000321663 -0.154085)
(3.13538 0.000587282 -0.155237)
(3.12764 0.00101981 -0.158302)
(3.10532 0.00194017 -0.165997)
(3.0432 0.00419632 -0.185126)
(2.86123 0.0102933 -0.235309)
(2.30078 0.0291643 -0.376394)
(1.6186 0.0828047 -0.494341)
(1.53667 0.0915545 -0.483932)
(1.5125 0.100159 -0.48179)
(1.50542 0.105717 -0.476805)
(1.47762 0.110677 -0.480386)
(1.39006 0.114561 -0.489628)
(1.12519 0.11761 -0.53093)
(0.900614 0.112441 -0.475031)
(3.08429 1.34256e-05 -0.139666)
(3.10999 1.27545e-05 -0.149866)
(3.12374 2.61348e-05 -0.153157)
(3.13356 3.19093e-05 -0.152652)
(3.13795 0.000112505 -0.15385)
(3.13775 0.000375702 -0.154074)
(3.1355 0.000688991 -0.155208)
(3.12787 0.00119912 -0.158231)
(3.10588 0.00228378 -0.165827)
(3.0447 0.00494045 -0.184707)
(2.86565 0.0121158 -0.234143)
(2.31334 0.0343723 -0.373626)
(1.63183 0.0967655 -0.491161)
(1.54341 0.107205 -0.481122)
(1.51895 0.117474 -0.47902)
(1.51163 0.124461 -0.47435)
(1.48373 0.130983 -0.477864)
(1.39635 0.137161 -0.487015)
(1.13296 0.144918 -0.526975)
(0.90689 0.145794 -0.473395)
(3.08429 1.57428e-05 -0.139673)
(3.10999 1.36033e-05 -0.149852)
(3.12374 2.89698e-05 -0.153163)
(3.13357 3.31504e-05 -0.152633)
(3.13801 0.000126981 -0.153838)
(3.13785 0.000437255 -0.154061)
(3.13564 0.00080625 -0.155174)
(3.12815 0.00140598 -0.158147)
(3.10654 0.00267798 -0.165629)
(3.04647 0.00578619 -0.184219)
(2.87083 0.0141634 -0.23279)
(2.32814 0.0401446 -0.370332)
(1.64714 0.112145 -0.487597)
(1.55146 0.124341 -0.47804)
(1.52659 0.136323 -0.475967)
(1.51887 0.144847 -0.471636)
(1.49091 0.153135 -0.475034)
(1.40429 0.162164 -0.483907)
(1.14368 0.176036 -0.522356)
(0.915933 0.186041 -0.470407)
(3.0843 1.79295e-05 -0.139683)
(3.10999 1.32079e-05 -0.149836)
(3.12374 3.12718e-05 -0.153171)
(3.13359 3.05451e-05 -0.152613)
(3.13808 0.000143077 -0.153825)
(3.13796 0.000510809 -0.154046)
(3.1358 0.000946692 -0.155134)
(3.12847 0.00165118 -0.158049)
(3.10731 0.00313727 -0.165398)
(3.04852 0.00675378 -0.183654)
(2.87687 0.0164684 -0.231225)
(2.34537 0.0465457 -0.36655)
(1.66464 0.129169 -0.483529)
(1.56091 0.143031 -0.474629)
(1.53543 0.156758 -0.472607)
(1.52718 0.166943 -0.468616)
(1.49925 0.177244 -0.471872)
(1.41411 0.18982 -0.480256)
(1.1579 0.211604 -0.516954)
(0.9284 0.234328 -0.466487)
(3.0843 1.86782e-05 -0.139694)
(3.10999 1.09343e-05 -0.149816)
(3.12374 3.35883e-05 -0.15318)
(3.13361 2.27353e-05 -0.15259)
(3.13816 0.000164288 -0.153809)
(3.1381 0.000602563 -0.154027)
(3.136 0.00112026 -0.155086)
(3.12885 0.00194843 -0.157934)
(3.10821 0.00367845 -0.165128)
(3.05089 0.00786661 -0.183004)
(2.88382 0.0190838 -0.229426)
(2.36527 0.0537635 -0.362249)
(1.68446 0.148127 -0.478944)
(1.57172 0.163423 -0.47088)
(1.54528 0.179015 -0.469056)
(1.53648 0.191069 -0.465413)
(1.50883 0.203734 -0.468426)
(1.42615 0.220803 -0.47604)
(1.17642 0.252958 -0.510688)
(0.944909 0.293 -0.46159)
(3.0843 1.22612e-05 -0.139707)
(3.10999 1.00298e-05 -0.149793)
(3.12374 3.72472e-05 -0.153194)
(3.13363 1.45659e-05 -0.152569)
(3.13826 0.000200568 -0.153781)
(3.13827 0.000714963 -0.154002)
(3.13623 0.00132392 -0.155026)
(3.12929 0.00229348 -0.157798)
(3.10924 0.00430218 -0.16482)
(3.05363 0.00914065 -0.182258)
(2.89186 0.0220697 -0.227362)
(2.38834 0.0619087 -0.357258)
(1.70655 0.169669 -0.473877)
(1.58378 0.185845 -0.466766)
(1.55604 0.203296 -0.465155)
(1.54673 0.217432 -0.461828)
(1.51972 0.232858 -0.4645)
(1.44087 0.255581 -0.470977)
(1.20062 0.301254 -0.50251)
(0.966643 0.365215 -0.454814)
(3.0843 -8.93768e-07 -0.139709)
(3.10999 1.06996e-05 -0.149796)
(3.12374 4.18435e-05 -0.153187)
(3.13365 1.2363e-05 -0.152575)
(3.13838 0.000246124 -0.153715)
(3.13846 0.000843452 -0.15398)
(3.1365 0.00155207 -0.15496)
(3.12981 0.00267929 -0.157645)
(3.11044 0.00500701 -0.164469)
(3.05677 0.0106022 -0.18141)
(2.90111 0.0255319 -0.22498)
(2.41472 0.0713541 -0.351748)
(1.73121 0.194722 -0.468098)
(1.59677 0.211043 -0.462196)
(1.56655 0.23055 -0.461272)
(1.55718 0.246986 -0.458389)
(1.53163 0.26599 -0.460704)
(1.45865 0.296573 -0.465772)
(1.23192 0.360406 -0.494038)
(0.994976 0.457218 -0.446159)
(3.0843 -9.93614e-06 -0.139697)
(3.11 1.19967e-05 -0.14981)
(3.12374 4.60186e-05 -0.153177)
(3.13369 1.98826e-05 -0.15259)
(3.13853 0.000291018 -0.153642)
(3.13869 0.000975592 -0.153956)
(3.13681 0.00178974 -0.154886)
(3.1304 0.00308939 -0.157474)
(3.11182 0.00578245 -0.164074)
(3.06042 0.0122735 -0.180444)
(2.91182 0.0296149 -0.222235)
(2.4452 0.0827126 -0.345511)
(1.75838 0.224562 -0.461363)
(1.60911 0.240835 -0.457386)
(1.57483 0.261454 -0.457077)
(1.56036 0.280417 -0.454551)
(1.53785 0.303554 -0.456441)
(1.4757 0.343797 -0.459501)
(1.26957 0.432664 -0.483162)
(1.03042 0.579294 -0.434847)
(3.0843 -1.30147e-05 -0.139683)
(3.11001 1.65547e-05 -0.149827)
(3.12374 4.80548e-05 -0.153164)
(3.13373 4.07061e-05 -0.152599)
(3.1387 0.000339574 -0.153555)
(3.13895 0.00111714 -0.153931)
(3.13718 0.00204871 -0.154805)
(3.13109 0.00355518 -0.157285)
(3.11343 0.00671419 -0.16363)
(3.06468 0.0143972 -0.179348)
(2.92439 0.0350872 -0.219068)
(2.47997 0.0987563 -0.338143)
(1.78744 0.265967 -0.454015)
(1.61686 0.29002 -0.452661)
(1.57444 0.315215 -0.454283)
(1.55091 0.337629 -0.45261)
(1.52841 0.366872 -0.453891)
(1.47124 0.421765 -0.455032)
(1.293 0.540835 -0.470757)
(1.07027 0.756789 -0.415163)
(3.00685 2.36153e-07 -0.0225898)
(3.01704 4.89964e-07 -0.033593)
(3.02656 1.00083e-06 -0.0382558)
(3.03539 1.49736e-06 -0.0413376)
(3.03875 4.17958e-06 -0.0436609)
(3.03876 7.63101e-06 -0.0440527)
(3.03538 1.34025e-05 -0.0449948)
(3.02294 2.48093e-05 -0.0470011)
(2.98762 4.95782e-05 -0.0511953)
(2.89207 0.000106949 -0.0603595)
(2.61777 0.000250478 -0.0822644)
(1.80726 0.000652808 -0.141737)
(0.967148 0.0015234 -0.180869)
(0.936798 0.00223466 -0.165953)
(0.958395 0.00303207 -0.158029)
(0.99416 0.00362883 -0.152333)
(0.997512 0.00397611 -0.153693)
(0.932218 0.00375898 -0.156435)
(0.609124 0.00389944 -0.162612)
(0.547417 0.00189921 -0.136517)
(3.00685 7.39862e-07 -0.0225898)
(3.01704 1.52131e-06 -0.033593)
(3.02656 3.08257e-06 -0.0382556)
(3.03539 4.60016e-06 -0.0413374)
(3.03876 1.28147e-05 -0.0436609)
(3.03876 2.34031e-05 -0.0440528)
(3.03539 4.11084e-05 -0.0449946)
(3.02295 7.60998e-05 -0.0470001)
(2.98764 0.000152223 -0.0511927)
(2.89213 0.000329483 -0.0603532)
(2.61795 0.000777025 -0.0822467)
(1.80756 0.00204808 -0.141689)
(0.96659 0.00527439 -0.180781)
(0.935678 0.00752549 -0.165809)
(0.957064 0.00998255 -0.157819)
(0.99181 0.0118448 -0.152196)
(0.993382 0.0129622 -0.153551)
(0.925934 0.0124969 -0.156338)
(0.600882 0.0123698 -0.162323)
(0.526611 0.00929067 -0.137525)
(3.00685 1.31557e-06 -0.0225898)
(3.01705 2.67928e-06 -0.033593)
(3.02656 5.36471e-06 -0.0382554)
(3.0354 7.97089e-06 -0.0413369)
(3.03876 2.2228e-05 -0.0436609)
(3.03877 4.06598e-05 -0.0440532)
(3.0354 7.1531e-05 -0.0449942)
(3.02297 0.000132659 -0.0469984)
(2.9877 0.000266165 -0.0511881)
(2.89227 0.0005794 -0.0603421)
(2.61835 0.0013796 -0.0822155)
(1.80848 0.00369898 -0.141606)
(0.966868 0.0104139 -0.180604)
(0.934929 0.0143013 -0.165537)
(0.955877 0.0185032 -0.15745)
(0.989777 0.0217668 -0.15194)
(0.989488 0.023836 -0.153298)
(0.919738 0.0235381 -0.156139)
(0.593337 0.0227833 -0.161832)
(0.517445 0.0194532 -0.1375)
(3.00685 1.98601e-06 -0.0225899)
(3.01705 4.01239e-06 -0.033593)
(3.02656 7.93602e-06 -0.038255)
(3.0354 1.1732e-05 -0.0413362)
(3.03877 3.28432e-05 -0.0436609)
(3.03878 6.02325e-05 -0.0440538)
(3.03541 0.000106249 -0.0449938)
(3.02301 0.000197679 -0.0469958)
(2.98779 0.000398317 -0.0511813)
(2.8925 0.000872413 -0.0603253)
(2.61901 0.00209592 -0.0821685)
(1.81023 0.00570937 -0.141475)
(0.968384 0.016895 -0.180327)
(0.933509 0.0225628 -0.165126)
(0.953547 0.0285291 -0.15696)
(0.987319 0.0330943 -0.151585)
(0.985612 0.036124 -0.152966)
(0.913293 0.0363163 -0.155844)
(0.586491 0.0354787 -0.161148)
(0.512303 0.0301817 -0.137283)
(3.00685 2.77909e-06 -0.02259)
(3.01705 5.56998e-06 -0.033593)
(3.02656 1.08841e-05 -0.0382544)
(3.0354 1.60093e-05 -0.0413353)
(3.03878 4.50049e-05 -0.043661)
(3.03879 8.27613e-05 -0.0440549)
(3.03543 0.000146409 -0.0449932)
(3.02306 0.000273309 -0.0469924)
(2.98791 0.000552991 -0.0511718)
(2.89284 0.00121777 -0.060302)
(2.62 0.00294741 -0.0821028)
(1.81303 0.00812749 -0.141286)
(0.971381 0.0246654 -0.179952)
(0.933239 0.032375 -0.164582)
(0.952113 0.0401816 -0.156347)
(0.985532 0.0459421 -0.151123)
(0.982223 0.0499659 -0.152531)
(0.907012 0.0509307 -0.155435)
(0.579483 0.0510616 -0.160233)
(0.507965 0.042919 -0.136978)
(3.00685 3.72497e-06 -0.0225901)
(3.01705 7.39714e-06 -0.033593)
(3.02657 1.42732e-05 -0.0382536)
(3.03541 2.09064e-05 -0.041334)
(3.03879 5.89771e-05 -0.0436612)
(3.03881 0.000108723 -0.0440563)
(3.03546 0.000192842 -0.0449926)
(3.02313 0.000361048 -0.0469878)
(2.98809 0.000733037 -0.0511593)
(2.89329 0.00162119 -0.060271)
(2.62137 0.00394605 -0.0820153)
(1.81707 0.0109712 -0.141028)
(0.976074 0.0336472 -0.179483)
(0.93427 0.0436393 -0.163904)
(0.95175 0.0534053 -0.155616)
(0.984542 0.0603289 -0.150546)
(0.979422 0.0653934 -0.151979)
(0.901286 0.0673274 -0.154886)
(0.573079 0.069444 -0.159093)
(0.504375 0.0578211 -0.136508)
(3.00685 4.84606e-06 -0.0225903)
(3.01705 9.53185e-06 -0.033593)
(3.02657 1.815e-05 -0.0382527)
(3.03542 2.64949e-05 -0.0413324)
(3.03881 7.49615e-05 -0.0436614)
(3.03883 0.000138484 -0.0440582)
(3.0355 0.000246177 -0.0449918)
(3.02322 0.000462003 -0.046982)
(2.98831 0.000940487 -0.0511433)
(2.89389 0.00208653 -0.0602312)
(2.62319 0.00509914 -0.0819029)
(1.82253 0.0142484 -0.140696)
(0.982615 0.0437769 -0.17893)
(0.936709 0.0562808 -0.163099)
(0.952513 0.0681355 -0.154787)
(0.98436 0.0762347 -0.149845)
(0.977257 0.0824172 -0.151288)
(0.8964 0.0855108 -0.154181)
(0.567972 0.0905939 -0.157734)
(0.501406 0.0756467 -0.135947)
(3.00685 6.15086e-06 -0.0225905)
(3.01705 1.20017e-05 -0.0335929)
(3.02657 2.25511e-05 -0.0382515)
(3.03543 3.28062e-05 -0.0413305)
(3.03884 9.31035e-05 -0.0436617)
(3.03886 0.000172337 -0.0440606)
(3.03556 0.000306935 -0.0449909)
(3.02334 0.000577109 -0.0469748)
(2.9886 0.0011771 -0.0511232)
(2.89466 0.00261721 -0.0601813)
(2.62551 0.00641321 -0.081762)
(1.8296 0.0179672 -0.140284)
(0.991128 0.0550089 -0.178291)
(0.940644 0.0702395 -0.162172)
(0.954411 0.0843311 -0.153875)
(0.984985 0.0936578 -0.14904)
(0.975807 0.101081 -0.150488)
(0.89266 0.10556 -0.153357)
(0.565255 0.114404 -0.156146)
(0.501554 0.0965202 -0.134876)
(3.00685 7.64628e-06 -0.0225908)
(3.01706 1.48172e-05 -0.0335929)
(3.02657 2.74901e-05 -0.03825)
(3.03544 3.98531e-05 -0.0413281)
(3.03887 0.000113498 -0.043662)
(3.03889 0.000210497 -0.0440637)
(3.03562 0.000375554 -0.0449899)
(3.02348 0.000707251 -0.046966)
(2.98896 0.00144471 -0.0510986)
(2.89561 0.00321707 -0.0601201)
(2.62839 0.00789598 -0.0815894)
(1.83843 0.0221402 -0.139786)
(1.00171 0.0673144 -0.177577)
(0.946118 0.0854544 -0.161126)
(0.957464 0.101941 -0.152874)
(0.986396 0.112605 -0.148124)
(0.97504 0.121446 -0.149565)
(0.890019 0.12765 -0.15242)
(0.56474 0.140622 -0.154283)
(0.503343 0.12045 -0.133525)
(3.00686 9.3415e-06 -0.0225911)
(3.01706 1.79673e-05 -0.0335928)
(3.02658 3.29388e-05 -0.0382482)
(3.03546 4.76187e-05 -0.0413252)
(3.0389 0.000136185 -0.0436625)
(3.03893 0.000253106 -0.0440674)
(3.03569 0.000452402 -0.0449887)
(3.02366 0.000853331 -0.0469553)
(2.98939 0.00174541 -0.0510688)
(2.89677 0.00389084 -0.0600462)
(2.63191 0.00955782 -0.0813814)
(1.84918 0.0267884 -0.139194)
(1.01448 0.0806836 -0.176793)
(0.953166 0.101879 -0.159962)
(0.961705 0.120908 -0.151797)
(0.98862 0.133059 -0.14709)
(0.975004 0.143522 -0.148537)
(0.88845 0.151884 -0.151339)
(0.566328 0.169208 -0.152264)
(0.505681 0.148128 -0.131892)
(3.00686 1.12271e-05 -0.0225916)
(3.01707 2.14056e-05 -0.0335927)
(3.02658 3.88272e-05 -0.0382461)
(3.03548 5.59891e-05 -0.0413218)
(3.03895 0.000161111 -0.043663)
(3.03898 0.000300232 -0.0440721)
(3.03578 0.000537862 -0.0449873)
(3.02387 0.00101647 -0.0469427)
(2.98991 0.002082 -0.0510333)
(2.89816 0.00464494 -0.0599582)
(2.63613 0.0114126 -0.0811346)
(1.86202 0.0319312 -0.138494)
(1.02951 0.095119 -0.175949)
(0.962092 0.119475 -0.158668)
(0.967257 0.141195 -0.150639)
(0.991724 0.154981 -0.14595)
(0.975792 0.167301 -0.147397)
(0.888046 0.178309 -0.150118)
(0.569914 0.200404 -0.150112)
(0.508555 0.180231 -0.13005)
(3.00686 1.32636e-05 -0.0225922)
(3.01707 2.50356e-05 -0.0335926)
(3.02659 4.50199e-05 -0.0382436)
(3.0355 6.46347e-05 -0.0413178)
(3.039 0.000188059 -0.0436637)
(3.03904 0.000351891 -0.0440776)
(3.03589 0.000632498 -0.0449858)
(3.02412 0.00119845 -0.0469279)
(2.99053 0.00245877 -0.0509917)
(2.89981 0.0054887 -0.059855)
(2.64111 0.013479 -0.080846)
(1.87708 0.0376076 -0.137696)
(1.04684 0.110674 -0.175045)
(0.973176 0.138207 -0.157241)
(0.974445 0.162725 -0.149402)
(0.995869 0.178295 -0.144714)
(0.977515 0.192747 -0.146149)
(0.888958 0.206972 -0.14873)
(0.575515 0.234533 -0.147811)
(0.512549 0.217438 -0.127962)
(3.00686 1.53739e-05 -0.0225929)
(3.01708 2.86705e-05 -0.0335925)
(3.02659 5.12185e-05 -0.0382408)
(3.03552 7.28226e-05 -0.0413132)
(3.03906 0.000216614 -0.0436645)
(3.03911 0.000408214 -0.0440843)
(3.03602 0.000737614 -0.0449843)
(3.02441 0.00140289 -0.0469108)
(2.99126 0.00288365 -0.0509433)
(2.90175 0.00643768 -0.059735)
(2.64693 0.0157856 -0.0805136)
(1.89454 0.0438732 -0.136779)
(1.0666 0.127447 -0.174104)
(0.985966 0.158116 -0.155711)
(0.983068 0.185467 -0.148083)
(1.00107 0.202962 -0.143414)
(0.9803 0.219842 -0.14481)
(0.891376 0.237952 -0.147185)
(0.583723 0.271888 -0.145342)
(0.517653 0.260751 -0.125639)
(3.00687 1.73821e-05 -0.0225938)
(3.01709 3.19161e-05 -0.0335922)
(3.0266 5.67731e-05 -0.0382376)
(3.03555 7.89354e-05 -0.041308)
(3.03913 0.000246304 -0.0436656)
(3.03919 0.000470342 -0.0440924)
(3.03617 0.000857133 -0.0449827)
(3.02475 0.00163824 -0.0468911)
(2.99211 0.00337175 -0.0508872)
(2.904 0.00751713 -0.0595966)
(2.65365 0.018376 -0.0801335)
(1.91455 0.0507929 -0.135742)
(1.08884 0.145575 -0.173126)
(1.00032 0.179222 -0.154088)
(0.992982 0.20936 -0.146676)
(1.00728 0.228941 -0.142061)
(0.984201 0.248574 -0.143368)
(0.895512 0.271416 -0.145432)
(0.594718 0.313076 -0.142813)
(0.524988 0.311338 -0.123086)
(3.00687 1.88148e-05 -0.0225949)
(3.0171 3.3896e-05 -0.0335919)
(3.02661 6.03773e-05 -0.0382342)
(3.03559 7.92241e-05 -0.0413018)
(3.03921 0.000278207 -0.0436672)
(3.03929 0.000544147 -0.0441021)
(3.03634 0.00100209 -0.0449809)
(3.02515 0.00192103 -0.046868)
(2.9931 0.00394575 -0.0508222)
(2.90661 0.00875841 -0.059438)
(2.66138 0.0212942 -0.0796995)
(1.93731 0.0584771 -0.134603)
(1.11355 0.165285 -0.172109)
(1.01607 0.201593 -0.152387)
(1.00402 0.23436 -0.145243)
(1.01447 0.256225 -0.140681)
(0.989357 0.278996 -0.141888)
(0.901786 0.30757 -0.143561)
(0.609226 0.358745 -0.140004)
(0.534787 0.370752 -0.120157)
(3.00687 1.85324e-05 -0.0225963)
(3.01711 3.28015e-05 -0.0335914)
(3.02661 5.90681e-05 -0.038231)
(3.03563 6.26703e-05 -0.0412946)
(3.03931 0.000322518 -0.0436697)
(3.0394 0.000654916 -0.0441132)
(3.03655 0.00120338 -0.044978)
(3.02562 0.00227822 -0.0468405)
(2.99424 0.00462373 -0.0507471)
(2.9096 0.0101771 -0.0592559)
(2.67003 0.0245866 -0.0792085)
(1.96298 0.0670608 -0.133344)
(1.14072 0.186925 -0.171066)
(1.033 0.225325 -0.150594)
(1.01597 0.260399 -0.143825)
(1.02243 0.28469 -0.139228)
(0.995689 0.311034 -0.140247)
(0.91043 0.346683 -0.141372)
(0.627991 0.409801 -0.137135)
(0.547459 0.441332 -0.11704)
(3.00687 1.39725e-05 -0.0225976)
(3.01712 2.68347e-05 -0.0335909)
(3.02661 5.15855e-05 -0.0382303)
(3.03567 3.36831e-05 -0.0412892)
(3.03944 0.000383906 -0.0436641)
(3.03954 0.000812596 -0.0441218)
(3.0368 0.00147667 -0.0449739)
(3.02617 0.00272719 -0.04681)
(2.99556 0.0054204 -0.050663)
(2.91304 0.01179 -0.05905)
(2.67986 0.0283137 -0.0786532)
(1.992 0.0767943 -0.132004)
(1.17028 0.211039 -0.169994)
(1.05074 0.250519 -0.148677)
(1.0285 0.287391 -0.142458)
(1.03104 0.314309 -0.137855)
(1.00336 0.344854 -0.138737)
(0.921082 0.389627 -0.139151)
(0.652261 0.467623 -0.134041)
(0.563831 0.525985 -0.113382)
(3.00688 7.01303e-06 -0.0225976)
(3.01713 1.89371e-05 -0.0335918)
(3.02661 4.49383e-05 -0.0382317)
(3.03573 1.63333e-05 -0.0412851)
(3.0396 0.000454095 -0.0436512)
(3.03972 0.000982772 -0.0441273)
(3.03709 0.00177427 -0.0449678)
(3.0268 0.00322338 -0.0467763)
(2.99708 0.00631058 -0.0505697)
(2.917 0.0136074 -0.058818)
(2.69114 0.032554 -0.0780233)
(2.02507 0.0879269 -0.130478)
(1.20251 0.238419 -0.168978)
(1.06887 0.277346 -0.146692)
(1.04115 0.315228 -0.141216)
(1.03972 0.344998 -0.136527)
(1.01162 0.380926 -0.137055)
(0.932292 0.437715 -0.136563)
(0.681487 0.534278 -0.130957)
(0.584172 0.629887 -0.109675)
(3.00688 3.92756e-06 -0.0225956)
(3.01713 1.67879e-05 -0.0335932)
(3.02661 4.82458e-05 -0.0382332)
(3.0358 2.67554e-05 -0.0412802)
(3.0398 0.000526266 -0.0436352)
(3.03994 0.00113185 -0.0441328)
(3.03744 0.00203914 -0.0449612)
(3.02752 0.00369818 -0.0467397)
(2.99881 0.00723077 -0.0504671)
(2.92154 0.0155873 -0.0585604)
(2.70405 0.0373093 -0.0773134)
(2.06294 0.100712 -0.128815)
(1.23766 0.270368 -0.168029)
(1.08648 0.306267 -0.144663)
(1.05309 0.343762 -0.140156)
(1.05064 0.374392 -0.135322)
(1.02073 0.420224 -0.135423)
(0.945095 0.491245 -0.134055)
(0.716939 0.611607 -0.127676)
(0.608495 0.760978 -0.105432)
(3.00689 5.45936e-06 -0.0225929)
(3.01714 2.25178e-05 -0.0335954)
(3.02661 6.50862e-05 -0.0382329)
(3.03588 8.48686e-05 -0.0412737)
(3.04001 0.000605431 -0.0436188)
(3.04018 0.00125119 -0.0441406)
(3.03783 0.00224741 -0.0449554)
(3.02834 0.00410638 -0.046701)
(3.00079 0.00809946 -0.0503569)
(2.92671 0.0175748 -0.0582816)
(2.71884 0.0422616 -0.0765441)
(2.10682 0.114222 -0.126774)
(1.27739 0.306369 -0.16728)
(1.1028 0.339821 -0.142989)
(1.06356 0.375615 -0.139222)
(1.06149 0.403879 -0.134591)
(1.03199 0.460035 -0.133525)
(0.965111 0.547544 -0.131073)
(0.769196 0.696713 -0.124682)
(0.639418 0.931302 -0.10126)
(2.97865 1.74443e-07 0.000344598)
(2.97451 3.49847e-07 -0.00395162)
(2.97658 1.29876e-06 -0.00724668)
(2.97908 2.44005e-06 -0.010391)
(2.9801 4.07955e-06 -0.0125134)
(2.97929 6.99506e-06 -0.0131924)
(2.97364 1.27875e-05 -0.0142254)
(2.95654 2.50208e-05 -0.0158869)
(2.91186 5.20209e-05 -0.0188313)
(2.79526 0.000114463 -0.0246375)
(2.46111 0.000270484 -0.037861)
(1.44603 0.000735369 -0.0744573)
(0.502859 0.00200674 -0.101972)
(0.468122 0.00429692 -0.0880373)
(0.542615 0.00662718 -0.0755105)
(0.659546 0.00772428 -0.0705971)
(0.682196 0.0081793 -0.0707678)
(0.608728 0.00765038 -0.0708627)
(0.308045 0.00717216 -0.0679548)
(0.299853 0.00650326 -0.0483673)
(2.97865 5.35667e-07 0.000344568)
(2.97451 1.07653e-06 -0.00395166)
(2.97658 3.96038e-06 -0.00724667)
(2.97908 7.43001e-06 -0.0103909)
(2.9801 1.24159e-05 -0.0125137)
(2.97929 2.12774e-05 -0.0131926)
(2.97365 3.88844e-05 -0.0142255)
(2.95655 7.60983e-05 -0.0158869)
(2.91188 0.000158409 -0.0188312)
(2.79533 0.00034982 -0.0246373)
(2.4613 0.000833112 -0.0378592)
(1.44644 0.00228568 -0.0744494)
(0.502617 0.00689657 -0.1019)
(0.465472 0.0139874 -0.0879058)
(0.540014 0.0205016 -0.0753134)
(0.655612 0.0235098 -0.0704768)
(0.675628 0.0247557 -0.0706837)
(0.599201 0.0234232 -0.0708125)
(0.293051 0.0217574 -0.0679047)
(0.272316 0.0229656 -0.0485699)
(2.97865 9.32045e-07 0.000344503)
(2.97451 1.88147e-06 -0.00395174)
(2.97659 6.82549e-06 -0.00724666)
(2.97908 1.27828e-05 -0.0103907)
(2.9801 2.13654e-05 -0.0125143)
(2.9793 3.66438e-05 -0.013193)
(2.97366 6.70588e-05 -0.0142259)
(2.95657 0.000131512 -0.0158871)
(2.91194 0.000274631 -0.0188313)
(2.79548 0.00060985 -0.0246372)
(2.46173 0.00146614 -0.0378569)
(1.44764 0.00408067 -0.0744361)
(0.503625 0.0134331 -0.101768)
(0.464479 0.0256814 -0.0876683)
(0.539115 0.0359356 -0.0749654)
(0.652473 0.0410812 -0.0702602)
(0.669128 0.0437732 -0.0705124)
(0.589274 0.0427976 -0.0706787)
(0.279749 0.0400612 -0.0677606)
(0.26011 0.0427394 -0.0483497)
(2.97865 1.38397e-06 0.000344397)
(2.97451 2.80805e-06 -0.00395188)
(2.97659 1.00316e-05 -0.00724664)
(2.97909 1.87586e-05 -0.0103904)
(2.98011 3.13861e-05 -0.0125153)
(2.97931 5.39448e-05 -0.0131938)
(2.97367 9.90089e-05 -0.0142264)
(2.95661 0.000194862 -0.0158874)
(2.91204 0.000408653 -0.0188314)
(2.79572 0.000912563 -0.0246371)
(2.46242 0.00221103 -0.0378538)
(1.44986 0.00623452 -0.0744115)
(0.506252 0.0213935 -0.101577)
(0.466145 0.0387675 -0.0873149)
(0.540791 0.0522927 -0.0744878)
(0.650409 0.0596302 -0.0699602)
(0.662876 0.0640817 -0.0702509)
(0.579416 0.064058 -0.0704862)
(0.26902 0.0618791 -0.0674308)
(0.253899 0.0629033 -0.047941)
(2.97865 1.91125e-06 0.000344244)
(2.97451 3.89196e-06 -0.00395206)
(2.97659 1.36892e-05 -0.00724663)
(2.97909 2.55653e-05 -0.0103899)
(2.98011 4.28308e-05 -0.0125167)
(2.97932 7.37962e-05 -0.0131948)
(2.9737 0.00013588 -0.0142271)
(2.95667 0.000268421 -0.0158879)
(2.91217 0.00056523 -0.0188315)
(2.79606 0.00126841 -0.0246368)
(2.46345 0.00309275 -0.0378495)
(1.45332 0.00880297 -0.0743699)
(0.510724 0.0306289 -0.101342)
(0.469523 0.05319 -0.0868762)
(0.543885 0.069764 -0.0739264)
(0.649119 0.0793364 -0.0695839)
(0.656901 0.0857324 -0.0699117)
(0.569832 0.0870136 -0.070235)
(0.260024 0.0873012 -0.0669308)
(0.249966 0.0847767 -0.0474544)
(2.97865 2.53297e-06 0.000344035)
(2.97451 5.16289e-06 -0.0039523)
(2.9766 1.78824e-05 -0.00724661)
(2.9791 3.33632e-05 -0.0103893)
(2.98012 5.59706e-05 -0.0125186)
(2.97933 9.6659e-05 -0.0131962)
(2.97373 0.000178497 -0.0142281)
(2.95675 0.000353759 -0.0158884)
(2.91236 0.000747529 -0.0188316)
(2.79654 0.00168413 -0.0246362)
(2.46488 0.00412657 -0.0378434)
(1.45822 0.0118143 -0.0743103)
(0.517196 0.0410532 -0.101074)
(0.474611 0.0689157 -0.0863553)
(0.548237 0.0883908 -0.0732932)
(0.648542 0.100244 -0.0691324)
(0.651276 0.10874 -0.0694841)
(0.560648 0.11158 -0.0699193)
(0.252749 0.115806 -0.066242)
(0.247589 0.10853 -0.0468246)
(2.97865 3.26324e-06 0.000343759)
(2.97452 6.64319e-06 -0.00395261)
(2.9766 2.26723e-05 -0.0072466)
(2.97911 4.22679e-05 -0.0103885)
(2.98013 7.10041e-05 -0.012521)
(2.97935 0.000122874 -0.013198)
(2.97378 0.000227465 -0.0142294)
(2.95685 0.000452013 -0.0158891)
(2.9126 0.000957796 -0.0188315)
(2.79716 0.00216436 -0.024635)
(2.46677 0.00532257 -0.0378344)
(1.46474 0.0152847 -0.0742322)
(0.525769 0.0525905 -0.100779)
(0.481411 0.0858559 -0.0857562)
(0.553763 0.108133 -0.0725983)
(0.648652 0.122351 -0.0686061)
(0.646035 0.133084 -0.068975)
(0.551789 0.137723 -0.0695379)
(0.246404 0.147036 -0.0654431)
(0.245863 0.134666 -0.0461267)
(2.97865 4.10805e-06 0.000343407)