/*--------------------------------*- C++ -*----------------------------------*\
  =========                 |
  \\      /  F ield         | OpenFOAM: The Open Source CFD Toolbox
   \\    /   O peration     | Website:  https://openfoam.org
    \\  /    A nd           | Version:  6.0
     \\/     M anipulation  |
\*---------------------------------------------------------------------------*/
FoamFile
{
    version     2.0;
    format      ascii;
    class       volScalarField;
    location    "3.5";
    object      p;
}
// * * * * * * * * * * * * * * * * * * * * * * * * * * * * * * * * * * * * * //

dimensions      [1 -1 -2 0 0 0 0];

internalField   nonuniform List<scalar> 
192000
(
0.758338
0.653488
0.611402
0.584044
0.56645
0.55351
0.543644
0.535795
0.529478
0.524005
0.519614
0.515442
0.512405
0.508958
0.507598
0.507838
0.50961
0.51277
0.531101
0.556284
0.677381
0.87821
1.68273
3.52289
4.77454
4.80008
4.76648
4.68413
4.66693
4.67912
4.72175
4.81184
4.89879
4.98733
5.10461
5.26993
5.50955
5.89185
6.51168
7.7763
0.758337
0.653489
0.611403
0.584045
0.566449
0.553511
0.543643
0.535795
0.529478
0.524006
0.519614
0.515442
0.512404
0.508962
0.507584
0.507824
0.509699
0.512666
0.531534
0.555206
0.679357
0.873462
1.68671
3.51876
4.77602
4.80143
4.76744
4.68453
4.6675
4.67968
4.72225
4.81206
4.89881
4.98734
5.10462
5.26993
5.50945
5.89157
6.51062
7.77629
0.758337
0.653489
0.611403
0.584045
0.566449
0.55351
0.543643
0.535795
0.529478
0.524006
0.519614
0.515442
0.512404
0.508962
0.507583
0.507822
0.509696
0.512659
0.531507
0.555155
0.67917
0.872908
1.6857
3.51579
4.77758
4.80261
4.76824
4.685
4.6686
4.68088
4.72354
4.81303
4.89893
4.98725
5.10458
5.2699
5.50926
5.89088
6.50802
7.77194
0.758338
0.653488
0.611402
0.584044
0.56645
0.55351
0.543644
0.535795
0.529478
0.524006
0.519615
0.515442
0.512406
0.508958
0.507596
0.507834
0.509602
0.512751
0.531023
0.556138
0.676826
0.876797
1.67936
3.51449
4.7793
4.80373
4.76908
4.68593
4.67057
4.68301
4.72592
4.81502
4.89934
4.98715
5.10458
5.26994
5.5091
5.88993
6.504
7.76189
0.758338
0.653489
0.611402
0.584043
0.56645
0.55351
0.543644
0.535795
0.529479
0.524006
0.519615
0.515441
0.512407
0.508956
0.507595
0.507829
0.509608
0.512745
0.531024
0.55624
0.676249
0.8773
1.67457
3.50834
4.78111
4.80542
4.77056
4.68763
4.67334
4.68593
4.72902
4.81753
4.89985
4.98702
5.10447
5.26979
5.50859
5.88831
6.49853
7.74984
0.758338
0.653488
0.611402
0.584044
0.56645
0.55351
0.543644
0.535795
0.529479
0.524006
0.519615
0.515442
0.512406
0.508958
0.50759
0.507828
0.509593
0.512732
0.53092
0.555931
0.67586
0.874616
1.67165
3.49854
4.78336
4.80805
4.77303
4.69038
4.67702
4.68976
4.73294
4.82063
4.90074
4.98723
5.10451
5.26964
5.50785
5.88604
6.49204
7.73724
0.758337
0.653489
0.611403
0.584045
0.566449
0.55351
0.543643
0.535795
0.529478
0.524006
0.519614
0.515443
0.512403
0.508961
0.507576
0.50781
0.509695
0.512657
0.531321
0.554928
0.676969
0.869379
1.66969
3.4825
4.78502
4.81112
4.7762
4.6942
4.68165
4.6945
4.73766
4.82409
4.90175
4.9875
5.10446
5.2692
5.50648
5.8827
6.48431
7.72519
0.758336
0.653489
0.611403
0.584046
0.566449
0.553511
0.543642
0.535796
0.529478
0.524007
0.519613
0.515444
0.512401
0.508962
0.507575
0.507811
0.509678
0.512637
0.531193
0.554651
0.67595
0.865581
1.66479
3.46589
4.78588
4.81392
4.77948
4.69885
4.68723
4.70031
4.74374
4.82789
4.90338
4.98825
5.10459
5.26869
5.50477
5.87857
6.47566
7.71175
0.758336
0.653488
0.611403
0.584046
0.566449
0.553511
0.543642
0.535796
0.529477
0.524008
0.519612
0.515446
0.512399
0.508964
0.507564
0.507797
0.509675
0.512609
0.531069
0.554385
0.674821
0.862771
1.6565
3.44504
4.78686
4.81712
4.78329
4.70429
4.69368
4.70699
4.75078
4.83212
4.9054
4.98925
5.10478
5.26789
5.50244
5.87347
6.46598
7.69779
0.758336
0.653488
0.611403
0.584047
0.566449
0.553512
0.543642
0.535796
0.529476
0.524009
0.51961
0.515448
0.512395
0.508968
0.507548
0.507777
0.509637
0.512547
0.530866
0.554007
0.673436
0.859327
1.64658
3.41959
4.78851
4.82108
4.78783
4.71046
4.70096
4.71454
4.7588
4.83714
4.90803
4.99065
5.10513
5.26688
5.49961
5.86758
6.45548
7.68335
0.758336
0.653488
0.611403
0.584047
0.566448
0.553512
0.543641
0.535797
0.529475
0.52401
0.519608
0.515451
0.512389
0.508975
0.507526
0.507753
0.509568
0.512456
0.530584
0.55352
0.671723
0.855227
1.63484
3.38926
4.79109
4.82592
4.79313
4.71719
4.70891
4.72284
4.76764
4.84299
4.91136
4.99244
5.10561
5.26566
5.49631
5.86101
6.44428
7.66817
0.758336
0.653488
0.611403
0.584047
0.566448
0.553512
0.543641
0.535798
0.529474
0.524012
0.519606
0.515455
0.512382
0.508983
0.507495
0.507714
0.509519
0.512359
0.530293
0.552956
0.669771
0.850552
1.62059
3.352
4.79502
4.8322
4.79967
4.72468
4.71747
4.73174
4.77698
4.84951
4.91531
4.99448
5.10611
5.26424
5.49251
5.85381
6.43254
7.65336
0.758336
0.653488
0.611403
0.584047
0.566448
0.553512
0.54364
0.535798
0.529473
0.524013
0.519603
0.51546
0.512374
0.508994
0.507457
0.50767
0.509438
0.512229
0.529914
0.552271
0.667441
0.844913
1.60422
3.30782
4.80015
4.83993
4.80753
4.733
4.7265
4.74108
4.78671
4.85667
4.91989
4.99683
5.10666
5.26268
5.48818
5.84598
6.42042
7.63942
0.758337
0.653488
0.611404
0.584047
0.566448
0.553512
0.54364
0.535799
0.529472
0.524016
0.5196
0.515465
0.512363
0.509007
0.507412
0.507616
0.509337
0.51207
0.529468
0.551464
0.66478
0.8388
1.58501
3.25631
4.80657
4.84919
4.81673
4.74212
4.736
4.75081
4.79671
4.86441
4.92508
4.99953
5.10727
5.26097
5.48334
5.83756
6.40802
7.62656
0.758337
0.653489
0.611403
0.584047
0.566447
0.553513
0.543639
0.5358
0.52947
0.524018
0.519596
0.515471
0.512352
0.509021
0.507358
0.507551
0.509206
0.511871
0.528943
0.550582
0.66174
0.832868
1.56184
3.19706
4.81453
4.86018
4.82728
4.75187
4.74591
4.76086
4.80689
4.87258
4.93078
5.00252
5.10775
5.25893
5.47792
5.82856
6.39536
7.61494
0.758339
0.653488
0.611402
0.584045
0.566448
0.553512
0.543639
0.535801
0.529469
0.52402
0.519592
0.515477
0.512341
0.509033
0.507312
0.507496
0.509014
0.511765
0.528041
0.550451
0.656757
0.831586
1.52938
3.13276
4.82422
4.87291
4.83914
4.76215
4.75622
4.77128
4.81731
4.88116
4.93702
5.0059
5.10813
5.25649
5.47186
5.81897
6.38245
7.60395
0.758339
0.653488
0.611402
0.584044
0.566448
0.553513
0.543638
0.535802
0.529467
0.524023
0.519587
0.515483
0.512328
0.509049
0.507256
0.507428
0.508883
0.511549
0.527445
0.549409
0.652935
0.822955
1.50091
3.05666
4.8359
4.88757
4.85256
4.77308
4.76694
4.78201
4.82791
4.89011
4.94376
5.00967
5.10852
5.2537
5.46513
5.80881
6.36926
7.5933
0.758339
0.653488
0.611403
0.584045
0.566447
0.553513
0.543637
0.535804
0.529464
0.524027
0.519581
0.515492
0.512312
0.509069
0.507193
0.507355
0.508757
0.511342
0.52681
0.548136
0.648765
0.813563
1.46887
2.96991
4.85079
4.90452
4.86772
4.78444
4.77765
4.79267
4.83836
4.89912
4.95077
5.01369
5.10895
5.25063
5.4579
5.79832
6.35608
7.58344
0.758338
0.653488
0.611404
0.584047
0.566445
0.553515
0.543634
0.535806
0.529461
0.52403
0.519575
0.515502
0.512294
0.509091
0.507121
0.507269
0.508689
0.511038
0.526464
0.546047
0.64564
0.796987
1.44074
2.86794
4.86941
4.9239
4.88477
4.79635
4.78823
4.80314
4.84848
4.90795
4.95771
5.01762
5.10904
5.24701
5.45009
5.78724
6.34285
7.57552
0.758338
0.653488
0.611404
0.584047
0.566444
0.553515
0.543633
0.535807
0.529458
0.524034
0.519569
0.515511
0.512278
0.509111
0.507055
0.50719
0.50853
0.510781
0.525699
0.544624
0.640738
0.785676
1.40305
2.75891
4.89043
4.94429
4.90262
4.80835
4.79845
4.81322
4.85816
4.91642
4.96444
5.02139
5.10882
5.24264
5.44146
5.77548
6.32961
7.57052
0.75834
0.653488
0.611403
0.584045
0.566445
0.553515
0.543633
0.535808
0.529456
0.524037
0.519564
0.515518
0.512264
0.509127
0.506998
0.507121
0.5083
0.51059
0.524574
0.543939
0.633872
0.781009
1.35406
2.64869
4.91319
4.965
4.92061
4.82036
4.80872
4.82325
4.86749
4.92453
4.97088
5.02494
5.10817
5.23744
5.43177
5.76282
6.3163
7.56852
0.758341
0.653488
0.611402
0.584044
0.566445
0.553515
0.543632
0.535809
0.529454
0.52404
0.519559
0.515526
0.51225
0.509145
0.506934
0.507041
0.50815
0.510335
0.5238
0.542545
0.628623
0.768631
1.31423
2.53138
4.93337
4.98541
4.93829
4.8323
4.81871
4.83284
4.87609
4.93183
4.97652
5.0277
5.10655
5.23093
5.4205
5.74884
6.30242
7.56903
0.758341
0.653488
0.611402
0.584044
0.566444
0.553515
0.543631
0.535811
0.529452
0.524045
0.519553
0.515536
0.512234
0.509166
0.506866
0.506964
0.507971
0.510093
0.52294
0.540943
0.623365
0.756631
1.275
2.42444
4.93446
5.00365
4.95491
4.84525
4.82915
4.84272
4.88463
4.93897
4.98184
5.03012
5.1043
5.22343
5.40771
5.73322
6.28724
7.57037
0.758341
0.653489
0.611402
0.584044
0.566444
0.553515
0.54363
0.535813
0.529449
0.524049
0.519547
0.515546
0.512217
0.509187
0.506795
0.506876
0.507846
0.50989
0.522049
0.53975
0.618094
0.743288
1.24955
2.33859
4.90248
5.01728
4.96871
4.85807
4.83931
4.8522
4.89253
4.94549
4.98649
5.03192
5.10133
5.21489
5.39347
5.71584
6.27037
7.57047
0.758341
0.653488
0.611402
0.584044
0.566443
0.553517
0.543628
0.535816
0.529446
0.524055
0.51954
0.515557
0.512198
0.50921
0.506727
0.506798
0.507671
0.50966
0.521247
0.538228
0.613156
0.732139
1.22037
2.26392
4.85021
5.02639
4.97981
4.87127
4.84979
4.86167
4.89987
4.95127
4.99029
5.03284
5.09741
5.20515
5.37771
5.69665
6.25122
7.56751
0.758341
0.653487
0.611401
0.584044
0.566442
0.553518
0.543626
0.535819
0.529442
0.524061
0.519531
0.51557
0.512176
0.509235
0.506655
0.506716
0.507507
0.509462
0.52037
0.536933
0.608236
0.721968
1.19278
2.19847
4.78238
5.02986
4.98723
4.88379
4.85961
4.87043
4.90633
4.95632
4.99344
5.03295
5.09263
5.19414
5.36033
5.6754
6.22903
7.55905
0.758341
0.653487
0.611401
0.584045
0.566441
0.55352
0.543624
0.535823
0.529438
0.524068
0.519521
0.515585
0.512152
0.509262
0.506576
0.506624
0.507312
0.509154
0.519703
0.534915
0.60453
0.710631
1.16927
2.13642
4.70484
5.02865
4.99096
4.89481
4.86845
4.87828
4.91183
4.96016
4.99525
5.03195
5.08681
5.18209
5.34154
5.6518
6.20319
7.54349
0.758338
0.653489
0.611401
0.584045
0.566442
0.55352
0.543624
0.535825
0.529436
0.524074
0.519513
0.515597
0.512129
0.509288
0.506499
0.50653
0.507143
0.508871
0.518979
0.533285
0.600658
0.700273
1.14668
2.07703
4.62154
5.02411
4.99152
4.90357
4.87592
4.88488
4.91621
4.96263
4.99556
5.02938
5.07952
5.16838
5.32111
5.6253
6.17342
7.5212
0.758335
0.65349
0.611401
0.584046
0.566442
0.553521
0.543624
0.535826
0.529433
0.524078
0.519504
0.51561
0.512106
0.509313
0.506422
0.506435
0.506975
0.508606
0.518231
0.531782
0.596548
0.69121
1.12256
2.02094
4.52957
5.01641
4.98958
4.91062
4.88198
4.89019
4.9194
4.96355
4.99441
5.025
5.07055
5.15289
5.29935
5.59445
6.13875
7.49155
0.758332
0.653492
0.611401
0.584048
0.566443
0.553521
0.543624
0.535827
0.52943
0.524082
0.519496
0.515621
0.512085
0.509334
0.506359
0.506324
0.506816
0.508379
0.51748
0.530441
0.592343
0.682758
1.09808
1.96545
4.42639
5.00596
4.98504
4.91621
4.88671
4.89419
4.92131
4.96295
4.99136
5.01872
5.05965
5.1353
5.27529
5.55941
6.09835
7.45292
0.758326
0.653496
0.611403
0.584049
0.566444
0.55352
0.543624
0.535826
0.529429
0.524084
0.519491
0.515628
0.51207
0.509345
0.506325
0.506207
0.506669
0.508026
0.517033
0.528503
0.58987
0.671047
1.08251
1.90171
4.31837
4.99225
4.97768
4.9205
4.89004
4.89678
4.92171
4.96069
4.98626
5.01038
5.04671
5.11547
5.24831
5.51998
6.05113
7.40371
0.758322
0.653499
0.611404
0.58405
0.566445
0.553519
0.543625
0.535826
0.529428
0.524085
0.519486
0.515634
0.512058
0.509353
0.506297
0.506077
0.506513
0.507821
0.516308
0.52726
0.586099
0.662498
1.06164
1.84417
4.20111
4.97578
4.96824
4.92347
4.89189
4.89785
4.92055
4.95606
4.97887
4.99965
5.03138
5.09322
5.21772
5.47583
5.99515
7.34142
0.758319
0.653502
0.611404
0.58405
0.566446
0.553518
0.543626
0.535825
0.529428
0.524087
0.519482
0.51564
0.512047
0.509359
0.506267
0.505929
0.506334
0.507574
0.515614
0.525998
0.582468
0.65525
1.03754
1.789
4.07283
4.95789
4.95847
4.92534
4.89254
4.8976
4.91758
4.94933
4.96903
4.98626
5.01339
5.06813
5.18214
5.42602
5.92809
7.26352
0.758321
0.6535
0.611403
0.584049
0.566446
0.553519
0.543624
0.535828
0.529425
0.524091
0.519477
0.515647
0.512036
0.509365
0.506236
0.505759
0.506133
0.507407
0.514743
0.525425
0.57726
0.653189
1.00163
1.74246
3.92623
4.9367
4.95258
4.92506
4.89201
4.89602
4.91264
4.94043
4.95668
4.97012
4.99257
5.03927
5.1411
5.36861
5.84947
7.1676
0.758323
0.653499
0.611402
0.584048
0.566445
0.55352
0.543623
0.535829
0.529423
0.524095
0.519473
0.515653
0.512029
0.509365
0.506226
0.505608
0.50595
0.507149
0.514108
0.524271
0.573551
0.647249
0.973859
1.6848
3.76895
4.91394
4.94787
4.92454
4.88991
4.89249
4.90531
4.92879
4.94153
4.95099
4.96825
5.00582
5.0936
5.302
5.75688
7.04885
0.758324
0.6535
0.611402
0.584047
0.566443
0.553519
0.543622
0.535831
0.529422
0.524097
0.519471
0.515656
0.512025
0.509361
0.506222
0.50549
0.505791
0.506819
0.513659
0.52251
0.571517
0.634876
0.961285
1.60764
3.61121
4.88778
4.94358
4.92283
4.88543
4.88646
4.89528
4.91359
4.92297
4.92852
4.93976
4.96706
5.03907
5.225
5.6471
6.8998
0.758328
0.653498
0.611401
0.584045
0.566442
0.55352
0.54362
0.535833
0.52942
0.5241
0.519468
0.515659
0.512024
0.509351
0.506232
0.505343
0.50562
0.506635
0.51275
0.52124
0.567021
0.627675
0.932546
1.5448
3.43605
4.86304
4.93961
4.91948
4.87841
4.8764
4.88171
4.89408
4.90004
4.90175
4.90551
4.92171
4.97633
5.13548
5.51543
6.70921
0.758338
0.653489
0.611399
0.584045
0.566439
0.553526
0.543616
0.53584
0.529414
0.524108
0.519463
0.515664
0.512023
0.509338
0.50625
0.505145
0.505373
0.507015
0.509821
0.526325
0.547967
0.657133
0.832561
1.55024
3.20506
4.84164
4.93634
4.91495
4.86864
4.8603
4.86287
4.8695
4.87155
4.86941
4.8633
4.86842
4.90436
5.03129
5.35504
6.45725
0.75834
0.653488
0.611398
0.584044
0.566439
0.553526
0.543615
0.535841
0.529414
0.524108
0.519465
0.51566
0.512032
0.509314
0.506275
0.504988
0.505187
0.506799
0.509329
0.525257
0.545369
0.64824
0.808644
1.47362
2.98522
4.81877
4.92966
4.90613
4.85316
4.83636
4.83578
4.8367
4.83522
4.82798
4.8106
4.80199
4.81926
4.90803
5.1537
6.10859
0.75834
0.653489
0.611398
0.584044
0.566439
0.553525
0.543616
0.535839
0.529416
0.524104
0.51947
0.515651
0.512047
0.509283
0.506312
0.50483
0.505
0.506465
0.508797
0.523646
0.542441
0.637533
0.783781
1.39432
2.7607
4.78099
4.918
4.89146
4.83051
4.8024
4.79691
4.79407
4.78785
4.77372
4.7457
4.72014
4.71581
4.75819
4.89074
5.59582
1.05253
1.04336
1.01973
0.992483
0.973643
0.957343
0.944608
0.933949
0.925082
0.917227
0.910859
0.904662
0.900155
0.894928
0.893971
0.8947
0.897345
0.909396
0.9314
1.01366
1.17639
1.68059
3.04155
6.63345
8.35801
8.33965
8.23131
8.09468
8.09802
8.13803
8.24456
8.39321
8.52835
8.67729
8.87265
9.14934
9.53294
10.1314
10.9955
12.2702
1.05252
1.04336
1.01973
0.992484
0.973641
0.957343
0.944608
0.933949
0.925081
0.917228
0.910859
0.904662
0.900153
0.894932
0.89392
0.894602
0.898543
0.906874
0.938748
0.998757
1.20318
1.64258
3.06658
6.62119
8.35907
8.34085
8.23171
8.09548
8.0989
8.13901
8.24557
8.39344
8.5282
8.67706
8.87243
9.14907
9.53248
10.1303
10.9894
12.2732
1.05252
1.04336
1.01973
0.992484
0.973641
0.957343
0.944607
0.933949
0.925081
0.917228
0.910859
0.904662
0.900154
0.894931
0.893919
0.8946
0.898538
0.906865
0.938692
0.998681
1.20271
1.64174
3.06398
6.61494
8.3594
8.34084
8.23101
8.09663
8.10038
8.1409
8.24745
8.39403
8.52795
8.67665
8.87201
9.14856
9.53152
10.1277
10.9797
12.2656
1.05253
1.04336
1.01973
0.992483
0.973642
0.957342
0.944608
0.933949
0.925082
0.917228
0.910861
0.904661
0.900157
0.894925
0.893968
0.894697
0.897344
0.909331
0.931261
1.01322
1.17535
1.67783
3.03415
6.61488
8.359
8.33979
8.22978
8.09854
8.10281
8.14393
8.25028
8.39512
8.52773
8.67613
8.87142
9.14782
9.52997
10.1238
10.9679
12.2449
1.05253
1.04336
1.01973
0.992482
0.973642
0.957342
0.944608
0.933949
0.925083
0.917228
0.910861
0.904661
0.900158
0.894922
0.893972
0.894708
0.897417
0.909283
0.931389
1.01291
1.17457
1.67736
3.02487
6.60174
8.35799
8.33887
8.22923
8.10142
8.10628
8.14812
8.25423
8.39682
8.52759
8.67551
8.87059
9.14662
9.52751
10.1181
10.9526
12.2224
1.05253
1.04336
1.01973
0.992482
0.973642
0.957342
0.944608
0.93395
0.925083
0.917229
0.910861
0.904661
0.900156
0.894921
0.893953
0.894678
0.897321
0.909252
0.931088
1.01272
1.17369
1.67323
3.0201
6.58177
8.35669
8.33813
8.22936
8.10506
8.11056
8.15329
8.25917
8.39897
8.52746
8.67469
8.8694
9.14477
9.52386
10.1102
10.9339
12.1999
1.05252
1.04336
1.01973
0.992484
0.97364
0.957344
0.944607
0.933951
0.925082
0.91723
0.910859
0.904663
0.900151
0.894927
0.893898
0.894593
0.898436
0.906813
0.938214
0.99863
1.19719
1.63549
3.03327
6.54684
8.35454
8.33767
8.23075
8.11001
8.11617
8.1599
8.26554
8.40183
8.52766
8.6739
8.86791
9.14217
9.51877
10.0999
10.9115
12.1805
1.05252
1.04336
1.01973
0.992484
0.97364
0.957344
0.944606
0.933952
0.925081
0.917231
0.910857
0.904665
0.900147
0.894927
0.893905
0.894615
0.898473
0.907004
0.938019
0.999025
1.19429
1.63164
3.02237
6.51547
8.35012
8.3353
8.23164
8.11535
8.12237
8.16739
8.27289
8.40499
8.52804
8.67305
8.866
9.13868
9.5121
10.087
10.8863
12.1589
1.05252
1.04336
1.01973
0.992485
0.97364
0.957345
0.944605
0.933953
0.92508
0.917233
0.910855
0.904668
0.900143
0.89493
0.893885
0.894579
0.898501
0.906672
0.938072
0.997511
1.19416
1.62364
3.00902
6.47628
8.34617
8.33354
8.23348
8.12168
8.12951
8.17583
8.28124
8.4087
8.52878
8.67223
8.86372
9.13434
9.50397
10.0721
10.859
12.1359
1.05252
1.04336
1.01973
0.992485
0.97364
0.957345
0.944605
0.933953
0.925079
0.917234
0.910853
0.904671
0.900137
0.894934
0.893856
0.894544
0.898434
0.906547
0.937722
0.99671
1.19185
1.61746
2.99083
6.42893
8.34262
8.3323
8.23596
8.12851
8.13719
8.18485
8.29031
8.41303
8.52979
8.67132
8.86093
9.12902
9.49429
10.0553
10.8298
12.112
1.05252
1.04336
1.01973
0.992485
0.97364
0.957345
0.944605
0.933954
0.925077
0.917236
0.91085
0.904675
0.90013
0.89494
0.893818
0.894506
0.898288
0.906622
0.936993
0.996638
1.18729
1.61311
2.96754
6.37292
8.33994
8.3319
8.23911
8.13561
8.14517
8.19418
8.29978
8.41793
8.53112
8.67024
8.85754
9.12264
9.48309
10.0366
10.7988
12.0871
1.05252
1.04336
1.01973
0.992485
0.973639
0.957346
0.944604
0.933955
0.925076
0.917238
0.910846
0.90468
0.90012
0.894948
0.893758
0.894425
0.89822
0.906157
0.936714
0.994481
1.18573
1.6015
2.94379
6.30454
8.33932
8.33346
8.24392
8.14333
8.15363
8.20375
8.30945
8.42338
8.53289
8.66902
8.85352
9.11519
9.47042
10.0164
10.7665
12.0621
1.05252
1.04336
1.01973
0.992484
0.973639
0.957346
0.944603
0.933956
0.925074
0.917241
0.910842
0.904686
0.900108
0.894958
0.893689
0.89434
0.898077
0.905882
0.936048
0.992995
1.18207
1.591
2.91482
6.22467
8.3399
8.33661
8.25026
8.15149
8.16234
8.21335
8.31907
8.42918
8.53495
8.66761
8.8488
9.10655
9.45618
9.99445
10.7328
12.0379
1.05252
1.04336
1.01973
0.992484
0.973638
0.957346
0.944602
0.933957
0.925071
0.917244
0.910837
0.904693
0.900094
0.89497
0.893605
0.894239
0.897892
0.905558
0.935235
0.991293
1.17752
1.57976
2.88068
6.13263
8.34207
8.34154
8.25803
8.16005
8.17123
8.22287
8.32846
8.43522
8.5372
8.66595
8.84325
9.09659
9.44025
9.97079
10.6976
12.0149
1.05252
1.04336
1.01973
0.992484
0.973638
0.957346
0.944601
0.933958
0.925069
0.917247
0.910832
0.904699
0.90008
0.894982
0.893504
0.894112
0.897599
0.905219
0.934014
0.989859
1.17102
1.57066
2.83843
6.02816
8.34652
8.34928
8.26704
8.1689
8.18028
8.23226
8.33756
8.44136
8.53967
8.66401
8.83681
9.08526
9.42257
9.94539
10.6611
11.9931
1.05253
1.04336
1.01973
0.992483
0.973639
0.957345
0.944601
0.93396
0.925067
0.91725
0.910827
0.904706
0.900067
0.894988
0.893446
0.894059
0.896431
0.906971
0.926728
0.999827
1.14431
1.58805
2.77159
5.91608
8.35279
8.35928
8.27705
8.17771
8.18916
8.24132
8.34618
8.44733
8.54218
8.66181
8.82939
9.07245
9.40306
9.91827
10.6233
11.972
1.05253
1.04336
1.01973
0.992481
0.973639
0.957346
0.9446
0.933961
0.925065
0.917254
0.91082
0.904715
0.900049
0.895002
0.893355
0.893944
0.896254
0.906557
0.925852
0.997441
1.138
1.57312
2.72057
5.78396
8.36164
8.37168
8.28851
8.18637
8.19776
8.24995
8.35418
8.4529
8.54442
8.65916
8.82097
9.05813
9.38169
9.88954
10.5845
11.9511
1.05253
1.04336
1.01973
0.992483
0.973638
0.957346
0.944598
0.933964
0.925061
0.917259
0.910811
0.904727
0.900026
0.895025
0.893229
0.893793
0.896023
0.906046
0.92483
0.994678
1.13177
1.55417
2.66835
5.63298
8.3756
8.38746
8.30171
8.19487
8.20602
8.2581
8.3614
8.45798
8.54627
8.65597
8.81155
9.04234
9.35853
9.85938
10.5447
11.9301
1.05253
1.04336
1.01973
0.992483
0.973636
0.957348
0.944596
0.933967
0.925056
0.917264
0.910802
0.90474
0.9
0.895055
0.893073
0.893588
0.896701
0.903517
0.929781
0.980383
1.14502
1.50319
2.63231
5.45619
8.3956
8.40685
8.31651
8.20321
8.21392
8.26567
8.36783
8.4624
8.54759
8.65218
8.80108
9.02491
9.33338
9.82775
10.5043
11.9096
1.05253
1.04336
1.01973
0.992483
0.973635
0.957348
0.944594
0.933968
0.925052
0.917269
0.910793
0.904752
0.899979
0.895075
0.892961
0.893443
0.896477
0.903031
0.928519
0.977554
1.13731
1.48241
2.56865
5.27074
8.42014
8.42804
8.33178
8.21137
8.22152
8.27278
8.37353
8.46608
8.54824
8.64778
8.78953
9.00565
9.30595
9.79407
10.4624
11.8906
1.05253
1.04336
1.01973
0.992483
0.973636
0.957347
0.944593
0.933969
0.925049
0.917274
0.910786
0.904762
0.899962
0.895089
0.892889
0.893364
0.895304
0.904519
0.921397
0.985882
1.1088
1.4928
2.47621
5.08469
8.44678
8.44914
8.34589
8.21868
8.22835
8.2791
8.37816
8.46861
8.54783
8.64232
8.77658
8.98437
9.27596
9.75791
10.4183
11.8728
1.05253
1.04336
1.01973
0.992481
0.973636
0.957348
0.944592
0.933971
0.925045
0.917279
0.910779
0.904773
0.899943
0.895106
0.892783
0.893235
0.895124
0.903956
0.920383
0.98237
1.10077
1.47019
2.40575
4.88327
8.47255
8.47052
8.35903
8.22574
8.23479
8.2847
8.38171
8.46995
8.54626
8.63563
8.76215
8.96107
9.24336
9.71912
10.3715
11.8559
1.05253
1.04336
1.01973
0.992481
0.973635
0.957348
0.944591
0.933973
0.925042
0.917285
0.91077
0.904785
0.899922
0.895128
0.892652
0.893065
0.894748
0.903507
0.918758
0.979647
1.09127
1.44917
2.33588
4.68247
8.48698
8.48834
8.37171
8.23243
8.24053
8.28909
8.38374
8.46965
8.54293
8.62716
8.74571
8.93526
9.20771
9.67717
10.3214
11.8385
1.05253
1.04336
1.01973
0.99248
0.973634
0.957349
0.944588
0.933977
0.925037
0.917292
0.910761
0.9048
0.899897
0.895152
0.892526
0.892916
0.894641
0.90277
0.918023
0.975197
1.08469
1.42193
2.2754
4.49049
8.47965
8.50184
8.38306
8.23891
8.24573
8.29231
8.38413
8.46776
8.53772
8.61676
8.7271
8.9068
9.16889
9.63189
10.2672
11.8178
1.05253
1.04336
1.01972
0.992479
0.973633
0.95735
0.944587
0.933981
0.925033
0.9173
0.91075
0.904815
0.89987
0.895177
0.892393
0.892754
0.894378
0.902185
0.916749
0.971727
1.07656
1.39892
2.21381
4.31137
8.44707
8.50879
8.39287
8.24522
8.25033
8.29424
8.38279
8.46377
8.53046
8.60423
8.70621
8.87552
9.12686
9.58317
10.2085
11.7915
1.05253
1.04336
1.01972
0.992479
0.973632
0.957351
0.944585
0.933985
0.925028
0.91731
0.910737
0.904834
0.899838
0.895209
0.892245
0.892573
0.894102
0.901584
0.915565
0.968232
1.06894
1.3769
2.15516
4.16934
8.36901
8.50692
8.39972
8.25065
8.25394
8.29498
8.37948
8.4579
8.52103
8.58937
8.68293
8.84126
9.08151
9.53068
10.145
11.757
1.05253
1.04336
1.01972
0.99248
0.973631
0.957352
0.944583
0.93399
0.925022
0.91732
0.910722
0.904856
0.8998
0.895249
0.89208
0.892364
0.893743
0.90104
0.913909
0.965403
1.06014
1.35726
2.0969
4.03796
8.26692
8.49926
8.40307
8.25448
8.25609
8.29426
8.3743
8.44991
8.50921
8.57208
8.65723
8.80417
9.0327
9.47341
10.0763
11.7123
1.05253
1.04336
1.01972
0.992482
0.973629
0.957357
0.944579
0.933998
0.925014
0.917333
0.910704
0.904881
0.899758
0.895294
0.891926
0.892186
0.89356
0.900286
0.913063
0.961133
1.05355
1.33413
2.04218
3.90874
8.15477
8.48902
8.40166
8.2565
8.25651
8.29184
8.36733
8.43961
8.49477
8.55196
8.62872
8.76405
8.98076
9.41051
10.0011
11.656
1.05253
1.04336
1.01972
0.992485
0.973628
0.957362
0.944576
0.934005
0.925006
0.917346
0.910684
0.904907
0.899714
0.895341
0.891762
0.891987
0.893291
0.899624
0.911862
0.957665
1.04484
1.31731
1.98022
3.79243
8.02333
8.47443
8.39629
8.25702
8.25501
8.28764
8.35842
8.42678
8.47753
8.52872
8.59704
8.72044
8.92559
9.34041
9.91796
11.5866
1.05252
1.04336
1.01972
0.99249
0.973626
0.957366
0.944572
0.934013
0.924997
0.917358
0.910666
0.904931
0.899673
0.895385
0.8916
0.891782
0.892964
0.899022
0.910378
0.954827
1.03635
1.30136
1.92176
3.68827
7.86303
8.45366
8.38625
8.25612
8.25156
8.28165
8.34753
8.41135
8.4572
8.50216
8.56193
8.673
8.86609
9.26292
9.82571
11.5019
1.05252
1.04335
1.01973
0.992496
0.973622
0.957373
0.944567
0.934021
0.924988
0.91737
0.910648
0.904953
0.899636
0.895422
0.891462
0.89162
0.893135
0.897246
0.913195
0.94412
1.04523
1.25674
1.9085
3.54549
7.69409
8.42791
8.37124
8.25393
8.24611
8.27365
8.33446
8.39321
8.43364
8.4721
8.52315
8.6213
8.80101
9.17715
9.72227
11.3992
1.05251
1.04335
1.01973
0.9925
0.97362
0.957378
0.944563
0.934026
0.92498
0.91738
0.910634
0.904972
0.899605
0.895451
0.891335
0.891457
0.892843
0.896819
0.911935
0.941652
1.03815
1.23788
1.86784
3.42732
7.50614
8.3987
8.35259
8.25017
8.23875
8.26352
8.3189
8.37203
8.40674
8.43847
8.48066
8.56522
8.72955
9.08243
9.60584
11.2749
1.05251
1.04335
1.01972
0.992503
0.973619
0.957381
0.944559
0.934031
0.924974
0.917389
0.910622
0.904988
0.899579
0.895475
0.891195
0.891266
0.892488
0.896197
0.910547
0.938374
1.03171
1.22068
1.82335
3.32017
7.29621
8.36585
8.33165
8.24521
8.22945
8.251
8.3003
8.34744
8.37613
8.40081
8.43436
8.50442
8.65006
8.97692
9.47372
11.1256
1.05252
1.04335
1.01972
0.992501
0.97362
0.95738
0.94456
0.934032
0.924972
0.917393
0.910615
0.904998
0.899558
0.895491
0.891058
0.890991
0.891832
0.896597
0.905675
0.942641
1.00822
1.23489
1.73359
3.25388
7.05385
8.32919
8.31033
8.24001
8.21824
8.23596
8.27827
8.31905
8.34145
8.35883
8.38342
8.43809
8.56161
8.85887
9.32373
10.9456
1.05252
1.04335
1.01972
0.992498
0.97362
0.957379
0.94456
0.934033
0.92497
0.917397
0.91061
0.905006
0.899543
0.895499
0.890978
0.890753
0.891534
0.895999
0.904526
0.939854
1.00122
1.22068
1.68623
3.14614
6.79442
8.28945
8.28841
8.23422
8.20476
8.21811
8.25254
8.28639
8.30225
8.31216
8.32667
8.36451
8.46313
8.72645
9.1521
10.7278
1.05252
1.04336
1.01972
0.992496
0.973618
0.957378
0.944559
0.934034
0.924969
0.9174
0.910607
0.905011
0.899533
0.895504
0.890909
0.890631
0.89152
0.89455
0.906802
0.930463
1.01141
1.17324
1.69429
2.98342
6.52768
8.24418
8.27055
8.2242
8.18764
8.1968
8.2228
8.24884
8.25811
8.26089
8.26333
8.28267
8.35407
8.57856
8.95463
10.4604
1.05252
1.04336
1.01972
0.992492
0.973619
0.957375
0.94456
0.934033
0.924971
0.9174
0.910607
0.905012
0.899529
0.895496
0.890864
0.890397
0.891214
0.89405
0.905611
0.927854
1.00479
1.15704
1.65149
2.86548
6.23232
8.20106
8.25435
8.21287
8.16664
8.17089
8.18788
8.20566
8.20824
8.20407
8.19093
8.19243
8.23291
8.41295
8.72517
10.1278
1.05253
1.04336
1.01972
0.992483
0.973625
0.957366
0.944567
0.934026
0.924977
0.917393
0.910614
0.905005
0.899535
0.895473
0.890839
0.890081
0.890728
0.894373
0.902014
0.93099
0.985
1.16849
1.55718
2.79659
5.88711
8.16328
8.2412
8.2003
8.14151
8.13833
8.14674
8.15579
8.15318
8.14076
8.11036
8.08843
8.09972
8.22826
8.45447
9.70211
1.05253
1.04336
1.01972
0.992481
0.973627
0.957364
0.944569
0.934023
0.92498
0.917389
0.910619
0.904997
0.899544
0.895446
0.890827
0.889828
0.890428
0.893846
0.900947
0.92833
0.97948
1.15053
1.5117
2.66734
5.52543
8.12797
8.22868
8.18505
8.11139
8.0966
8.09819
8.09847
8.09119
8.06892
8.02061
7.97462
7.94752
8.02205
8.13139
9.13998
1.05253
1.04336
1.01972
0.992482
0.973628
0.957363
0.94457
0.93402
0.924983
0.917384
0.910626
0.904985
0.89956
0.895407
0.890849
0.889541
0.890082
0.89321
0.89985
0.925347
0.973188
1.13225
1.46648
2.52985
5.14914
8.09137
8.2192
8.16869
8.07614
8.04549
8.03978
8.03422
8.01989
7.98716
7.9224
7.85319
7.78028
7.78842
7.73945
8.36189
1.06613
1.10994
1.11434
1.11126
1.10353
1.09289
1.08436
1.07614
1.0689
1.06231
1.05678
1.05125
1.04707
1.04256
1.04259
1.04382
1.04736
1.0646
1.09199
1.20362
1.40595
2.08239
3.8298
8.65301
10.2088
10.1329
9.9147
9.78685
9.80976
9.89283
10.0592
10.2237
10.3719
10.5424
10.7635
11.069
11.4767
12.063
12.794
13.6622
1.06612
1.10995
1.11434
1.11126
1.10353
1.09289
1.08436
1.07614
1.0689
1.06231
1.05678
1.05125
1.04707
1.04255
1.04255
1.04368
1.04875
1.06059
1.10196
1.18255
1.43999
2.036
3.86246
8.64013
10.2079
10.1323
9.91407
9.78798
9.81102
9.89418
10.06
10.2239
10.3717
10.5421
10.7631
11.0684
11.4755
12.0603
12.7854
13.6577
1.06612
1.10995
1.11434
1.11126
1.10353
1.09289
1.08436
1.07614
1.0689
1.06231
1.05678
1.05125
1.04707
1.04255
1.04255
1.04368
1.04874
1.06058
1.10188
1.18247
1.43941
2.03502
3.85914
8.63218
10.2053
10.1294
9.91153
9.78953
9.81302
9.89682
10.0615
10.2241
10.3714
10.5416
10.7624
11.0674
11.4734
12.0548
12.7703
13.6463
1.06613
1.10995
1.11434
1.11126
1.10353
1.09289
1.08436
1.07614
1.0689
1.06231
1.05678
1.05125
1.04707
1.04255
1.04258
1.04382
1.04738
1.06447
1.09198
1.20278
1.4052
2.07824
3.82099
8.62879
10.2015
10.1249
9.90798
9.79182
9.81603
9.90095
10.064
10.2248
10.3711
10.541
10.7615
11.0659
11.4703
12.0465
12.7507
13.6289
1.06613
1.10995
1.11434
1.11126
1.10353
1.09289
1.08436
1.07614
1.0689
1.06231
1.05678
1.05125
1.04707
1.04255
1.04257
1.04385
1.04784
1.06372
1.09473
1.19721
1.41287
2.06688
3.8162
8.61058
10.1956
10.1194
9.90445
9.79467
9.81976
9.90618
10.0671
10.2256
10.3707
10.5401
10.7599
11.0633
11.4651
12.0345
12.7255
13.6089
1.06612
1.10995
1.11434
1.11126
1.10353
1.09289
1.08436
1.07614
1.0689
1.06231
1.05678
1.05125
1.04707
1.04254
1.04256
1.04377
1.04737
1.06425
1.09185
1.20185
1.4039
2.07163
3.80571
8.586
10.1884
10.1131
9.90107
9.79779
9.82391
9.91222
10.0708
10.2265
10.3701
10.5387
10.7576
11.0593
11.4575
12.0188
12.6956
13.5857
1.06612
1.10995
1.11433
1.11126
1.10353
1.09289
1.08436
1.07614
1.0689
1.06231
1.05678
1.05125
1.04706
1.04254
1.04246
1.04347
1.04915
1.05926
1.1036
1.17816
1.44206
2.01415
3.83127
8.54303
10.1792
10.1063
9.89835
9.80149
9.82866
9.91903
10.0752
10.2276
10.3695
10.5368
10.7543
11.0537
11.4471
11.9992
12.6612
13.56
1.06612
1.10995
1.11433
1.11126
1.10353
1.09289
1.08436
1.07615
1.0689
1.06232
1.05678
1.05126
1.04706
1.04254
1.04249
1.04355
1.04908
1.06058
1.10142
1.18296
1.43132
2.01908
3.81248
8.50474
10.1675
10.097
9.89472
9.80503
9.83345
9.9262
10.0801
10.2287
10.3686
10.5344
10.75
11.0464
11.434