/*--------------------------------*- C++ -*----------------------------------*\
  =========                 |
  \\      /  F ield         | OpenFOAM: The Open Source CFD Toolbox
   \\    /   O peration     | Website:  https://openfoam.org
    \\  /    A nd           | Version:  6.0
     \\/     M anipulation  |
\*---------------------------------------------------------------------------*/
FoamFile
{
    version     2.0;
    format      ascii;
    class       volScalarField;
    location    "1";
    object      p;
}
// * * * * * * * * * * * * * * * * * * * * * * * * * * * * * * * * * * * * * //

dimensions      [1 -1 -2 0 0 0 0];

internalField   nonuniform List<scalar> 
300
(
0.999889
1.03517
1.08809
1.00482
2.08002
2.16019
7.50518
11.0494
10.8513
10.754
1.00174
1.03278
1.08639
1.01501
2.0542
2.18921
7.4704
11.0282
10.8117
10.7358
1.00848
1.01697
1.08921
0.997084
2.07266
2.05912
7.44429
10.9802
10.7343
10.6769
1.0086
1.01477
1.08539
1.02541
2.00936
2.2202
7.2476
10.8806
10.6046
10.5717
1.00886
1.0133
1.07873
1.02368
2.02311
2.18594
7.07866
10.7672
10.4495
10.4319
1.00973
1.01588
1.08211
1.04084
1.94386
2.18755
6.85288
10.6221
10.2688
10.2563
1.01029
1.01523
1.07964
1.0151
1.9367
2.02656
6.63949
10.4455
10.0626
10.0341
1.01051
1.01396
1.07837
1.0212
1.8729
1.99493
6.3205
10.2046
9.81295
9.746
1.01096
1.01276
1.07454
1.03693
1.79148
1.87281
5.98717
9.91276
9.5169
9.36258
1.01082
1.01271
1.0685
1.04071
1.72688
1.79497
5.57584
9.5469
9.16344
8.82903
1.01017
1.0117
1.05668
1.06575
1.51369
1.53269
4.46002
8.33645
8.14649
6.87799
1.00209
1.00588
1.04179
1.05593
1.28279
1.39589
3.1548
6.06989
6.89197
6.30034
0.997286
0.996449
0.980614
0.975923
1.12739
1.06147
2.18885
3.28912
5.57877
5.41568
1.00094
1.00119
1.00209
1.01743
1.06535
1.06903
1.56785
1.72981
3.53701
4.35231
0.999863
1.00178
1.00464
1.00735
1.00793
1.05699
1.17079
1.21585
2.00695
3.07939
0.999987
1.00081
1.00134
1.00506
1.00553
1.02577
1.03343
1.01814
1.3826
1.49976
1.00001
1.00024
1.0003
1.00142
1.00132
1.00794
1.02053
1.01631
1.15648
1.22606
1.00004
1.00007
1.0003
1.00037
1.0018
1.00269
1.0106
1.01381
1.07501
1.09551
1.00002
1.00002
1.00013
1.00046
1.00049
1.00321
1.00371
1.01815
1.02958
1.0324
1.00001
1.00001
1.00007
1.00011
1.00014
1.0012
1.00314
1.00456
1.0228
1.02366
2.3395
1.28122
0.99538
0.949489
0.954602
0.950529
0.935223
0.933829
0.930624
0.932531
2.90658
1.70321
1.31395
1.15665
1.02999
0.96647
0.933758
0.935169
0.936426
0.944645
3.64983
2.2058
1.53941
1.22278
1.03451
0.954787
0.92106
0.926539
0.940075
0.972665
3.72174
2.61657
1.83812
1.395
1.14449
1.02432
0.962536
0.970011
0.992173
1.04973
3.52828
3.10286
2.20337
1.59974
1.26223
1.09848
1.0385
1.05578
1.10206
1.2283
3.15224
3.02185
2.59532
1.88575
1.47441
1.28532
1.27878
1.31391
1.39817
1.58369
2.55913
2.82645
2.68439
2.30027
1.87027
1.73327
1.76662
1.84844
1.80412
1.69449
1.91646
2.76862
2.82325
2.76758
2.62545
2.57053
2.49693
2.2964
1.97338
1.72523
1.4363
2.58825
3.19559
3.69301
3.65477
3.48784
3.03253
2.4812
2.0722
1.75543
1.31116
2.19015
4.08723
4.60538
4.45219
4.00934
3.20646
2.58732
2.13626
1.79365
)
;

boundaryField
{
    inlet
    {
        type            fixedValue;
        value           uniform 1;
    }
    outlet
    {
        type            waveTransmissive;
        gamma           1.4;
        fieldInf        1;
        lInf            3;
        value           nonuniform List<scalar> 10(0.940662 0.946388 0.95869 1.00187 1.12292 1.42877 1.65033 1.72789 1.7733 1.81355);
    }
    top
    {
        type            symmetryPlane;
    }
    bottom
    {
        type            symmetryPlane;
    }
    step
    {
        type            zeroGradient;
    }
    defaultFaces
    {
        type            empty;
    }
}


// ************************************************************************* //
