/*--------------------------------*- C++ -*----------------------------------*\
  =========                 |
  \\      /  F ield         | OpenFOAM: The Open Source CFD Toolbox
   \\    /   O peration     | Website:  https://openfoam.org
    \\  /    A nd           | Version:  6.0
     \\/     M anipulation  |
\*---------------------------------------------------------------------------*/
FoamFile
{
    version     2.0;
    format      ascii;
    class       surfaceScalarField;
    location    "1";
    object      phi;
}
// * * * * * * * * * * * * * * * * * * * * * * * * * * * * * * * * * * * * * //

dimensions      [1 0 -1 0 0 0 0];

internalField   nonuniform List<scalar> 
560
(
0.00841684
-1.22097e-05
0.0083987
4.97819e-06
0.00838347
1.48729e-05
0.00853173
-3.22407e-05
0.00834604
0.000130608
0.00852595
-0.000116205
0.00707633
0.000906857
0.00556896
0.00158615
0.00310869
0.00249178
0.00314458
0.008427
-3.87069e-05
0.00836165
7.0901e-05
0.0084114
-1.16731e-05
0.00844814
4.25499e-05
0.00834941
3.52806e-05
0.00749659
0.000796402
0.00657099
0.00128977
0.00488406
0.00336808
0.00260942
0.00477066
0.00579843
0.00836384
-3.24679e-06
0.00843555
6.73603e-06
0.0084397
3.31821e-05
0.00830754
3.57407e-05
0.00816581
0.000223423
0.00998986
-0.000828038
0.00733348
0.00331683
0.00519401
0.00556256
0.00262489
0.00734791
0.00845304
0.00839778
-3.02506e-06
0.00839635
1.78639e-07
0.00841108
3.86839e-05
0.00822421
8.22996e-05
0.00853723
6.23755e-05
0.00752874
0.000239975
0.00637636
0.00407371
0.00461004
0.00740372
0.0024626
0.00951432
0.0109372
0.00839846
-2.48078e-06
0.00840139
-1.46011e-05
0.00851934
-2.05073e-05
0.00907795
-0.000194265
0.00842732
0.000525376
0.00830519
0.00033387
0.00660271
0.0051452
0.00459438
0.0094547
0.00243477
0.0116861
0.0133893
0.00839881
-4.35584e-06
0.00839294
3.97371e-06
0.00838474
1.86517e-05
0.00805488
6.86105e-05
0.00833265
0.000145661
0.00734414
0.00134987
0.00639153
0.00566338
0.00451293
0.0113621
0.00244885
0.0137446
0.0158497
0.00839055
1.23942e-06
0.00839954
2.85191e-06
0.00844515
1.01513e-05
0.00853728
2.62986e-06
0.00814879
0.000436556
0.00900086
0.000484826
0.00699778
0.0071747
0.00479996
0.013613
0.00258121
0.0159446
0.0184297
0.00839609
-4.65321e-07
0.00840198
1.37933e-05
0.00843459
2.3209e-05
0.00851344
-4.08443e-05
0.00835691
0.000493869
0.00776016
0.00107743
0.00700643
0.00751568
0.00499329
0.0156414
0.00275607
0.0181494
0.0211767
0.00838952
2.0859e-06
0.00838743
7.91187e-06
0.00841238
4.07398e-05
0.00807304
1.2355e-05
0.00825418
0.000502058
0.00864941
0.000808297
0.00741727
0.00834534
0.00532009
0.0177343
0.00301836
0.02041
0.0241773
0.00839292
3.26704e-06
0.00836863
8.96881e-06
0.00843789
3.63575e-05
0.00821076
2.0654e-05
0.0082562
0.00056726
0.00826085
0.000985154
0.00779728
0.00836431
0.00569315
0.0197773
0.00334882
0.0226853
0.0274896
0.0335895
1.17594e-05
0.0333284
4.19122e-06
0.0336642
5.34533e-05
0.0325954
5.48583e-05
0.0336291
0.000469661
0.035139
0.000746462
0.0364614
0.00566928
0.0368679
0.0188375
0.0348254
0.0241656
0.02405
0.0381703
0.033525
4.94786e-06
0.0336065
2.50545e-05
0.0332771
9.28882e-05
0.0334108
0.000175263
0.0341106
0.000353487
0.0310606
0.00077443
0.0359053
0.00350655
0.0412415
0.0126619
0.0440913
0.0207411
0.0233774
0.0441019
0.0336197
-4.48391e-06
0.0336579
-6.64659e-06
0.0337096
-2.58731e-05
0.0340501
-6.29418e-05
0.0342408
0.000117025
0.0344547
0.000124344
0.0364983
0.00176209
0.0421796
0.0051345
0.0468131
0.0154472
0.0193757
0.0501411
0.033595
1.30182e-06
0.0335783
-8.00426e-07
0.0335111
-6.00518e-06
0.0336547
1.31939e-05
0.0335074
7.59027e-05
0.0330932
6.33868e-05
0.0351995
0.000782039
0.0338
0.00177228
0.043986
0.00767793
0.0136923
0.0498578
0.0336005
-1.54483e-07
0.0335963
1.50216e-06
0.0335689
5.28472e-06
0.0335824
5.44115e-06
0.0336382
1.53459e-05
0.0332623
7.10542e-05
0.0342005
0.000276766
0.0339662
0.000625174
0.0402383
0.00247969
0.00647492
0.0466243
0.0335997
-2.90871e-08
0.0336005
8.42605e-07
0.0335962
1.99447e-06
0.0336024
7.54449e-06
0.0335337
9.61357e-06
0.0336355
3.33385e-05
0.0337658
4.99687e-05
0.0342626
9.36851e-05
0.0360675
0.000631562
0.0014643
0.0407182
0.0335988
-6.22096e-08
0.0336
2.45169e-07
0.033599
2.32128e-07
0.0336044
2.19046e-06
0.0336154
1.85285e-06
0.0336292
9.66792e-06
0.0336406
2.5863e-05
0.0333982
2.42895e-05
0.034021
0.000161259
0.000433679
0.0350931
0.0335992
3.16468e-08
0.0335995
5.46979e-08
0.0335986
3.20823e-07
0.0336015
1.32078e-07
0.0335991
2.61963e-06
0.0335824
4.36507e-07
0.0336237
1.31278e-05
0.0334714
1.59864e-06
0.0336356
8.35396e-05
0.000168713
0.0338673
0.0335993
1.09435e-08
0.0335992
2.70992e-08
0.0336006
1.22408e-07
0.0335975
5.61244e-07
0.0336023
7.9836e-07
0.0335949
3.60362e-06
0.0335988
2.83546e-06
0.0335728
2.54213e-05
0.033673
2.08566e-05
4.07845e-05
0.0338804
0.0335992
0.0335993
0.0335994
0.0336
0.0335965
0.0336087
0.0336101
0.0336011
0.0336412
0.0337123
0.018001
0.0199313
0.0119763
0.005532
0.00992644
0.00117056
0.00930717
-0.000165318
0.00983957
-0.000998785
0.0102011
-0.000611754
0.0111148
-0.000359776
0.012838
-0.000319996
0.015181
-0.000349592
-0.000329092
0.0243052
0.0386402
0.0168164
0.012054
0.0143303
0.00244878
0.0133731
-0.000247434
0.012455
-0.000887041
0.0123002
-0.000948114
0.0130493
-0.000783779
0.0145359
-0.000707397
0.016256
-0.000835073
-0.00118867
0.0333583
0.0548
0.0231365
0.0210987
0.0180625
0.00628524
0.0156003
0.00116162
0.014313
-0.000382305
0.0142901
-0.000983502
0.0150908
-0.00115308
0.0168311
-0.00179365
0.0187865
-0.00232849
-0.00295779
0.0376809
0.0664744
0.0295962
0.0285186
0.0235229
0.0117088
0.0198203
0.00424878
0.0181337
0.000862625
0.0176406
-0.00090319
0.0179734
-0.00216007
0.0194326
-0.00368909
0.0214278
-0.00521578
-0.00715101
0.0595115
0.0529756
0.0394608
0.048577
0.0302002
0.0210355
0.0247401
0.00956068
0.0218939
0.00324321
0.0207774
-0.000526237
0.0205857
-0.0040488
0.022499
-0.00744025
0.0250725
-0.0105299
-0.0152688
0.0506694
0.0423847
0.0516341
0.0468995
0.0372803
0.0350375
0.0301306
0.0162471
0.0264658
0.00611751
0.0255457
-0.00112271
0.0253996
-0.0082735
0.0287432
-0.0149804
0.0320778
-0.0192897
-0.0227401
0.0446949
0.030993
0.049765
0.0405568
0.0464593
0.0373156
0.0372907
0.0246048
0.0341348
0.00786952
0.0336365
-0.00512192
0.0364365
-0.0165875
0.0404677
-0.0248868
0.0421471
-0.022791
-0.0186469
0.0474115
0.016487
0.0480157
0.039438
0.0515785
0.032676
0.0511008
0.0238763
0.0487419
0.00720514
0.0499297
-0.0121251
0.0555974
-0.0257991
0.0505725
-0.0202066
0.0458545
-0.0165065
-0.013602
0.0439991
0.00637925
0.0553013
0.0271949
0.0593986
0.023376
0.066259
0.0138684
0.0728158
-0.00199792
0.0748127
-0.0157398
0.0630702
-0.0123035
0.0558432
-0.0118567
0.0496689
-0.00934115
-0.00708926
0.0400575
0.0639796
0.0790911
0.0939121
0.0935029
0.0799133
0.0703111
0.061236
0.0531725
)
;

boundaryField
{
    inlet
    {
        type            calculated;
        value           nonuniform List<scalar> 
20
(
-0.00839986
-0.00839904
-0.00839605
-0.008396
-0.00839589
-0.0083955
-0.00839526
-0.00839516
-0.00839496
-0.00839502
-0.0335812
-0.0335955
-0.0336041
-0.0335976
-0.0335995
-0.0335993
-0.0335992
-0.0335992
-0.0335992
-0.0335992
)
;
    }
    outlet
    {
        type            calculated;
        value           nonuniform List<scalar> 10(0.0175031 0.0186071 0.0207128 0.0232499 0.0268763 0.0342603 0.0408229 0.0441341 0.0466785 0.0492562);
    }
    top
    {
        type            symmetryPlane;
        value           uniform 0;
    }
    bottom
    {
        type            symmetryPlane;
        value           uniform 0;
    }
    step
    {
        type            calculated;
        value           uniform 0;
    }
    defaultFaces
    {
        type            empty;
        value           nonuniform 0();
    }
}


// ************************************************************************* //
