/*--------------------------------*- C++ -*----------------------------------*\
  =========                 |
  \\      /  F ield         | OpenFOAM: The Open Source CFD Toolbox
   \\    /   O peration     | Website:  https://openfoam.org
    \\  /    A nd           | Version:  6.0
     \\/     M anipulation  |
\*---------------------------------------------------------------------------*/
FoamFile
{
    version     2.0;
    format      ascii;
    class       surfaceScalarField;
    location    "1";
    object      phi;
}
// * * * * * * * * * * * * * * * * * * * * * * * * * * * * * * * * * * * * * //

dimensions      [1 0 -1 0 0 0 0];

internalField   nonuniform List<scalar> 
8300
(
0.000642471
-3.18503e-08
0.000200164
0.0005684
1.8438e-08
7.4128e-05
0.000530652
1.82589e-08
3.77062e-05
0.000468969
2.37951e-08
6.16135e-05
0.000390758
-1.85019e-07
7.82152e-05
0.000253742
-2.2724e-06
0.000139976
0.000392081
8.89351e-07
-0.000147444
0.000312319
4.41587e-06
7.79405e-05
0.000372852
3.32354e-05
-9.49742e-05
4.25519e-05
0.000332279
0.000642174
2.76438e-08
0.000200351
0.000568389
3.53134e-08
7.38328e-05
0.000530198
1.83143e-07
3.80343e-05
0.000467748
3.64975e-07
6.20783e-05
0.000385077
7.19738e-07
8.16879e-05
0.000263361
1.73769e-06
0.000117752
0.000396891
6.6657e-06
-0.000139109
0.00031606
2.09226e-05
6.15353e-05
0.000332219
0.000142506
-0.000129494
0.000118479
0.000253006
0.000642297
6.64186e-08
0.000200253
0.000568306
8.41818e-08
7.39895e-05
0.000530525
3.28556e-07
3.76639e-05
0.000468197
6.61521e-07
6.20151e-05
0.000386048
1.29174e-06
8.15221e-05
0.000265142
2.98028e-06
0.000119709
0.00039843
9.78657e-06
-0.000136465
0.000309208
2.35625e-05
8.41534e-05
0.000335793
0.000186228
-7.50102e-05
0.000229952
0.000218608
0.000642486
1.08788e-07
0.000200054
0.000568184
1.37051e-07
7.42929e-05
0.000531009
5.16885e-07
3.70259e-05
0.000468764
1.035e-06
6.1856e-05
0.000386598
2.0068e-06
8.13945e-05
0.000265733
4.58152e-06
0.000119301
0.000392935
1.40986e-05
-0.000131708
0.000308571
3.35779e-05
7.26157e-05
0.000313796
0.000276068
-9.90296e-05
0.000380903
0.000157614
0.000642779
1.60045e-07
0.00019974
0.000567988
2.10007e-07
7.47612e-05
0.000531736
7.82908e-07
3.60409e-05
0.000469575
1.54e-06
6.16414e-05
0.000387307
2.91805e-06
8.12952e-05
0.000266086
6.52277e-06
0.000119287
0.000385394
1.96173e-05
-0.000125057
0.000305979
4.76964e-05
6.40992e-05
0.000296098
0.000386849
-0.000104653
0.000521739
0.000150467
0.000643171
2.28887e-07
0.000199337
0.000567681
3.5789e-07
7.53722e-05
0.000532671
1.17042e-06
3.46866e-05
0.000470636
2.18111e-06
6.13826e-05
0.000388409
3.92506e-06
8.11593e-05
0.000266767
8.46294e-06
0.000119689
0.000377156
2.60474e-05
-0.000117052
0.000302482
6.5487e-05
5.57736e-05
0.000283318
0.000513115
-0.000110868
0.00067908
0.000121724
0.000643393
3.46559e-07
0.000199104
0.000567207
5.93698e-07
7.59354e-05
0.00053334
1.60891e-06
3.34933e-05
0.000471837
2.9045e-06
6.07769e-05
0.000390341
5.05645e-06
8.03145e-05
0.000268928
1.06218e-05
0.000119204
0.000366967
3.3626e-05
-0.000105912
0.000298548
8.76998e-05
4.5163e-05
0.000273293
0.00065316
-0.000118491
0.000856686
9.17149e-05
0.000643393
4.70365e-07
0.000199127
0.000566533
8.159e-07
7.6592e-05
0.000533727
2.14814e-06
3.23247e-05
0.000473257
3.82348e-06
5.95531e-05
0.000393002
6.61507e-06
7.86619e-05
0.00027432
1.39443e-05
0.000115235
0.000352275
4.36223e-05
-8.76128e-05
0.000293964
0.00011764
2.69601e-05
0.000264919
0.000808616
-0.000130376
0.00105868
5.9141e-05
0.0006434
6.08709e-07
0.000199135
0.000565628
1.02415e-06
7.74931e-05
0.000534269
2.70707e-06
3.08405e-05
0.000475311
4.84559e-06
5.79362e-05
0.000396976
8.46807e-06
7.64529e-05
0.000283372
1.82386e-05
0.000109155
0.000326789
5.78475e-05
-5.68757e-05
0.000286247
0.000155746
-2.49095e-10
0.000256683
0.000979765
-0.000145619
0.00129992
1.21052e-05
0.000643504
0.000199042
7.85192e-07
0.000564494
7.8766e-05
1.16312e-06
0.000535186
2.87442e-05
3.2691e-06
0.000478562
5.57194e-05
5.74677e-06
0.000403533
7.32793e-05
1.01915e-05
0.000298619
0.000100845
2.21489e-05
0.000299131
-1.92177e-05
7.72689e-05
0.000281385
-3.84508e-05
0.000210318
0.000245033
-0.000167141
0.00117929
-7.74269e-05
0.00161885
0.00090267
-3.30953e-08
0.000137055
0.000859794
1.4038e-08
0.000116975
0.000786919
1.32076e-07
0.000110424
0.000754929
4.0345e-07
9.31653e-05
0.000749233
9.79178e-07
8.28247e-05
0.000799102
3.05888e-06
8.72619e-05
0.000583894
7.55072e-06
6.11565e-05
0.000602555
3.67191e-05
2.43958e-05
-0.000103978
0.000347524
0.000252841
0.000154551
6.38595e-05
0.000902715
4.0882e-08
0.000137082
0.000859398
1.32659e-07
0.000117011
0.000786729
3.82866e-07
0.00011043
0.000755185
9.5636e-07
9.30428e-05
0.000753074
2.23152e-06
8.24525e-05
0.000784568
5.13365e-06
8.42219e-05
0.000579612
1.45028e-05
5.9392e-05
0.000615244
4.99311e-05
1.22408e-05
0.000332009
0.000420028
7.52089e-05
0.000539093
0.000186932
0.000902671
1.04153e-07
0.000137037
0.000859529
2.7963e-07
0.00011696
0.00078638
6.96827e-07
0.000110478
0.000754772
1.62541e-06
9.29335e-05
0.000752651
3.66261e-06
8.21464e-05
0.000785345
8.48111e-06
8.3674e-05
0.00058318
2.1933e-05
5.87426e-05
0.000628181
7.75604e-05
1.15068e-05
0.000305186
0.000644631
1.88041e-05
0.000922186
0.000129751
0.000902563
1.74731e-07
0.000136933
0.000859771
4.59896e-07
0.000116875
0.000785786
1.10531e-06
0.00011058
0.000753957
2.49161e-06
9.27965e-05
0.000751718
5.46291e-06
8.17711e-05
0.000783999
1.24315e-05
8.30594e-05
0.000583714
3.18123e-05
5.90392e-05
0.000619612
0.000108015
6.62084e-06
0.000281206
0.000899946
-1.98613e-05
0.00123949
0.000111668
0.000902382
2.78158e-07
0.000136763
0.000860049
7.4337e-07
0.000116777
0.000784702
1.70407e-06
0.000110765
0.000752577
3.64231e-06
9.2589e-05
0.000750363
7.71422e-06
8.11949e-05
0.000782597
1.72632e-05
8.21863e-05
0.000586306
4.40674e-05
5.91621e-05
0.000611805
0.000145144
1.96106e-06
0.000281543
0.00117058
-4.97588e-05
0.00160318
6.04574e-05
0.000902092
5.46873e-07
0.000136488
0.000860169
1.30511e-06
0.000116695
0.000782954
2.58204e-06
0.000111003
0.000750672
5.06348e-06
9.2222e-05
0.000748781
1.03831e-05
8.03207e-05
0.000781628
2.30818e-05
8.09683e-05
0.000590458
5.92147e-05
5.90386e-05
0.000606088
0.000188707
-2.90201e-06
0.000278473
0.00145713
-7.43612e-05
0.00197183
2.45582e-05
0.000902297
1.02999e-06
0.000135851
0.000860762
2.15853e-06
0.00011658
0.000782715
3.76415e-06
0.000110334
0.000750144
6.80727e-06
9.15767e-05
0.000747753
1.3514e-05
7.95128e-05
0.000780249
3.0018e-05
7.96724e-05
0.000597434
7.74029e-05
5.86422e-05
0.000601716
0.000238864
-8.71413e-06
0.000276412
0.00175472
-9.61713e-05
0.00234365
-9.42753e-06
0.000903756
1.37237e-06
0.000134568
0.000863418
2.89242e-06
0.000116158
0.000785418
4.98787e-06
0.000109074
0.000752227
8.82994e-06
9.0691e-05
0.00074855
1.72779e-05
7.85197e-05
0.000777667
3.83381e-05
7.76339e-05
0.000610133
9.93241e-05
5.77958e-05
0.000599068
0.000293444
-1.60521e-05
0.000280632
0.00205503
-0.00011797
0.00272176
-4.4556e-05
0.00090545
1.69069e-06
0.000132918
0.000866633
3.54936e-06
0.000115612
0.000788917
6.1117e-06
0.000107402
0.00075533
1.08239e-05
8.94952e-05
0.000750623
2.12258e-05
7.71492e-05
0.000775784
4.74158e-05
7.47204e-05
0.00063766
0.000124248
5.59874e-05
0.000604924
0.000355714
-2.75898e-05
0.000302783
0.00235062
-0.000143884
0.00310957
-7.86401e-05
0.00090737
0.000130925
1.99444e-06
0.000870728
0.000114909
4.01297e-06
0.00079335
0.000105349
6.85122e-06
0.000759639
8.80185e-05
1.21985e-05
0.000754988
7.54123e-05
2.36655e-05
0.000780412
7.08963e-05
5.1706e-05
0.00069764
5.18804e-05
0.000135423
0.000623387
-4.59762e-05
0.000439417
0.000340355
-0.000182181
0.00264328
-0.000122922
0.00349059
0.000914854
-1.13521e-08
6.16434e-05
0.000952766
3.54871e-08
7.90131e-05
0.000982939
1.76026e-07
8.00584e-05
0.000998087
5.13599e-07
7.74759e-05
0.000996357
1.3494e-06
8.31501e-05
0.000993628
3.61741e-06
8.62927e-05
0.000955811
1.01541e-05
8.86371e-05
0.000896706
4.07481e-05
4.21063e-05
0.000782265
0.000322745
3.24499e-05
0.000430147
0.000408822
0.000914851
8.90028e-09
6.16392e-05
0.00095272
1.37379e-07
7.90239e-05
0.000982964
4.27176e-07
7.99152e-05
0.000998098
1.0857e-06
7.73076e-05
0.000996333
2.67647e-06
8.28321e-05
0.000991126
6.8958e-06
8.6062e-05
0.000954281
1.94976e-05
8.69102e-05
0.000898933
7.16289e-05
3.61467e-05
0.000660504
0.000625468
1.40509e-07
0.00102933
0.000238553
0.000914803
3.17776e-08
6.16377e-05
0.000952586
2.78011e-07
7.9018e-05
0.000983073
7.67598e-07
7.96282e-05
0.000998137
1.81768e-06
7.71051e-05
0.000996025
4.30053e-06
8.25775e-05
0.000990181
1.08444e-05
8.54757e-05
0.000952328
3.04032e-05
8.57382e-05
0.000894105
0.000110726
2.99621e-05
0.000579358
0.000997519
-4.95741e-05
0.0015195
0.000208459
0.000914704
5.85528e-08
6.16276e-05
0.000952344
4.835e-07
7.90061e-05
0.000983272
1.23806e-06
7.91537e-05
0.000998295
2.7486e-06
7.68052e-05
0.000995777
6.27691e-06
8.22476e-05
0.00098921
1.55882e-05
8.47759e-05
0.000951014
4.3521e-05
8.41085e-05
0.000887419
0.000155275
2.50511e-05
0.000559575
0.00138036
-8.66115e-05
0.00201644
0.000163294
0.00091453
1.11374e-07
6.16044e-05
0.000951946
8.25965e-07
7.89887e-05
0.000983647
1.87608e-06
7.8393e-05
0.000998803
3.79344e-06
7.63457e-05
0.000995889
8.51309e-06
8.18029e-05
0.000988492
2.1179e-05
8.38699e-05
0.000949727
5.93084e-05
8.20564e-05
0.00087955
0.000206531
2.02636e-05
0.000549698
0.00176073
-0.000111972
0.0024881
0.000127403
0.00091423
2.53187e-07
6.15419e-05
0.000951323
1.43684e-06
7.89529e-05
0.000984711
2.26794e-06
7.72126e-05
0.00100023
4.79155e-06
7.56718e-05
0.000996646
1.11098e-05
8.12221e-05
0.000987941
2.79987e-05
8.26878e-05
0.00094795
7.85789e-05
7.95548e-05
0.000871364
0.000264508
1.51148e-05
0.000534994
0.00214613
-0.000135694
0.00294068
9.62037e-05
0.000913658
4.99299e-07
6.1377e-05
0.000950616
2.20647e-06
7.88191e-05
0.000983528
3.1476e-06
7.65403e-05
0.000998474
6.22539e-06
7.5162e-05
0.000994525
1.42474e-05
8.02282e-05
0.000985143
3.59552e-05
8.08979e-05
0.000944665
0.000101146
7.62826e-05
0.000860736
0.000329461
9.5652e-06
0.00052584
0.00253188
-0.000158716
0.00337917
6.76334e-05
0.000912748
6.86337e-07
6.10605e-05
0.00094963
2.89766e-06
7.85641e-05
0.000982107
4.07028e-06
7.56843e-05
0.00099662
7.89368e-06
7.44769e-05
0.000992519
1.7923e-05
7.88373e-05
0.000982174
4.51242e-05
7.85787e-05
0.000941656
0.000127087
7.20378e-05
0.000852198
0.000399368
2.90676e-06
0.000512344
0.00292182
-0.000179412
0.00379991
3.69834e-05
0.000911562
8.40769e-07
6.06237e-05
0.000948378
3.47842e-06
7.82156e-05
0.000980377
4.87998e-06
7.46168e-05
0.000994573
9.54041e-06
7.36204e-05
0.000990724
2.17167e-05
7.70811e-05
0.000979951
5.46593e-05
7.56858e-05
0.000940995
0.000154908
6.67413e-05
0.000843984
0.000472081
-4.20551e-06
0.000520197
0.00329118
-0.000200013
0.00422984
3.17975e-06
0.000910135
6.00898e-05
9.44324e-07
0.000946893
7.7783e-05
3.87344e-06
0.000978349
7.34132e-05
5.39248e-06
0.00099252
7.26359e-05
1.07191e-05
0.000990365
7.5008e-05
2.41372e-05
0.000983947
7.21588e-05
5.95242e-05
0.000962095
5.99881e-05
0.0001681
0.000848382
-1.40024e-05
0.000553851
0.00052225
-0.000215823
0.0036403
-4.55038e-05
0.00466342
0.000887711
-1.80314e-09
1.36099e-05
0.000922674
5.08e-08
4.39905e-05
0.000959849
1.30681e-07
4.27569e-05
0.000985502
4.21595e-07
5.13847e-05
0.00102044
1.23296e-06
4.6929e-05
0.00105565
3.48489e-06
4.74693e-05
0.00108017
1.04208e-05
5.35753e-05
0.00104887
4.1886e-05
3.09262e-05
0.000758397
0.000341205
-3.38941e-05
0.000801095
0.000351068
0.000887688
-7.5073e-10
1.3625e-05
0.000922638
1.33051e-07
4.39828e-05
0.000959699
3.00911e-07
4.26868e-05
0.000985228
8.96591e-07
5.12842e-05
0.00101991
2.54616e-06
4.67824e-05
0.00105481
7.14262e-06
4.73758e-05
0.00107791
2.12533e-05
5.28933e-05
0.00104225
8.39533e-05
2.89248e-05
0.000618883
0.000793514
-4.44516e-05
0.00143657
0.000206233
0.00088763
3.26134e-09
1.36788e-05
0.00092255
2.56881e-07
4.39612e-05
0.000959393
5.41544e-07
4.25456e-05
0.000984834
1.48554e-06
5.10527e-05
0.00101931
4.07664e-06
4.65087e-05
0.00105342
1.12896e-05
4.70767e-05
0.00107499
3.3558e-05
5.17891e-05
0.00102974
0.000132998
2.52347e-05
0.0005541
0.00126888
-6.50784e-05
0.002033
0.000150702
0.000887518
1.01448e-08
1.37779e-05
0.00092239
4.56313e-07
4.39158e-05
0.000958908
8.72249e-07
4.23013e-05
0.000984312
2.19671e-06
5.06626e-05
0.00101863
5.85591e-06
4.60774e-05
0.00105188
1.61035e-05
4.657e-05
0.00107095
4.79574e-05
5.05341e-05
0.00101785
0.000188195
2.19984e-05
0.000544792
0.00172424
-8.48937e-05
0.00259638
0.000129571
0.00088732
2.82097e-08
1.39416e-05
0.000922126
7.78505e-07
4.38337e-05
0.000958229
1.26195e-06
4.18959e-05
0.000983746
2.92189e-06
5.0075e-05
0.0010181
7.7664e-06
4.54603e-05
0.00105042
2.15934e-05
4.58974e-05
0.00106623
6.48512e-05
4.92126e-05
0.00100536
0.000249412
1.89332e-05
0.000526476
0.00217286
-9.75516e-05
0.00312459
0.000110802
0.000886983
7.06907e-08
1.41929e-05
0.000921737
1.2755e-06
4.36671e-05
0.000957379
1.46784e-06
4.13765e-05
0.000983194
3.46278e-06
4.92977e-05
0.00101775
9.73833e-06
4.46138e-05
0.00104888
2.79208e-05
4.50392e-05
0.00106063
8.48071e-05
4.76271e-05
0.000992076
0.000316433
1.56478e-05
0.000506741
0.00261766
-0.000110704
0.00362171
9.14504e-05
0.000886414
1.42649e-07
1.45703e-05
0.000921326
1.82677e-06
4.33231e-05
0.000956596
1.88819e-06
4.08724e-05
0.000982649
4.27438e-06
4.82843e-05
0.00101655
1.218e-05
4.38051e-05
0.00104582
3.5347e-05
4.39971e-05
0.00105313
0.000107927
4.55619e-05
0.000976135
0.000389816
1.21483e-05
0.000488376
0.00305557
-0.000124188
0.00408863
7.52086e-05
0.000885595
1.99845e-07
1.50888e-05
0.000920819
2.32746e-06
4.2822e-05
0.000955763
2.33742e-06
4.03238e-05
0.000982269
5.25958e-06
4.69784e-05
0.00101529
1.50894e-05
4.28223e-05
0.00104234
4.39142e-05
4.27359e-05
0.00104469
0.000134182
4.30816e-05
0.000961471
0.000466476
8.42617e-06
0.000471487
0.00348587
-0.000134847
0.00452549
5.79736e-05
0.000884543
2.35466e-07
1.5725e-05
0.000920207
2.71726e-06
4.21707e-05
0.000954817
2.70585e-06
3.96797e-05
0.000982006
6.2949e-06
4.53929e-05
0.00101419
1.82384e-05
4.16554e-05
0.00103925
5.30083e-05
4.12892e-05
0.00103716
0.000162273
4.03124e-05
0.000948408
0.000545126
4.82797e-06
0.000470499
0.0038995
-0.000150353
0.00494644
4.08181e-05
0.000883306
1.64774e-05
2.06192e-07
0.000919514
4.13769e-05
2.95676e-06
0.000953746
3.89697e-05
2.9546e-06
0.000981811
4.36057e-05
7.25224e-06
0.00101394
4.0341e-05
2.06778e-05
0.00104045
3.96569e-05
5.87527e-05
0.00104518
3.7103e-05
0.000179967
0.000948663
-2.30121e-07
0.000626675
0.000462491
-0.000151641
0.00430799
1.0455e-05
0.00533772
0.000853459
1.03784e-08
2.70313e-09
0.000897372
6.8973e-08
-3.75606e-10
0.000940098
6.69763e-08
-9.19787e-09
0.000991234
2.77516e-07
-2.74535e-08
0.00103717
1.00196e-06
-5.47693e-08
0.00108145
3.18603e-06
-1.21031e-07
0.00112524
1.00338e-05
-3.41297e-07
0.00111473
4.17218e-05
-1.20455e-06
0.000712434
0.00035937
-9.99924e-06
0.0010326
1.41932e-05
0.000853473
2.32012e-08
1.54769e-09
0.000897363
1.56231e-07
-3.64945e-09
0.000939997
1.54914e-07
-9.70843e-09
0.000990977
6.00304e-07
-1.90361e-08
0.00103663
2.11667e-06
-3.29956e-08
0.00108047
6.67029e-06
-7.46761e-08
0.00112247
2.0992e-05
-1.83352e-07
0.00110418
8.83178e-05
-3.45075e-07
0.000526626
0.000878881
-5.2647e-06
0.00174607
2.40852e-06
0.000853522
4.29401e-08
4.23243e-10
0.000897341
2.89367e-07
-3.49347e-09
0.000939787
2.86927e-07
-8.87164e-09
0.000990476
9.77023e-07
-1.5045e-08
0.00103572
3.35922e-06
-2.48537e-08
0.00107885
1.05259e-05
-5.41926e-08
0.0011182
3.34e-05
-1.09313e-07
0.00108795
0.000142779
-2.02839e-08
0.000470116
0.00141361
-5.83324e-07
0.00235282
-2.79366e-06
0.000853606
7.48584e-08
-5.83886e-12
0.000897291
5.05499e-07
-2.95194e-09
0.000939467
4.45531e-07
-7.55565e-09
0.000989743
1.37763e-06
-1.24198e-08
0.00103441
4.72986e-06
-2.07671e-08
0.00107646
1.49254e-05
-4.21292e-08
0.00111254
4.78202e-05
-9.40467e-08
0.00107295
0.000203284
-5.55831e-08
0.000477473
0.00190474
8.15184e-07
0.00294489
-1.49662e-06
0.000853747
1.22706e-07
-6.16995e-12
0.000897253
8.24716e-07
-2.51298e-09
0.000939048
5.96284e-07
-5.92704e-09
0.000988764
1.73853e-06
-9.41746e-09
0.00103271
6.18269e-06
-1.632e-08
0.00107342
1.99444e-05
-3.23366e-08
0.00110575
6.46171e-05
-7.94962e-08
0.00105781
0.000269132
-1.65053e-07
0.000459553
0.0023868
3.79884e-07
0.00349981
-5.70335e-07
0.000853983
1.84956e-07
3.60331e-10
0.000897229
1.23805e-06
-2.42647e-09
0.000938566
6.93961e-07
-4.53234e-09
0.000987573
2.02939e-06
-7.10307e-09
0.00103057
7.72353e-06
-1.3033e-08
0.00106969
2.56805e-05
-2.54612e-08
0.0010976
8.41742e-05
-6.82598e-08
0.00104129
0.000340101
-2.23532e-07
0.000439779
0.00285976
1.22501e-07
0.00401582
-1.36169e-07
0.000854364
2.49712e-07
9.94843e-10
0.000897246
1.66727e-06
-2.37036e-09
0.0009381
7.8135e-07
-3.58613e-09
0.000986077
2.35113e-06
-6.95343e-09
0.00102801
9.52929e-06
-1.19943e-08
0.00106509
3.2381e-05
-2.09154e-08
0.00108779
0.000106802
-5.81544e-08
0.00102231
0.000416735
-2.34733e-07
0.000414781
0.00332577
-1.36277e-07
0.00449088
2.47458e-07
0.0008549
3.09137e-07
1.23682e-09
0.000897326
2.05565e-06
-2.38244e-09
0.00093766
8.50294e-07
-3.04977e-09
0.000984267
2.75681e-06
-6.20865e-09
0.00102486
1.1704e-05
-1.05628e-08
0.00105959
4.017e-05
-1.73304e-08
0.00107657
0.000132573
-4.94775e-08
0.00100441
0.000496289
-2.26049e-07
0.000395967
0.00378276
-5.86144e-07
0.00492979
6.55755e-07
0.000855572
3.52084e-07
1.23286e-09
0.000897488
2.3165e-06
-2.24861e-09
0.000937215
8.79751e-07
-2.83079e-09
0.000982132
3.28349e-06
-5.90322e-09
0.0010212
1.42571e-05
-1.00902e-08
0.00105368
4.87619e-05
-1.66823e-08
0.00106556
0.000160602
-4.80244e-08
0.000988246
0.00057739
-2.14452e-07
0.000378324
0.0042267
-9.98587e-07
0.00533553
9.03e-07
0.000856501
1.06437e-09
2.38289e-07
0.000897756
-2.03534e-09
2.45895e-06
0.000936744
-2.75304e-09
9.08402e-07
0.000979629
-5.5591e-09
4.04879e-06
0.00101754
-9.09082e-09
1.66724e-05
0.00105067
-1.38249e-08
5.51034e-05
0.00106624
-3.53314e-08
0.000181707
0.00098702
-1.5786e-07
0.000655133
0.000349842
-9.20177e-07
0.00469722
1.25184e-06
0.00567878
0.000853453
1.06613e-08
-1.35985e-05
0.000897378
7.1452e-08
-4.40059e-05
0.000940099
6.88167e-08
-4.27697e-05
0.000991241
2.77329e-07
-5.14445e-05
0.00103708
9.93372e-07
-4.69352e-05
0.00108136
3.15297e-06
-4.76725e-05
0.00112507
9.90699e-06
-5.40675e-05
0.00111481
4.12033e-05
-3.31349e-05
0.000713036
0.000359237
1.36593e-05
0.0010388
-0.00032917
0.000853474
2.36577e-08
-1.36225e-05
0.000897368
1.59179e-07
-4.39954e-05
0.000939999
1.57854e-07
-4.27015e-05
0.000990982
6.0024e-07
-5.13237e-05
0.00103658
2.10498e-06
-4.67852e-05
0.00108037
6.62195e-06
-4.74647e-05
0.0011224
2.08179e-05
-5.32443e-05
0.00110419
8.74809e-05
-2.93983e-05
0.000525483
0.000876317
3.75119e-05
0.00175418
-0.00020509
0.000853522
4.32202e-08
-1.36776e-05
0.000897346
2.9117e-07
-4.39711e-05
0.00093979
2.89005e-07
-4.25588e-05
0.00099048
9.76753e-07
-5.10822e-05
0.00103568
3.34996e-06
-4.6521e-05
0.00107877
1.04897e-05
-4.71445e-05
0.00111812
3.32736e-05
-5.20516e-05
0.00108788
0.000142301
-2.56228e-05
0.000470427
0.0014107
6.3846e-05
0.00235639
-0.000151962
0.000853605
7.49313e-08
-1.37768e-05
0.000897295
5.05983e-07
-4.3924e-05
0.00093947
4.45947e-07
-4.23127e-05
0.000989748
1.37662e-06
-5.06865e-05
0.0010344
4.72379e-06
-4.60979e-05
0.00107641
1.4905e-05
-4.6631e-05
0.00111246
4.77566e-05
-5.07473e-05
0.00107286
0.000203058
-2.23101e-05
0.000478638
0.00190283
8.42229e-05
0.0029462
-0.000129536
0.000853746
1.22626e-07
-1.39405e-05
0.000897257
8.24276e-07
-4.38412e-05
0.000939051
5.95636e-07
-4.19055e-05
0.000988767
1.73718e-06
-5.00916e-05
0.0010327
6.1792e-06
-4.54835e-05
0.00107339
1.99356e-05
-4.59394e-05
0.00110567
6.45957e-05
-4.93601e-05
0.00105767
0.000269084
-1.93241e-05
0.000460543
0.00238501
9.70696e-05
0.00349996
-0.000110019
0.000853984
1.84805e-07
-1.41921e-05
0.000897233
1.23712e-06
-4.36744e-05
0.000938569
6.9307e-07
-4.13845e-05
0.000987576
2.02803e-06
-4.93088e-05
0.00103058
7.72165e-06
-4.46378e-05
0.00106967
2.56781e-05
-4.50676e-05
0.00109753
8.41743e-05
-4.77271e-05
0.00104113
0.000340145
-1.60347e-05
0.000440336
0.00285836
0.000109846
0.0040151
-9.04038e-05
0.000854365
2.49599e-07
-1.45691e-05
0.00089725
1.66656e-06
-4.33303e-05
0.000938104
7.80612e-07
-4.08793e-05
0.000986086
2.35042e-06
-4.8302e-05
0.00102801
9.52879e-06
-4.38249e-05
0.00106508
3.2382e-05
-4.40155e-05
0.00108773
0.000106812
-4.56307e-05
0.00102214
0.000416815
-1.24905e-05
0.000414911
0.00332469
0.000123302
0.00448964
-7.40368e-05
0.000854901
3.09108e-07
-1.50874e-05
0.000897331
2.05545e-06
-4.28296e-05
0.000937665
8.50036e-07
-4.033e-05
0.000984278
2.75679e-06
-4.69955e-05
0.00102487
1.17046e-05
-4.28405e-05
0.00105958
4.01725e-05
-4.27485e-05
0.00107652
0.000132584
-4.31266e-05
0.00100422
0.000496395
-8.7137e-06
0.000395282
0.00378228
0.000133536
0.0049283
-5.69523e-05
0.000855573
3.52142e-07
-1.57233e-05
0.000897493
2.31687e-06
-4.21786e-05
0.000937221
8.80267e-07
-3.96858e-05
0.000982143
3.28446e-06
-4.54097e-05
0.00102121
1.4259e-05
-4.16729e-05
0.00105367
4.87662e-05
-4.13012e-05
0.00106551
0.000160615
-4.03594e-05
0.000988061
0.000577496
-5.08024e-06
0.000376986
0.0042269
0.000148778
0.00533386
-4.0007e-05
0.0008565
-1.64753e-05
2.38761e-07
0.000897761
-4.13849e-05
2.45949e-06
0.000936749
-3.8976e-05
9.09534e-07
0.00097964
-4.36221e-05
4.05089e-06
0.00101755
-4.03581e-05
1.66764e-05
0.00105066
-3.96667e-05
5.5112e-05
0.00106619
-3.71356e-05
0.000181734
0.000986859
8.68735e-08
0.000655209
0.000347358
0.000150633
0.00469884
-1.01977e-05
0.0056773
0.000887732
9.62532e-10
-6.1657e-05
0.000922693
6.36306e-08
-7.90358e-05
0.000959838
1.40387e-07
-8.00456e-05
0.00098533
4.15897e-07
-7.73651e-05
0.00102009
1.18367e-06
-8.2925e-05
0.00105522
3.3267e-06
-8.6253e-05
0.00107936
9.86698e-06
-8.8094e-05
0.00104727
3.9186e-05
-4.11447e-05
0.000762002
0.000330342
-4.709e-05
0.000817094
-0.000402128
0.000887703
2.40307e-09
-6.16527e-05
0.000922652
1.4355e-07
-7.90306e-05
0.000959694
3.1123e-07
-7.99065e-05
0.000985139
8.94091e-07
-7.72605e-05
0.00101975
2.50208e-06
-8.27666e-05
0.00105443
6.97603e-06
-8.59094e-05
0.00107739
2.06977e-05
-8.70855e-05
0.00104164
8.15794e-05
-3.68913e-05
0.000616339
0.00078347
-6.12651e-06
0.00146583
-0.000255567
0.00088764
4.79025e-09
-6.16451e-05
0.000922561
2.62495e-07
-7.90214e-05
0.000959393
5.46687e-07
-7.9621e-05
0.000984786
1.48096e-06
-7.7078e-05
0.00101921
4.04104e-06
-8.25411e-05
0.00105317
1.11642e-05
-8.54206e-05
0.00107443
3.31553e-05
-8.58292e-05
0.00102932
0.0001317
-3.14671e-05
0.000555436
0.00126188
4.34319e-05
0.00204916
-0.000197514
0.000887525
1.04155e-08
-6.16324e-05
0.000922399
4.57398e-07
-7.90087e-05
0.000958912
8.71532e-07
-7.91498e-05
0.000984287
2.18875e-06
-7.67901e-05
0.00101857
5.82779e-06
-8.22274e-05
0.0010517
1.60212e-05
-8.47549e-05
0.00107049
4.77291e-05
-8.42051e-05
0.00101752
0.00018767
-2.61095e-05
0.000545388
0.00171835
8.38923e-05
0.00260589
-0.000157972
0.000887327
2.75163e-08
-6.16087e-05
0.000922135
7.76598e-07
-7.89926e-05
0.000958237
1.25782e-06
-7.83937e-05
0.000983741
2.91316e-06
-7.63421e-05
0.00101807
7.74679e-06
-8.17952e-05
0.00105032
2.15468e-05
-8.3861e-05
0.00106591
6.47432e-05
-8.20941e-05
0.00100497
0.000249321
-2.08502e-05
0.000525847
0.00216787
0.000110903
0.00313007
-0.00012454
0.000886989
6.94498e-08
-6.1547e-05
0.000921747
1.27183e-06
-7.89587e-05
0.000957391
1.46326e-06
-7.72181e-05
0.000983203
3.45623e-06
-7.56762e-05
0.00101774
9.72717e-06
-8.12212e-05
0.00104883
2.78994e-05
-8.2685e-05
0.00106042
8.47697e-05
-7.95574e-05
0.000991654
0.000316555
-1.53257e-05
0.000504782
0.00261426
0.000134888
0.0036244
-9.51754e-05
0.000886422
1.41967e-07
-6.1384e-05
0.000921338
1.82409e-06
-7.88273e-05
0.000956609
1.88483e-06
-7.65466e-05
0.000982652
4.27012e-06
-7.51653e-05
0.00101654
1.21746e-05
-8.02338e-05
0.0010458
3.53411e-05
-8.09009e-05
0.00105299
0.00010793
-7.62611e-05
0.000975724
0.00039002
-9.55049e-06
0.000485448
0.00305358
0.000159018
0.00408959
-6.7652e-05
0.000885604
1.99741e-07
-6.10685e-05
0.000920832
2.32662e-06
-7.85736e-05
0.000955776
2.33625e-06
-7.56907e-05
0.000982272
5.25869e-06
-7.44807e-05
0.00101529
1.50897e-05
-7.88449e-05
0.00104234
4.39194e-05
-7.85883e-05
0.00104459
0.000134205
-7.1996e-05
0.000960977
0.000466756
-2.73723e-06
0.000467478
0.00348541
0.000180115
0.00452496
-3.78879e-05
0.000884553
2.35831e-07
-6.0632e-05
0.00092022
2.71811e-06
-7.82257e-05
0.000954832
2.70719e-06
-7.46234e-05
0.00098201
6.2971e-06
-7.36236e-05
0.00101419
1.82425e-05
-7.70872e-05
0.00103926
5.30178e-05
-7.56919e-05
0.00103707
0.000162296
-6.66829e-05
0.000948108
0.000545326
4.37604e-06
0.000466053
0.00390088
0.000200821
0.00494454
-4.69007e-06
0.000883316
-6.0098e-05
2.07155e-07
0.000919528
-7.77931e-05
2.95867e-06
0.000953761
-7.34198e-05
2.95804e-06
0.000981815
-7.26403e-05
7.25823e-06
0.00101394
-7.50178e-05
2.06892e-05
0.00104045
-7.21734e-05
5.87781e-05
0.0010451
-5.99674e-05
0.000180039
0.00094843
1.40064e-05
0.000627006
0.000458086
0.000216914
0.00431093
4.29931e-05
0.00533668
0.000914896
7.39101e-09
-0.000137131
0.0009528
6.97554e-08
-0.000117019
0.00098295
2.04191e-07
-0.000110409
0.000998112
5.05489e-07
-9.30464e-05
0.00099636
1.23232e-06
-8.24368e-05
0.000991196
3.1584e-06
-8.43116e-05
0.000951978
8.82608e-06
-5.75689e-05
0.000900839
3.28566e-05
-2.33841e-05
0.00074361
0.000281236
-0.000180715
0.000499187
-0.000168574
0.000914872
1.96063e-08
-0.000137108
0.000952737
1.59935e-07
-0.000116997
0.000982994
4.49206e-07
-0.00011042
0.000998118
1.08333e-06
-9.2978e-05
0.000996212
2.59569e-06
-8.22581e-05
0.000990561
6.58429e-06
-8.37527e-05
0.000950984
1.84473e-05
-5.70402e-05
0.000897116
6.80889e-05
-1.87338e-05
0.000637566
0.000609329
-8.50982e-05
0.00103906
-0.000170187
0.000914815
3.57957e-08
-0.000137049
0.000952597
2.873e-07
-0.000116945
0.000983105
7.74467e-07
-0.00011047
0.000998174
1.80606e-06
-9.28896e-05
0.00099598
4.23095e-06
-8.20207e-05
0.000989724
1.06053e-05
-8.3258e-05
0.000950023
2.96481e-05
-5.72938e-05
0.000891833
0.000108657
-1.42026e-05
0.000576914
0.000981929
-2.57335e-05
0.00154381
-0.000137746
0.000914712
5.91146e-08
-0.000136942
0.000952353
4.84243e-07
-0.000116866
0.000983297
1.23407e-06
-0.000110574
0.000998327
2.72873e-06
-9.27684e-05
0.00099576
6.21214e-06
-8.16871e-05
0.000988894
1.53949e-05
-8.27616e-05
0.000949273
4.29817e-05
-5.79442e-05
0.000885942
0.00015477
-9.15272e-06
0.000557555
0.00136787
1.41918e-05
0.00203706
-0.000105708
0.000914538
1.09673e-07
-0.000136772
0.000951956
8.21516e-07
-0.000116773
0.000983667
1.86606e-06
-0.000110763
0.00099883
3.77238e-06
-9.25794e-05
0.000995894
8.46309e-06
-8.11611e-05
0.000988337
2.10489e-05
-8.20539e-05
0.000948793
5.89765e-05
-5.86312e-05
0.000878571
0.00020647
-2.61675e-06
0.000545804
0.00175248
4.71549e-05
0.00250447
-5.70457e-05
0.000914239
2.49466e-07
-0.000136499
0.000951337
1.42897e-06
-0.000116698
0.000984726
2.25738e-06
-0.000111004
0.00100025
4.7736e-06
-9.22252e-05
0.000996672
1.10753e-05
-8.03197e-05
0.00098791
2.79214e-05
-8.09324e-05
0.000947568
7.83947e-05
-5.88269e-05
0.000870689
0.000264673
3.065e-06
0.000530773
0.00214055
7.42906e-05
0.00295175
-2.17079e-05
0.00091367
4.9738e-07
-0.00013587
0.000950634
2.20132e-06
-0.000116591
0.000983549
3.14047e-06
-0.000110341
0.000998505
6.21469e-06
-9.15875e-05
0.000994569
1.42294e-05
-7.95298e-05
0.000985176
3.59205e-05
-7.96777e-05
0.00094458
0.000101066
-5.85858e-05
0.0008602
0.000329664
9.39091e-06
0.000522797
0.00252921
9.60496e-05
0.00338645
1.17162e-05
0.000912762
6.85809e-07
-0.000134589
0.00094965
2.89608e-06
-0.000116171
0.000982131
4.06815e-06
-0.000109084
0.000996655
7.89164e-06
-9.0706e-05
0.000992574
1.79217e-05
-7.85453e-05
0.000982222
4.51273e-05
-7.76476e-05
0.000941792
0.000127109
-5.79249e-05
0.000851871
0.000399775
1.67148e-05
0.000509433
0.00292046
0.000119992
0.00380471
4.4961e-05
0.000911578
8.41257e-07
-0.000132941
0.000948399
3.47959e-06
-0.000115626
0.000980402
4.88216e-06
-0.000107411
0.000994613
9.54388e-06
-8.95103e-05
0.000990791
2.17221e-05
-7.7173e-05
0.000980035
5.46669e-05
-7.47204e-05
0.000941215
0.000154905
-5.60066e-05
0.000843626
0.000472161
2.88233e-05
0.000517796
0.00329113
0.000145415
0.00423293
7.79423e-05
0.00091015
-0.000130947
9.45734e-07
0.000946914
-0.000114922
3.87656e-06
0.000978374
-0.000105358
5.39805e-06
0.000992556
-8.80323e-05
1.07293e-05
0.000990417
-7.54369e-05
2.41566e-05
0.000984004
-7.09243e-05
5.95665e-05
0.000962217
-5.2031e-05
0.000168226
0.000848254
4.62887e-05
0.000554043
0.000520984
0.000182935
0.00364171
0.000121682
0.00466616
0.00090277
2.19589e-08
-0.000200393
0.00085949
7.10282e-08
-7.38211e-05
0.000786892
1.85661e-07
-3.79939e-05
0.000755412
4.41438e-07
-6.19977e-05
0.000753261
1.00467e-06
-8.13024e-05
0.000788988
2.3768e-06
-0.000122414
0.000577081
6.08601e-06
0.000148507
0.000627258
2.15283e-05
-9.42661e-05
8.35385e-05
0.000245269
0.000112742
0.000196362
-0.00028833
0.000902749
6.01186e-08
-0.000200368
0.000859495
1.65647e-07
-7.38519e-05
0.000786747
4.11096e-07
-3.78968e-05
0.000755274
9.55786e-07
-6.20125e-05
0.000753356
2.1521e-06
-8.15007e-05
0.000787236
4.97428e-06
-0.000120233
0.000578662
1.27955e-05
0.000145051
0.000626353
4.57793e-05
-8.98623e-05
0.000309795
0.000385489
8.72199e-05
0.000589151
-0.00026324
0.000902687
1.10157e-07
-0.000200264
0.000859599
2.89819e-07
-7.4e-05
0.00078642
7.01421e-07
-3.75854e-05
0.00075485
1.60389e-06
-6.19649e-05
0.000752943
3.56642e-06
-8.15522e-05
0.000785421
8.1607e-06
-0.000118912
0.000579438
2.08725e-05
0.000140884
0.000623191
7.35163e-05
-8.48809e-05
0.000272558
0.000618865
8.72868e-05
0.000937525
-0.000222632
0.000902574
1.75129e-07
-0.000200065
0.000859808
4.59118e-07
-7.42928e-05
0.000785824
1.096e-06
-3.69928e-05
0.000754028
2.45666e-06
-6.18285e-05
0.00075196
5.35882e-06
-8.14416e-05
0.000783927
1.21123e-05
-0.000118682
0.000581665
3.08135e-05
0.000134621
0.000617126
0.000106458
-7.67108e-05
0.000260954
0.000879908
0.000104631
0.00126388
-0.00017953
0.000902392
2.7547e-07
-0.000199754
0.000860064
7.36721e-07
-7.47511e-05
0.000784741
1.68881e-06
-3.60456e-05
0.000752635
3.60757e-06
-6.1632e-05
0.000750491
7.63089e-06
-8.13257e-05