/*--------------------------------*- C++ -*----------------------------------*\
  =========                 |
  \\      /  F ield         | OpenFOAM: The Open Source CFD Toolbox
   \\    /   O peration     | Website:  https://openfoam.org
    \\  /    A nd           | Version:  6.0
     \\/     M anipulation  |
\*---------------------------------------------------------------------------*/
FoamFile
{
    version     2.0;
    format      ascii;
    class       volScalarField;
    location    "1";
    object      T;
}
// * * * * * * * * * * * * * * * * * * * * * * * * * * * * * * * * * * * * * //

dimensions      [0 0 0 1 0 0 0];

internalField   nonuniform List<scalar> 
3000
(
0.875427
0.833109
0.821422
0.816079
0.824695
0.875776
1.38622
2.32684
2.59034
2.52595
0.875169
0.833439
0.821225
0.816284
0.82414
0.886365
1.35064
2.31417
2.66202
2.56915
0.875267
0.833273
0.821238
0.816107
0.823883
0.884155
1.34697
2.27124
2.62431
2.55325
0.87545
0.832991
0.821218
0.815855
0.823423
0.882459
1.34244
2.28326
2.62192
2.56363
0.875743
0.832543
0.821192
0.815468
0.822708
0.879893
1.33592
2.29035
2.61756
2.56143
0.87612
0.83189
0.821161
0.814917
0.821701
0.87614
1.32558
2.2881
2.61176
2.55626
0.876354
0.831199
0.820961
0.814236
0.820595
0.871621
1.3109
2.27896
2.60122
2.54635
0.876479
0.830464
0.820503
0.8135
0.819422
0.867394
1.28106
2.26945
2.58244
2.52625
0.876665
0.829466
0.819877
0.812515
0.81778
0.862215
1.22521
2.2591
2.55632
2.48502
0.876969
0.82808
0.819142
0.811254
0.81556
0.854863
1.14859
2.22965
2.50354
2.41964
1.0022
1.00293
1.00555
1.01903
1.06577
1.17905
1.54233
2.97602
2.85231
2.58713
1.00216
1.00292
1.00543
1.01887
1.06406
1.18155
1.55142
2.9944
2.87603
2.78388
1.00213
1.00287
1.00533
1.01855
1.06334
1.17941
1.54491
2.98343
2.87198
2.82856
1.00207
1.00277
1.00516
1.01809
1.06223
1.17703
1.53635
2.97285
2.85992
2.82916
1.00198
1.00262
1.00493
1.01743
1.06066
1.17347
1.52432
2.95198
2.84985
2.82027
1.00184
1.00236
1.00462
1.01652
1.0585
1.16835
1.50754
2.92182
2.83418
2.80336
1.00154
1.00193
1.00411
1.01524
1.05554
1.16137
1.48556
2.87734
2.81334
2.76931
1.00097
1.00122
1.0033
1.01356
1.05154
1.15237
1.45773
2.81488
2.78613
2.72818
1.00022
1.00031
1.00226
1.01142
1.04639
1.14065
1.42153
2.71491
2.73813
2.66614
0.999417
0.999119
1.00097
1.0088
1.04004
1.12542
1.37326
2.5255
2.66787
2.58648
1.03168
1.04294
1.05052
1.07423
1.13291
1.27451
1.6739
2.90672
2.8022
2.82005
1.03167
1.04291
1.05043
1.07403
1.13234
1.27407
1.67177
2.90526
2.79296
2.82299
1.03164
1.04283
1.05025
1.07364
1.13149
1.2722
1.66552
2.90091
2.78422
2.82136
1.03158
1.04269
1.04997
1.07305
1.13018
1.26929
1.65596
2.88885
2.77588
2.81432
1.03149
1.04247
1.04955
1.07219
1.12829
1.26502
1.64226
2.86879
2.76746
2.79647
1.03133
1.04214
1.04897
1.07102
1.1257
1.25907
1.62357
2.8418
2.75367
2.77841
1.03109
1.04172
1.04845
1.06965
1.12249
1.2516
1.60029
2.80459
2.73901
2.74012
1.03073
1.04116
1.04784
1.06792
1.11831
1.24178
1.57021
2.7548
2.70813
2.70715
1.03025
1.04044
1.04708
1.06575
1.11299
1.22913
1.53238
2.68553
2.67496
2.6372
1.0297
1.0396
1.04618
1.06308
1.10641
1.21301
1.48276
2.5745
2.61296
2.57156
1.0283
1.04847
1.06671
1.10236
1.17795
1.34654
1.79262
2.9445
2.76725
2.82668
1.02828
1.04845
1.06664
1.10217
1.17752
1.34567
1.79011
2.94385
2.76536
2.82884
1.02825
1.04839
1.0665
1.10178
1.17662
1.34366
1.78417
2.93772
2.76283
2.82599
1.02819
1.04829
1.06626
1.10117
1.17519
1.34041
1.77416
2.92689
2.75672
2.81845
1.02808
1.04812
1.06593
1.10031
1.17314
1.33566
1.75939
2.91032
2.75149
2.80038
1.02789
1.04789
1.0655
1.09915
1.17033
1.32908
1.7392
2.88799
2.74147
2.78277
1.02761
1.0476
1.06509
1.09772
1.16667
1.32047
1.71367
2.85633
2.7307
2.74479
1.02721
1.04722
1.06462
1.09592
1.16196
1.30928
1.68097
2.81536
2.70769
2.71323
1.02672
1.04675
1.06404
1.09365
1.156
1.29501
1.6404
2.75325
2.68169
2.64479
1.02614
1.04619
1.06333
1.09086
1.14867
1.27727
1.58738
2.66893
2.63091
2.58484
1.01662
1.03652
1.05801
1.10112
1.18617
1.3699
1.8461
2.96262
2.74736
2.83059
1.01659
1.03652
1.05796
1.10095
1.18575
1.36891
1.84477
2.96082
2.74533
2.83467
1.01653
1.03651
1.05785
1.10058
1.18485
1.36672
1.8411
2.95542
2.74309
2.83113
1.01643
1.03651
1.05768
1.1
1.18339
1.36336
1.83202
2.94602
2.73815
2.8228
1.01632
1.03644
1.05748
1.09918
1.18132
1.35861
1.81706
2.93194
2.7336
2.80361
1.01614
1.03631
1.0573
1.09812
1.1785
1.35203
1.79657
2.91287
2.72528
2.78573
1.01587
1.03615
1.05717
1.09679
1.17482
1.34323
1.77002
2.88535
2.71605
2.74647
1.01551
1.03596
1.05706
1.09514
1.17009
1.33183
1.73618
2.84909
2.69655
2.71527
1.01507
1.0357
1.05695
1.09307
1.16413
1.31734
1.69431
2.79419
2.67375
2.64275
1.0146
1.03537
1.05677
1.09052
1.15678
1.29935
1.6404
2.71625
2.62739
2.59191
1.01662
1.03653
1.05801
1.10113
1.18617
1.36989
1.84609
2.96297
2.74706
2.83517
1.0166
1.03652
1.05796
1.10095
1.18575
1.36891
1.84477
2.96101
2.74506
2.83926
1.01654
1.03652
1.05785
1.10059
1.18485
1.36673
1.84112
2.95551
2.74273
2.83557
1.01643
1.03651
1.05768
1.10001
1.1834
1.36338
1.8321
2.94608
2.7377
2.82708
1.01632
1.03644
1.05749
1.09918
1.18133
1.35863
1.81715
2.93199
2.73318
2.80752
1.01615
1.03631
1.0573
1.09813
1.17852
1.35205
1.79666
2.9129
2.7249
2.78947
1.01587
1.03616
1.05717
1.0968
1.17483
1.34325
1.7701
2.88539
2.7157
2.74984
1.01551
1.03596
1.05707
1.09515
1.1701
1.33185
1.73627
2.84912
2.69631
2.71845
1.01507
1.0357
1.05696
1.09308
1.16414
1.31736
1.69438
2.79424
2.67349
2.64539
1.0146
1.03538
1.05678
1.09053
1.15679
1.29937
1.64048
2.71633
2.62711
2.59478
1.02831
1.04849
1.06671
1.10234
1.17791
1.3465
1.79253
2.94606
2.7654
2.83585
1.02829
1.04846
1.06665
1.10216
1.1775
1.34562
1.79012
2.94419
2.76365
2.83783
1.02826
1.0484
1.0665
1.10178
1.17661
1.34365
1.78437
2.93806
2.76119
2.83528
1.0282
1.0483
1.06627
1.10118
1.1752
1.34044
1.77443
2.92714
2.75503
2.82794
1.02809
1.04813
1.06594
1.10032
1.17316
1.3357
1.75966
2.91051
2.74998
2.80961
1.0279
1.0479
1.06551
1.09917
1.17036
1.32913
1.73945
2.8881
2.74017
2.79156
1.02762
1.04761
1.0651
1.09773
1.1667
1.32052
1.7139
2.85645
2.72947
2.75245
1.02722
1.04723
1.06463
1.09593
1.16199
1.30933
1.68119
2.81538
2.70699
2.7201
1.02672
1.04676
1.06405
1.09367
1.15603
1.29506
1.64058
2.75345
2.68034
2.65098
1.02615
1.0462
1.06335
1.09088
1.1487
1.27732
1.58755
2.66913
2.62985
2.58958
1.03169
1.04295
1.0505
1.07416
1.13261
1.27453
1.67379
2.90994
2.79513
2.82431
1.03168
1.04292
1.05042
1.07399
1.13223
1.2738
1.67151
2.90814
2.79016
2.82904
1.03165
1.04284
1.05025
1.07363
1.13143
1.27208
1.6659
2.90184
2.78346
2.82671
1.03159
1.0427
1.04997
1.07304
1.13015
1.26924
1.65651
2.88874
2.77582
2.81868
1.03149
1.04248
1.04955
1.0722
1.1283
1.26503
1.64272
2.86844
2.76746
2.79851
1.03134
1.04215
1.04898
1.07104
1.12572
1.2591
1.62394
2.84118
2.75391
2.77976
1.0311
1.04173
1.04846
1.06966
1.12251
1.25165
1.60059
2.80409
2.73921
2.74002
1.03074
1.04117
1.04785
1.06794
1.11833
1.24184
1.57047
2.75408
2.70846
2.70626
1.03026
1.04046
1.0471
1.06576
1.11302
1.22919
1.53258
2.68511
2.67507
2.6365
1.02971
1.03961
1.04619
1.0631
1.10644
1.21307
1.48298
2.57398
2.61315
2.56854
1.00219
1.00294
1.00547
1.01891
1.06426
1.1805
1.55021
2.99069
2.87637
2.70338
1.00217
1.00292
1.00542
1.01878
1.06385
1.1802
1.54926
2.98773
2.88178
2.78285
1.00214
1.00287
1.00532
1.01851
1.06315
1.179
1.5452
2.98284
2.8769
2.80613
1.00208
1.00277
1.00516
1.01807
1.06211
1.17678
1.53711
2.97032
2.86873
2.80436
1.00198
1.00262
1.00492
1.01742
1.06061
1.17337
1.52485
2.94868
2.85954
2.79489
1.00185
1.00237
1.00462
1.01652
1.05849
1.16834
1.50788
2.91804
2.84126
2.77945
1.00155
1.00194
1.00411
1.01525
1.05555
1.16143
1.48588
2.87243
2.82242
2.74698
1.00098
1.00124
1.00331
1.01358
1.05155
1.1525
1.45813
2.8116
2.78981
2.7087
1.00023
1.00032
1.00228
1.01144
1.04641
1.14076
1.42205
2.70551
2.74122
2.65079
0.999429
0.999133
1.00098
1.00882
1.04006
1.12555
1.37369
2.52107
2.66846
2.57139
0.875148
0.833435
0.821247
0.816206
0.824083
0.883177
1.36425
2.22431
2.63082
2.56168
0.875161
0.833408
0.821228
0.816173
0.823984
0.883931
1.35722
2.23838
2.60901
2.54254
0.875252
0.833273
0.821209
0.816049
0.823742
0.883821
1.34645
2.24989
2.60542
2.53447
0.875436
0.833001
0.821183
0.815815
0.82333
0.882372
1.34057
2.26365
2.61501
2.543
0.875727
0.832559
0.821159
0.815447
0.822671
0.879877
1.33521
2.28494
2.61896
2.54834
0.876102
0.831915
0.821132
0.814909
0.821701
0.876163
1.32587
2.28818
2.61564
2.54746
0.876331
0.831236
0.820941
0.814231
0.820606
0.871714
1.31194
2.28521
2.60784
2.54172
0.876453
0.830513
0.820483
0.813501
0.819438
0.867648
1.28099
2.27742
2.59028
2.52484
0.876638
0.829522
0.81986
0.812518
0.817798
0.862517
1.22457
2.27163
2.56366
2.48753
0.876944
0.828124
0.819137
0.811264
0.81558
0.855099
1.14805
2.23605
2.51001
2.42303
0.878853
0.822732
0.816836
0.806811
0.807474
0.825982
0.966041
1.73757
2.20854
2.21805
0.874462
0.823148
0.807147
0.800533
0.797562
0.805688
0.842792
1.29066
1.73847
1.87154
0.867447
0.82597
0.796033
0.792991
0.785511
0.785647
0.791364
0.917584
1.27249
1.47788
0.873926
0.816396
0.799016
0.774359
0.76704
0.760055
0.758435
0.760644
0.874179
1.13938
0.869738
0.821708
0.794286
0.775247
0.759588
0.75805
0.754127
0.755531
0.761748
0.903921
0.868752
0.822626
0.793447
0.776584
0.756566
0.754052
0.752083
0.751679
0.753481
0.802928
0.871689
0.819324
0.795956
0.774075
0.756258
0.742703
0.741855
0.739448
0.736381
0.726195
0.869467
0.82214
0.794074
0.774765
0.756522
0.743959
0.740457
0.736982
0.731626
0.762304
0.870177
0.820761
0.794007
0.77453
0.755348
0.742368
0.737295
0.737666
0.735555
0.736809
0.869328
0.821593
0.794421
0.775591
0.753341
0.742541
0.735656
0.738383
0.732187
0.785888
0.997105
0.995437
0.997112
1.0014
1.02256
1.08187
1.24179
1.93483
2.35697
2.37199
0.9948
0.988657
0.989151
0.991483
1.00251
1.04019
1.12289
1.47752
1.9009
2.02678
0.989274
0.983002
0.978078
0.978702
0.980063
0.990538
1.01797
1.12886
1.4399
1.63696
0.989453
0.981701
0.973908
0.963819
0.960516
0.961063
0.962945
0.969526
1.03623
1.09215
0.988941
0.981052
0.973632
0.961463
0.95615
0.956823
0.958404
0.966727
0.985924
1.06669
0.988228
0.981038
0.973391
0.961116
0.953668
0.953952
0.955043
0.960878
0.974909
1.0355
0.988418
0.980735
0.973608
0.961573
0.950795
0.946143
0.946482
0.947479
0.952177
0.965205
0.98823
0.980526
0.973444
0.960546
0.951744
0.945351
0.944868
0.945458
0.948439
0.96818
0.988488
0.980268
0.972945
0.960655
0.950708
0.943214
0.94244
0.943765
0.945087
0.954462
0.988172
0.980431
0.972586
0.96049
0.950139
0.943049
0.940777
0.941855
0.942939
0.957851
1.02855
1.03669
1.04374
1.05533
1.0873
1.16554
1.35211
2.07093
2.39036
2.37011
1.02738
1.03331
1.03788
1.04398
1.06409
1.11501
1.23298
1.63537
2.0075
2.08951
1.02401
1.03136
1.03184
1.03275
1.03755
1.05499
1.09845
1.21548
1.43377
1.67834
1.02213
1.03042
1.02942
1.02669
1.0251
1.02587
1.031
1.04876
1.07451
1.15523
1.02188
1.03022
1.02899
1.02584
1.02365
1.02245
1.02641
1.0393
1.06818
1.16295
1.0217
1.03017
1.02886
1.02555
1.0224
1.0213
1.02392
1.03415
1.05748
1.1379
1.02153
1.03
1.02868
1.02532
1.02028
1.01893
1.01901
1.02115
1.02925
1.04601
1.02151
1.02994
1.02844
1.02502
1.01997
1.01861
1.01863
1.02023
1.02707
1.04495
1.0216
1.02982
1.02813
1.02472
1.01939
1.0175
1.01785
1.01894
1.02385
1.03621
1.02157
1.02981
1.02801
1.02444
1.01911
1.01698
1.01746
1.01767
1.02015
1.02984
1.02474
1.04436
1.06101
1.08247
1.127
1.22373
1.44213
2.2053
2.4662
2.41995
1.02428
1.04259
1.05546
1.07034
1.10086
1.16668
1.30954
1.77568
2.11361
2.18716
1.0225
1.04363
1.04919
1.06033
1.07423
1.10097
1.15688
1.29944
1.53797
1.79041
1.01929
1.04259
1.05451
1.0568
1.06119
1.07301
1.08518
1.10706
1.13498
1.22653
1.01889
1.0419
1.05553
1.05723
1.05974
1.06889
1.07823
1.09723
1.13015
1.23446
1.01883
1.04203
1.05533
1.0568
1.05918
1.06795
1.07609
1.09195
1.11851
1.20996
1.01872
1.04182
1.05528
1.05651
1.05841
1.06614
1.07393
1.07862
1.08856
1.10793
1.0188
1.04158
1.05495
1.05642
1.05832
1.06595
1.07318
1.07719
1.0856
1.10222
1.01901
1.04105
1.05469
1.0565
1.05838
1.06544
1.07228
1.07568
1.08224
1.09593
1.01907
1.04104
1.05448
1.05636
1.05828
1.06533
1.07208
1.07507
1.0783
1.08967
1.0137
1.03386
1.05576
1.0827
1.13478
1.244
1.4859
2.2888
2.49693
2.43538
1.01425
1.03374
1.05107
1.0711
1.10848
1.18471
1.34506
1.85584
2.1685
2.23816
1.01252
1.03844
1.04694
1.0605
1.08301
1.1155
1.17964
1.34116
1.603
1.84819
1.00955
1.03569
1.05732
1.06166
1.0687
1.08737
1.10791
1.1295
1.15928
1.25811
1.00914
1.03444
1.05891
1.06329
1.06791
1.08371
1.09814
1.1216
1.1559
1.26973
1.00914
1.03467
1.05865
1.06285
1.06753
1.08314
1.09744
1.11636
1.14379
1.24545
1.00909
1.03443
1.05868
1.06287
1.06704
1.08256
1.09611
1.10278
1.11303
1.13396
1.00918
1.03415
1.05841
1.06289
1.06691
1.08222
1.09548
1.10104
1.10969
1.12676
1.00943
1.03366
1.05817
1.06284
1.06699
1.08154
1.09497
1.1001
1.10663
1.12045
1.00949
1.03379
1.05787
1.06254
1.06688
1.08162
1.09529
1.0995
1.10288
1.1153
1.01371
1.03387
1.05577
1.08271
1.13479
1.24401
1.48594
2.28907
2.49671
2.43662
1.01425
1.03374
1.05107
1.07111
1.10849
1.18473
1.34507
1.8562
2.16813
2.23882
1.01252
1.03844
1.04694
1.0605
1.08302
1.11551
1.17964
1.34132
1.60313
1.84838
1.00954
1.03568
1.05732
1.06166
1.0687
1.08738
1.10792
1.12951
1.15928
1.25807
1.00914
1.03444
1.05891
1.06329
1.06791
1.08371
1.09813
1.12164
1.15589
1.27019
1.00914
1.03467
1.05866
1.06285
1.06753
1.08314
1.09745
1.11634
1.1438
1.24506
1.00909
1.03442
1.05869
1.06287
1.06704
1.08256
1.09611
1.10277
1.11302
1.13393
1.00918
1.03415
1.05841
1.0629
1.0669
1.08223
1.09547
1.10103
1.10967
1.12682
1.00943
1.03366
1.05817
1.06284
1.06699
1.08154
1.09498
1.10011
1.10663
1.12048
1.00949
1.03379
1.05787
1.06254
1.06689
1.08163
1.0953
1.09954
1.10301
1.11551
1.02475
1.04437
1.06103
1.08249
1.12703
1.22377
1.44225
2.20557
2.46584
2.42177
1.02428
1.04259
1.05547
1.07035
1.10089
1.16673
1.30967
1.77584
2.11304
2.18855
1.02251
1.04363
1.04919
1.06034
1.07425
1.101
1.15691
1.29975
1.53767
1.79103
1.01929
1.04259
1.05452
1.05681
1.0612
1.07302
1.08523
1.10709
1.135
1.22656
1.01889
1.0419
1.05553
1.05723
1.05975
1.06889
1.07824
1.09725
1.13017
1.23463
1.01883
1.04203
1.05533
1.0568
1.05918
1.06795
1.0761
1.09194
1.11851
1.20989
1.01873
1.04181
1.05528
1.05651
1.05841
1.06614
1.07393
1.07861
1.08854
1.10785
1.0188
1.04158
1.05495
1.05643
1.05831
1.06597
1.07317
1.07716
1.08555
1.10219
1.01901
1.04104
1.05469
1.0565
1.05838
1.06543
1.07228
1.07567
1.08219
1.09578
1.01908
1.04104
1.05448
1.05636
1.0583
1.06536
1.07213
1.07518
1.07856
1.08979
1.02856
1.0367
1.04375
1.05534
1.08733
1.16557
1.35221
2.07094
2.39084
2.36968
1.02738
1.03331
1.03789
1.044
1.06413
1.11508
1.2332
1.63595
2.00516
2.09079
1.02401
1.03137
1.03185
1.03276
1.03757
1.05503
1.09846
1.21634
1.43266
1.67877
1.02212
1.03042
1.02943
1.02671
1.02511
1.0259
1.03105
1.04882
1.0746
1.15535
1.02188
1.03022
1.02899
1.02584
1.02365
1.02245
1.02642
1.03932
1.0682
1.16312
1.0217
1.03017
1.02886
1.02556
1.0224
1.02131
1.02392
1.03416
1.05748
1.13797
1.02153
1.03
1.02868
1.02532
1.02028
1.01893
1.01901
1.02115
1.02923
1.04591
1.02151
1.02994
1.02843
1.02503
1.01995
1.01861
1.01863
1.02024
1.02709
1.045
1.0216
1.02982
1.02813
1.02472
1.01937
1.01748
1.01782
1.01888
1.02372
1.03599
1.02157
1.02981
1.02802
1.02445
1.01915
1.01705
1.01757
1.01772
1.02025
1.03008
0.997115
0.995448
0.997122
1.00142
1.02259
1.08189
1.2422
1.93149
2.36055
2.36839
0.994807
0.988663
0.989162
0.991504
1.00255
1.04025
1.12312
1.47668
1.90255
2.02781
0.989285
0.982994
0.978094
0.978727
0.980094
0.990589
1.01806
1.12893
1.4414
1.63847
0.989453
0.981719
0.973939
0.963841
0.960558
0.961106
0.963005
0.969606
1.03712
1.09329
0.988941
0.981063
0.973622
0.961463
0.956161
0.956835
0.95842
0.966744
0.985983
1.06676
0.988229
0.981016
0.973412
0.961126
0.953665
0.953955
0.955063
0.960924
0.975073
1.03578
0.988415
0.980751
0.973584
0.961568
0.9508
0.946134
0.946501
0.947499
0.952112
0.964798
0.988225
0.980565
0.973383
0.960578
0.951788
0.945245
0.944839
0.945469
0.948646
0.968764
0.988483
0.980243
0.972955
0.960672
0.950656
0.943182
0.942268
0.943593
0.94494
0.954494
0.988158
0.980454
0.972576
0.960489
0.950176
0.943077
0.94078
0.941834
0.943185
0.958739
0.878835
0.822756
0.816837
0.80682
0.807492
0.826059
0.966491
1.73923
2.21204
2.22008
0.874509
0.823066
0.807163
0.800616
0.797608
0.805726
0.842928
1.29019
1.74255
1.8737
0.867457
0.825958
0.796041
0.793005
0.785541
0.785695
0.791437
0.918194
1.27441
1.48034
0.873989
0.81638
0.799091
0.774287
0.767033
0.760137
0.758524
0.760912
0.875508
1.14316
0.86976
0.821683
0.794279
0.775254
0.759614
0.758072
0.75414
0.755546
0.761855
0.904475
0.868712
0.822647
0.793501
0.776588
0.756536
0.754053
0.752105
0.751748
0.753727
0.803068
0.871717
0.819263
0.79597
0.774082
0.756245
0.742702
0.74197
0.739402
0.736641
0.727109
0.869501
0.82218
0.793921
0.774861
0.756533
0.743838
0.740411
0.737061
0.732848
0.763926
0.870126
0.820767
0.794093
0.774581
0.755154
0.742381
0.737135
0.737584
0.735504
0.738313
0.869298
0.821592
0.794496
0.775598
0.753205
0.74261
0.735575
0.738437
0.733141
0.789855
2.10459
2.01593
2.03028
2.24681
2.43324
2.16692
2.12058
2.03241
1.77006
1.44606
1.99278
1.96708
2.03015
2.16318
2.12723
2.10296
2.0299
1.99755
1.92154
1.60959
1.78304
1.79779
1.85696
1.80801
1.79633
1.79824
1.77159
1.75803
1.73524
1.57489
1.60519
1.68907
1.65484
1.64352
1.66576
1.65821
1.63729
1.61231
1.58802
1.44643
1.22185
1.52977
1.5825
1.56328
1.51961
1.4723
1.43673
1.40865
1.36897
1.27819
1.11207
1.1903
1.40814
1.40881
1.33447
1.30131
1.31821
1.32233
1.31522
1.26231
0.725558
1.23764
1.22339
1.27507
1.29275
1.28487
1.32443
1.3527
1.39984
1.35791
0.732927
1.1633
1.16322
1.22536
1.27573
1.27451
1.28545
1.29981
1.30089
1.24353
0.93141
1.1812
1.18939
1.19176
1.22101
1.2374
1.23481
1.24084
1.22287
1.2062
0.811359
1.05922
1.09085
1.12369
1.25371
1.30631
1.30685
1.28893
1.20499
1.1709
2.24169
2.13857
2.15117
2.35879
2.51404
2.3142
2.20059
1.9528
1.81528
1.51995
2.12897
2.09338
2.16344
2.25748
2.21367
2.11235
2.07149
1.98811
1.90503
1.60466
1.90141
1.92644
1.99459
1.91864
1.87385
1.83535
1.82963
1.77944
1.73311
1.55362
1.75567
1.83534
1.81123
1.74573
1.70525
1.67631
1.66116
1.59324
1.53594
1.38805
1.48767
1.6538
1.70745
1.64156
1.60838
1.59265
1.55185
1.43044
1.37464
1.27424
1.35766
1.43075
1.53669
1.53198
1.46798
1.44073
1.41004
1.3303
1.2919
1.22401
1.16218
1.35848
1.4149
1.4248
1.39587
1.35537
1.3479
1.34012
1.37586
1.34288
1.0497
1.18681
1.21922
1.29272
1.29269
1.27968
1.27367
1.28161
1.28613
1.24236
1.03396
1.20881
1.23801
1.23964
1.26319
1.26178
1.25089
1.25191
1.24075
1.2031
0.904507
1.02566
1.13817
1.2214
1.27206
1.29987
1.30022
1.28982
1.22902
1.15959
2.25494
2.19578
2.22458
2.48744
2.66094
2.37626
2.29017
2.12322
2.00318
1.6557
2.15756
2.15042
2.28363
2.31329
2.28987
2.20451
2.16427
2.07804
2.00947
1.76271
1.93522
2.025
2.14462
2.06448
2.02423
1.96636
1.93316
1.83764
1.78974
1.65912
1.82163
1.90038
1.86093
1.81215
1.7841
1.7582
1.73346
1.65688
1.61075
1.51552
1.6104
1.76989
1.78661
1.73752
1.7166
1.68628
1.6294
1.52223
1.48274
1.40585
1.44795
1.54752
1.6543
1.64924
1.60768
1.58433
1.56076
1.48031
1.43285
1.34391
1.32573
1.43661
1.49725
1.52974
1.49825
1.45685
1.44279
1.44104
1.47766
1.45768
1.1885
1.31617
1.34891
1.39947
1.3817
1.34787
1.34308
1.37205
1.39044
1.37092
1.13973
1.28112
1.30356
1.2915
1.32273
1.34296
1.34168
1.36063
1.34759
1.31328
1.02073
1.0878
1.23743
1.33991
1.37582
1.38361
1.37911
1.36492
1.31577
1.26977
2.31377
2.27886
2.31003
2.63043
2.64346
2.48509
2.37822
2.19497
2.04806
1.70846
2.22572
2.24169
2.41662
2.41597
2.38005
2.27223
2.25822
2.22984
2.15221
1.858
2.02922
2.14258
2.26372
2.18425
2.13669
2.0645
2.02945
1.95392
1.91206
1.7742
1.92366
2.00135
1.96168
1.90264
1.88792
1.85378
1.83261
1.78581
1.74765
1.64984
1.736
1.89669
1.89701
1.84474
1.81883
1.78033
1.74598
1.66387
1.62495
1.53866
1.53755
1.67327
1.79243
1.78556
1.74326
1.70954
1.69029
1.63515
1.5997
1.50629
1.42957
1.55401
1.62888
1.66927
1.63184
1.58382
1.57439
1.57793
1.61018
1.57611
1.33186
1.45005
1.49559
1.53982
1.50454
1.46752
1.45769
1.49378
1.50265
1.49082
1.23283
1.3862
1.40897
1.3815
1.40861
1.44412
1.44939
1.47892
1.45098
1.42845
1.11106
1.1792
1.3565
1.44782
1.4585
1.48371
1.47971
1.46161
1.40987
1.38749
2.34048
2.33683
2.38775
2.78216
2.63559
2.4868
2.40778
2.21349
2.07835
1.76056
2.26053
2.29382
2.55542
2.58505
2.53953
2.42587
2.3939
2.31254
2.20709
1.89481
2.08971
2.24224
2.41197
2.36473
2.34774
2.26552
2.20035
2.04758
1.97726
1.81828
1.96761
2.07229
2.04191
2.02992
2.02591
1.98692
1.95277
1.87849
1.82037
1.69965
1.79793
1.95258
1.99077
1.96625
1.95047
1.90605
1.86232
1.75932
1.7069
1.6014
1.57747
1.75895
1.90429
1.92103
1.89182
1.83943
1.80239
1.72566
1.67995
1.57112
1.47589
1.61981
1.75109
1.82361
1.78947
1.71469
1.67195
1.65835
1.67287
1.61989
1.39286
1.52684
1.60606
1.66242
1.62005
1.55592
1.53228
1.55879
1.55793
1.53594
1.28455
1.43403
1.48232
1.4607
1.4758
1.50656
1.51091
1.52989
1.49178
1.47102
1.15967
1.24107
1.4383
1.51984
1.51425
1.53627
1.53175
1.51062
1.44139
1.43562
2.34105
2.33723
2.38908
2.78664
2.63729
2.488
2.40737
2.21058
2.07626
1.76085
2.26096
2.29397
2.55776
2.58965
2.54678
2.4314
2.39693
2.3092
2.20332
1.89347
2.08997
2.24292
2.41491
2.36908
2.35332
2.26994
2.2015
2.04168
1.97039
1.81347
1.96813
2.07387
2.04292
2.03208
2.02829
1.98524
1.94755
1.86961
1.81244
1.69485
1.79648
1.95286
1.9931
1.97076
1.95303
1.90033
1.85312
1.74779
1.69675
1.59513
1.57867
1.75859
1.90619
1.92465
1.8954
1.83502
1.79081
1.7143
1.66971
1.56485
1.47604
1.61938
1.75523
1.82468
1.78773
1.70554
1.66055
1.64867
1.66449
1.61522
1.39013
1.52656
1.60948
1.66026
1.61459
1.54867
1.52514
1.55269
1.55288
1.53354
1.28254
1.43327
1.48358
1.46016
1.47426
1.50338
1.50722
1.52674
1.4896
1.46961
1.15955
1.2407
1.43923
1.51919
1.513
1.53468
1.53001
1.50919
1.44134
1.43497
2.31233
2.27821
2.3113
2.63338
2.6395
2.48654
2.37836
2.1937
2.04583
1.70854
2.22429
2.24071
2.41972
2.41917
2.3811
2.26996
2.25605
2.22878
2.15307
1.86036
2.02868
2.14366
2.26568
2.18895
2.13899
2.06437
2.0293
1.95431
1.91295
1.77579
1.92299
2.00099
1.96108
1.90319
1.88784
1.85347
1.83264
1.78732
1.74952
1.65182
1.73547
1.89579
1.89601
1.84516
1.81906
1.77993
1.74656
1.6668
1.62807
1.54047
1.53748
1.67428
1.7935
1.78655
1.74345
1.70903
1.69217
1.63842
1.60302
1.50768
1.43007
1.55383
1.628
1.66926
1.63171
1.58447
1.57569
1.57897
1.60945
1.57553
1.33
1.45159
1.49671
1.54059
1.50537
1.46783
1.45811
1.49371
1.50291
1.49175
1.23165
1.38452
1.40958
1.38158
1.40879
1.44373
1.44897
1.47918
1.45134
1.42923
1.10939
1.17742
1.35898
1.44887
1.45831
1.48355
1.47975
1.4624
1.41133
1.38766
2.25094
2.19383
2.22578
2.49521
2.6603
2.37712
2.28755
2.12883
2.00605
1.65208
2.15486
2.14848
2.28904
2.31647
2.2954
2.20851
2.16543
2.07856
2.01175
1.76585
1.93475
2.02505
2.1471
2.0683
2.02715
1.96658
1.933
1.83837
1.79161
1.66119
1.82019
1.89953
1.86011
1.8136
1.7855
1.75643
1.73254
1.65891
1.61278
1.51646
1.60985
1.7686
1.78699
1.73932
1.71896
1.68656
1.6301
1.5241
1.48553
1.40855
1.44689
1.5481
1.65562
1.65033
1.60789
1.58371
1.56067
1.48214
1.43624
1.34494
1.32628
1.43642
1.49766
1.53
1.49782
1.45669
1.44268
1.44143
1.47776
1.45818
1.18687
1.3152
1.34832
1.39919
1.38221
1.34852
1.34366
1.37189
1.39126
1.37115
1.13946
1.27814
1.305
1.29174
1.32193
1.34187
1.34072
1.36001
1.34746
1.31358
1.01816
1.08399
1.24137
1.34209
1.37483
1.38352
1.37943
1.36629
1.31629
1.26863
2.2364
2.13776
2.15156
2.36381
2.5175
2.31046
2.20462
1.96183
1.82331
1.52424
2.12691
2.09301
2.16607
2.25486
2.21322
2.11585
2.0747
1.99042
1.91094
1.61467
1.90285
1.92715
1.99694
1.92205
1.87776
1.83842
1.83206
1.77983
1.73387
1.55601
1.75609
1.83675
1.81062
1.74369
1.70424
1.67643
1.66143
1.59414
1.53767
1.39038
1.48984
1.65475
1.70744
1.6422
1.61011
1.59435
1.55242
1.43096
1.37685
1.27655
1.35821
1.43164
1.53908
1.53417
1.46994
1.44069
1.4088
1.33102
1.29465
1.2256
1.16832
1.35797
1.41629
1.42456
1.39548
1.35521
1.34717
1.33993
1.37413
1.34411
1.04861
1.18356
1.21801
1.29244
1.29211
1.27991
1.27334
1.28045
1.2862
1.24405
1.03356
1.20573
1.23952
1.24044
1.26226
1.26098
1.24993
1.25064
1.24004
1.20435
0.899702
1.02056
1.14128
1.22446
1.27236
1.30004
1.3003
1.28938
1.22863
1.15959
2.10658
2.02202
2.03777
2.2568
2.43717
2.16105
2.1182
2.0361
1.78621
1.45315
1.99664
1.9733
2.03884
2.16873
2.13329
2.10595
2.02663
1.99485
1.92549
1.62348
1.78637
1.80141
1.86666
1.81855
1.80189
1.8
1.77129
1.75707
1.73503
1.57611
1.6073
1.69407
1.65684
1.64253
1.66185
1.65532
1.63585
1.61039
1.58446
1.4439
1.2247
1.53653
1.58404
1.56401
1.52325
1.47588
1.43795
1.40714
1.36477
1.27685
1.11614
1.1945
1.41188
1.41447
1.34386
1.30281
1.31694
1.32099
1.31644
1.2637
0.747384
1.2351
1.22649
1.28034
1.2954
1.28559
1.32336
1.35023
1.39417
1.3585
0.737922
1.16251
1.16513
1.22847
1.27548
1.27419
1.28376
1.29694
1.29999
1.24438
0.945016
1.18307
1.19065
1.19221
1.22019
1.2371
1.23423
1.23941
1.22049
1.20719
0.836958
1.06436
1.0919
1.12393
1.2555
1.30639
1.30669
1.28702
1.20426
1.17285
)
;

boundaryField
{
    inlet
    {
        type            fixedValue;
        value           uniform 1;
    }
    outlet
    {
        type            inletOutlet;
        inletValue      uniform 1;
        value           nonuniform List<scalar> 
100
(
1.44609
1.60962
1.57492
1.44646
1.27821
1.26231
1.35795
1.24339
1.20644
1.17093
1.51996
1.60467
1.55363
1.38805
1.27425
1.22399
1.34292
1.24228
1.20319
1.15959
1.65571
1.76271
1.65913
1.51552
1.40586
1.34385
1.45775
1.3709
1.3133
1.26971
1.70844
1.85799
1.77421
1.64985
1.53867
1.50581
1.57633
1.49083
1.42846
1.38746
1.76055
1.89481
1.8183
1.69965
1.6014
1.57044
1.62021
1.53596
1.47104
1.43562
1.76084
1.89347
1.81349
1.69485
1.59514
1.56414
1.61555
1.53356
1.46963
1.43497
1.70852
1.86036
1.7758
1.65183
1.54048
1.50718
1.57576
1.49176
1.42925
1.38763
1.65208
1.76585
1.6612
1.51646
1.40856
1.34487
1.45825
1.37114
1.31361
1.26857
1.52426
1.61467
1.55602
1.39038
1.27656
1.22558
1.34415
1.24398
1.20446
1.1596
1.45319
1.62351
1.57615
1.44393
1.27687
1.26369
1.35855
1.24423
1.20744
1.17288
)
;
    }
    top
    {
        type            symmetryPlane;
    }
    bottom
    {
        type            symmetryPlane;
    }
    step
    {
        type            zeroGradient;
    }
    defaultFaces
    {
        type            empty;
    }
}


// ************************************************************************* //
