/*--------------------------------*- C++ -*----------------------------------*\
  =========                 |
  \\      /  F ield         | OpenFOAM: The Open Source CFD Toolbox
   \\    /   O peration     | Website:  https://openfoam.org
    \\  /    A nd           | Version:  6.0
     \\/     M anipulation  |
\*---------------------------------------------------------------------------*/
FoamFile
{
    version     2.0;
    format      ascii;
    class       volScalarField;
    location    "1";
    object      T;
}
// * * * * * * * * * * * * * * * * * * * * * * * * * * * * * * * * * * * * * //

dimensions      [0 0 0 1 0 0 0];

internalField   nonuniform List<scalar> 
300
(
1.00511
1.01972
1.03689
1.07997
1.5312
2.38553
2.57648
2.602
2.64556
2.75535
1.00296
1.01964
1.04154
1.08942
1.4813
2.40932
2.57286
2.59185
2.64439
2.7579
1.00598
1.02304
1.03127
1.04394
1.58695
2.39652
2.58548
2.6103
2.65095
2.7561
1.00444
1.01767
1.0524
1.14663
1.45398
2.26784
2.56764
2.61081
2.64936
2.75352
1.00441
1.01647
1.05544
1.12846
1.46561
2.29975
2.54663
2.58569
2.63755
2.7464
1.00463
1.01935
1.04415
1.11589
1.43268
2.23864
2.54764
2.58888
2.63016
2.73795
1.00495
1.02115
1.03618
1.06805
1.47186
2.29119
2.52114
2.57068
2.61593
2.71832
1.00467
1.01907
1.0428
1.08376
1.40009
2.16242
2.47814
2.55853
2.59976
2.70186
1.00473
1.0202
1.03042
1.091
1.39404
2.07573
2.46048
2.54709
2.57588
2.6579
1.00445
1.01958
1.02884
1.08189
1.35726
1.98232
2.40669
2.53035
2.54966
2.62212
1.00437
1.01691
1.02236
1.0987
1.24304
1.66659
2.24963
2.42744
2.37368
2.38073
1.00522
1.00433
1.02209
1.06165
1.13486
1.4561
1.88798
2.26214
2.25591
2.22604
0.999417
0.993313
1.00473
0.963389
1.0935
1.17811
1.60405
2.05691
2.18087
2.15799
0.999992
1.00162
1.00341
1.00822
1.03088
1.10524
1.26146
1.7299
1.90878
1.98142
0.999983
1.00126
1.00095
1.00446
1.00601
1.04037
1.08541
1.22897
1.50069
1.70484
1.00023
1.00028
1.00149
1.00093
1.00911
0.993384
1.02903
1.05778
1.19033
1.36647
1.00006
1.00008
1.00038
1.00036
1.00193
1.00294
1.0089
1.0313
1.07791
1.18312
1.00002
1.00009
1.00011
1.00051
1.0006
1.00317
1.00358
1.01765
1.03837
1.08612
1.00001
1.00003
1.00007
1.00016
1.00088
1.00094
1.00532
1.00439
1.01964
1.02523
1.00001
1.00002
1.00002
1.00012
1.0001
1.00074
1.00096
1.00495
1.01406
1.02303
2.11707
2.11003
2.16264
2.33543
2.39949
2.39867
2.32995
2.08927
1.86704
1.56654
2.06664
2.06676
2.08603
2.0994
2.1122
2.10788
2.06278
1.87675
1.77213
1.54125
2.02704
2.00918
1.98373
1.96487
1.95018
1.88379
1.81144
1.64593
1.5801
1.44354
1.94996
1.92859
1.88068
1.80477
1.74814
1.65969
1.6245
1.5301
1.48325
1.38074
1.84086
1.85407
1.79567
1.68769
1.61645
1.54637
1.53636
1.48019
1.44812
1.36988
1.69964
1.74302
1.71586
1.64303
1.58839
1.52243
1.52473
1.47611
1.45072
1.38452
1.5787
1.67893
1.67888
1.65146
1.60685
1.5473
1.52833
1.49585
1.44937
1.35854
1.41587
1.57637
1.62503
1.62228
1.59986
1.56811
1.52858
1.47175
1.41928
1.32972
1.2692
1.45061
1.60149
1.6794
1.61459
1.56688
1.51286
1.4001
1.36304
1.30297
1.16596
1.4208
1.61157
1.6184
1.58425
1.53747
1.4558
1.33906
1.30275
1.27093
)
;

boundaryField
{
    inlet
    {
        type            fixedValue;
        value           uniform 1;
    }
    outlet
    {
        type            inletOutlet;
        inletValue      uniform 1;
        value           nonuniform List<scalar> 10(1.56732 1.5416 1.44382 1.38033 1.36836 1.38804 1.3587 1.32961 1.30264 1.27059);
    }
    top
    {
        type            symmetryPlane;
    }
    bottom
    {
        type            symmetryPlane;
    }
    step
    {
        type            zeroGradient;
    }
    defaultFaces
    {
        type            empty;
    }
}


// ************************************************************************* //
