/*--------------------------------*- C++ -*----------------------------------*\
  =========                 |
  \\      /  F ield         | OpenFOAM: The Open Source CFD Toolbox
   \\    /   O peration     | Website:  https://openfoam.org
    \\  /    A nd           | Version:  6.0
     \\/     M anipulation  |
\*---------------------------------------------------------------------------*/
FoamFile
{
    version     2.0;
    format      ascii;
    class       volVectorField;
    location    "1";
    object      U;
}
// * * * * * * * * * * * * * * * * * * * * * * * * * * * * * * * * * * * * * //

dimensions      [0 1 -1 0 0 0 0];

internalField   nonuniform List<vector> 
3000
(
(3.09258 -2.4761e-05 -0.0763122)
(3.11498 -4.66379e-09 -0.0829218)
(3.11886 9.27715e-06 -0.085166)
(3.11483 -1.69617e-05 -0.0864233)
(3.09623 -0.000258145 -0.0910653)
(3.00775 -0.00214615 -0.102632)
(2.56504 0.000724442 -0.161721)
(1.57228 0.00206835 -0.279884)
(0.422009 -0.00496722 -0.317909)
(0.407532 -0.00936765 -0.30191)
(3.09258 -3.28632e-06 -0.0762897)
(3.115 3.52754e-05 -0.0829578)
(3.11886 0.000177377 -0.0851402)
(3.11475 0.000321702 -0.0864241)
(3.09558 0.000399411 -0.0909384)
(3.00627 -0.000629919 -0.103492)
(2.57574 0.00686982 -0.157503)
(1.58512 0.019898 -0.278746)
(0.36572 0.0434093 -0.324361)
(0.355831 0.036118 -0.309306)
(3.09259 7.31219e-05 -0.0762985)
(3.11504 0.000110351 -0.0829355)
(3.11895 0.000471415 -0.0851457)
(3.11489 0.000936728 -0.0863893)
(3.09592 0.00179499 -0.0908685)
(3.00772 0.00403816 -0.103175)
(2.58435 0.0148309 -0.157047)
(1.59904 0.0356861 -0.273829)
(0.403024 0.0957826 -0.319176)
(0.363791 0.102458 -0.306386)
(3.09261 0.000136304 -0.0763152)
(3.1151 0.000197182 -0.082896)
(3.11909 0.000779644 -0.0851524)
(3.11511 0.00153298 -0.086342)
(3.09644 0.00290595 -0.0907621)
(3.00945 0.00635372 -0.102881)
(2.59205 0.0212144 -0.156428)
(1.60327 0.0452182 -0.274315)
(0.396545 0.145141 -0.317046)
(0.356771 0.175103 -0.304613)
(3.09265 0.000209278 -0.0763418)
(3.11519 0.000308284 -0.0828336)
(3.11932 0.00118922 -0.0851636)
(3.11546 0.00232161 -0.0862736)
(3.09722 0.00434911 -0.0906098)
(3.01193 0.00938523 -0.102457)
(2.60226 0.0301788 -0.155513)
(1.61121 0.0649426 -0.273709)
(0.40258 0.208074 -0.31386)
(0.355724 0.264749 -0.300327)
(3.09271 0.00030299 -0.0763747)
(3.11533 0.000498109 -0.0827421)
(3.11965 0.00177971 -0.0851823)
(3.11597 0.00337298 -0.0861818)
(3.09832 0.00608722 -0.0904048)
(3.01544 0.0127299 -0.101862)
(2.61685 0.0411135 -0.154113)
(1.629 0.0916233 -0.271789)
(0.419436 0.286636 -0.310018)
(0.360814 0.367836 -0.295977)
(3.0928 0.000448715 -0.0763843)
(3.11556 0.000844858 -0.0826356)
(3.12012 0.00257541 -0.0852021)
(3.11662 0.00464791 -0.0860833)
(3.0997 0.00801113 -0.0901577)
(3.02018 0.0161485 -0.101091)
(2.63816 0.0541394 -0.152145)
(1.65903 0.124966 -0.268826)
(0.446973 0.381202 -0.305337)
(0.369974 0.484696 -0.290561)
(3.09295 0.000637774 -0.0763628)
(3.11589 0.0012643 -0.0825079)
(3.12071 0.00352558 -0.0852049)
(3.11741 0.00619515 -0.0859788)
(3.10133 0.010467 -0.089858)
(3.02645 0.0208229 -0.100214)
(2.66964 0.0709117 -0.148457)
(1.69973 0.167878 -0.265545)
(0.484274 0.494069 -0.29945)
(0.38219 0.623414 -0.283866)
(3.09317 0.000843717 -0.0763372)
(3.11632 0.00164508 -0.0823408)
(3.12149 0.00455382 -0.0852094)
(3.11846 0.00799252 -0.0858477)
(3.10352 0.0135674 -0.0894687)
(3.03502 0.0273943 -0.0991291)
(2.71403 0.0925172 -0.142027)
(1.73867 0.232968 -0.261935)
(0.529827 0.640908 -0.292322)
(0.397677 0.80057 -0.274952)
(3.09344 0.00109546 -0.0763164)
(3.11685 0.0020469 -0.0821197)
(3.12247 0.00575132 -0.0852293)
(3.11981 0.0101632 -0.0856915)
(3.10646 0.0174849 -0.0889833)
(3.04676 0.0358937 -0.0977257)
(2.77629 0.113175 -0.133356)
(1.81195 0.308583 -0.254741)
(0.604581 0.808021 -0.282213)
(0.409958 1.02006 -0.263424)
(3.00397 -2.16028e-05 -0.0133309)
(3.01148 -6.75705e-06 -0.0199116)
(3.01125 5.23342e-05 -0.0219758)
(3.0029 0.000188239 -0.02409)
(2.96869 0.000450581 -0.0277745)
(2.8721 0.0010831 -0.0340653)
(2.53239 0.00285356 -0.0480861)
(0.964751 0.0112322 -0.100313)
(-0.107574 0.0342673 -0.100576)
(0.474558 -0.0762971 -0.0907861)
(3.00399 1.7994e-06 -0.0133279)
(3.01148 6.88004e-05 -0.0199116)
(3.01134 0.000264425 -0.0219708)
(3.00311 0.000706093 -0.0240773)
(2.96968 0.00161127 -0.0276991)
(2.87009 0.0036889 -0.0340888)
(2.52639 0.009177 -0.0483655)
(0.920522 0.0338293 -0.101062)
(-0.210631 0.0913862 -0.101069)
(0.168423 0.0244277 -0.0958422)
(3.004 8.12039e-05 -0.01333)
(3.01155 0.000229671 -0.0199077)
(3.01144 0.000592462 -0.0219701)
(3.00338 0.00138741 -0.024066)
(2.97028 0.00304225 -0.0276681)
(2.87194 0.00651842 -0.034004)
(2.53187 0.015618 -0.0481519)
(0.971578 0.0536214 -0.10062)
(-0.192043 0.147933 -0.100817)
(0.130821 0.149297 -0.0960243)
(3.00403 0.000154786 -0.0133347)
(3.01167 0.000405636 -0.0199003)
(3.0116 0.000981215 -0.0219693)
(3.00376 0.00220268 -0.0240498)
(2.97118 0.00468912 -0.0276193)
(2.87409 0.00986277 -0.0338916)
(2.53895 0.0230545 -0.0477976)
(0.996201 0.0776568 -0.0998904)
(-0.167608 0.213407 -0.0995351)
(0.118658 0.273994 -0.0942126)
(3.00409 0.000251184 -0.0133423)
(3.01185 0.000643379 -0.0198872)
(3.01184 0.0015039 -0.0219686)
(3.00432 0.00327036 -0.0240292)
(2.97248 0.00679408 -0.0275546)
(2.87728 0.0140919 -0.0337321)
(2.54916 0.0326385 -0.0472948)
(1.03681 0.107097 -0.0986132)
(-0.131106 0.290118 -0.0980225)
(0.120667 0.397603 -0.0921756)
(3.00418 0.000456405 -0.0133532)
(3.01212 0.00108735 -0.0198646)
(3.01218 0.00228094 -0.0219713)
(3.00511 0.00463789 -0.0240065)
(2.97427 0.00935766 -0.0274723)
(2.88181 0.0192294 -0.0335138)
(2.56351 0.0444941 -0.046617)
(1.09689 0.142844 -0.0968894)
(-0.0803354 0.377978 -0.0962319)
(0.127727 0.521063 -0.0899101)
(3.00439 0.000875355 -0.0133668)
(3.0125 0.00191686 -0.0198285)
(3.01268 0.00349814 -0.022007)
(3.00615 0.00643257 -0.0239872)
(2.97666 0.0124351 -0.0273559)
(2.88788 0.025357 -0.0332089)
(2.58234 0.0588637 -0.0457465)
(1.17888 0.18552 -0.0946096)
(-0.0138313 0.478138 -0.09427)
(0.138054 0.652239 -0.0870344)
(3.0048 0.00133775 -0.0133841)
(3.01304 0.00283839 -0.0197814)
(3.01334 0.00490219 -0.0220559)
(3.00744 0.00857417 -0.0239592)
(2.97974 0.0161571 -0.0271923)
(2.89558 0.0328734 -0.0328095)
(2.60625 0.0764278 -0.0446807)
(1.2883 0.235826 -0.091705)
(0.0715588 0.593264 -0.0921186)
(0.15025 0.797255 -0.0840632)
(3.00534 0.00170735 -0.0134072)
(3.01376 0.00359803 -0.0197238)
(3.0142 0.00618581 -0.0221246)
(3.00909 0.010777 -0.0239304)
(2.98368 0.0203143 -0.0269917)
(2.90554 0.0417261 -0.0323147)
(2.63734 0.0978291 -0.0433946)
(1.44311 0.296031 -0.0876391)
(0.185928 0.731334 -0.0894366)
(0.165757 0.967503 -0.0807391)
(3.006 0.00207842 -0.01344)
(3.01464 0.00434469 -0.019655)
(3.01523 0.0074612 -0.0222147)
(3.01106 0.0129847 -0.0239023)
(2.98853 0.0244027 -0.0267566)
(2.91841 0.0500389 -0.0317182)
(2.67993 0.115561 -0.0418282)
(1.66776 0.332455 -0.080911)
(0.341775 0.875117 -0.086595)
(0.191535 1.16043 -0.0777753)
(2.97285 -8.51041e-06 0.000705881)
(2.96482 1.19952e-05 -0.00227022)
(2.95822 7.75308e-05 -0.00345226)
(2.93861 0.000235476 -0.00516328)
(2.88934 0.000594905 -0.00771562)
(2.76376 0.00142875 -0.0118146)
(2.38013 0.00346165 -0.0203808)
(0.932027 0.0112655 -0.0432958)
(-0.194162 0.0335447 -0.0462802)
(-0.0259343 0.039475 -0.0459083)
(2.97285 -3.21007e-06 0.000707936)
(2.96485 8.44558e-05 -0.00226861)
(2.9583 0.000292997 -0.00345421)
(2.93879 0.000760597 -0.00516353)
(2.88977 0.00180373 -0.00771164)
(2.76422 0.00421138 -0.0118395)
(2.38136 0.0102744 -0.0203648)
(0.937316 0.0318977 -0.0433474)
(-0.200585 0.0834155 -0.0462881)
(-0.0227955 0.114745 -0.0445117)
(2.97287 2.29776e-05 0.000705845)
(2.96492 0.000217524 -0.00226731)
(2.95845 0.0005999 -0.00345963)
(2.93912 0.00140082 -0.00516421)
(2.8905 0.00314866 -0.00770342)
(2.76599 0.00715106 -0.011813)
(2.38679 0.0174482 -0.0202788)
(0.953178 0.0536623 -0.0432542)
(-0.19243 0.149026 -0.0460278)
(-0.0201809 0.224611 -0.0432854)
(2.97292 5.00052e-05 0.000700796)
(2.96504 0.000395386 -0.00226486)
(2.95869 0.00100272 -0.00346851)
(2.93963 0.00220925 -0.00516486)
(2.89163 0.00479182 -0.0076874)
(2.76872 0.010693 -0.0117615)
(2.39548 0.0258864 -0.0201027)
(0.983638 0.0788426 -0.0429574)
(-0.167863 0.224768 -0.0454233)
(-0.0100847 0.346026 -0.0418904)
(2.97299 9.18744e-05 0.000692442)
(2.96523 0.000668773 -0.00225925)
(2.95906 0.0015433 -0.00348331)
(2.94036 0.00321648 -0.0051687)
(2.89325 0.00678317 -0.00766743)
(2.7727 0.0149778 -0.0116888)
(2.40805 0.0361132 -0.019851)
(1.02896 0.10824 -0.0424464)
(-0.128688 0.305375 -0.044695)
(0.00456311 0.463507 -0.0405683)
(2.97312 0.000197552 0.000679211)
(2.96551 0.0011532 -0.00224807)
(2.95954 0.00205642 -0.00351014)
(2.94135 0.00417308 -0.00517997)
(2.89546 0.00894653 -0.00764491)
(2.77819 0.0200318 -0.0115928)
(2.42512 0.0484635 -0.0195193)
(1.08943 0.142616 -0.0417603)
(-0.0767639 0.39237 -0.0439109)
(0.0236196 0.581612 -0.0392912)
(2.97335 0.000421652 0.00065211)
(2.96583 0.00191015 -0.00223205)
(2.96002 0.00276897 -0.00356533)
(2.94254 0.00537001 -0.0052068)
(2.89824 0.0115705 -0.00762356)
(2.78509 0.0261481 -0.0114787)
(2.44634 0.0633747 -0.0191223)
(1.16463 0.18301 -0.0409042)
(-0.0128874 0.489069 -0.043187)
(0.0466969 0.705016 -0.0377797)
(2.97371 0.000670332 0.000600543)
(2.96624 0.0027106 -0.00221909)
(2.96056 0.00374296 -0.00364718)
(2.94402 0.0069952 -0.00524345)
(2.90182 0.0148543 -0.00759513)
(2.79404 0.0334826 -0.0113389)
(2.47352 0.0809984 -0.0186415)
(1.26006 0.22959 -0.039891)
(0.0655713 0.59806 -0.0423153)
(0.0735624 0.838584 -0.0365046)
(2.97418 0.000859705 0.000532323)
(2.96677 0.0033796 -0.00220584)
(2.96124 0.00462304 -0.00375654)
(2.94588 0.00863845 -0.00529502)
(2.90635 0.0184158 -0.00756534)
(2.80546 0.041731 -0.0111762)
(2.50781 0.101463 -0.0180878)
(1.38034 0.2854 -0.0386983)
(0.161293 0.726922 -0.041631)
(0.104585 0.991235 -0.0350188)
(2.97474 0.00101988 0.000447738)
(2.9674 0.00396839 -0.00219432)
(2.96205 0.00548318 -0.00389171)
(2.94815 0.0102741 -0.00535945)
(2.91197 0.0218622 -0.00753282)
(2.81994 0.0493458 -0.0109937)
(2.55279 0.118995 -0.01747)
(1.54863 0.328883 -0.0372873)
(0.286581 0.8674 -0.0410278)
(0.139801 1.16597 -0.0344408)
(2.97621 -1.3891e-06 0.00240489)
(2.95982 2.62398e-05 0.00254503)
(2.94463 6.38191e-05 0.00198133)
(2.91421 0.00020536 0.001046)
(2.8489 0.000559595 -0.000543764)
(2.69605 0.00137789 -0.00319326)
(2.26163 0.00342494 -0.00822678)
(0.736711 0.0102021 -0.0201579)
(-0.412685 0.0271515 -0.0224936)
(-0.182351 0.0616091 -0.0212795)
(2.97622 -1.81298e-06 0.00240617)
(2.95984 9.79248e-05 0.00254611)
(2.94469 0.000217434 0.00197458)
(2.91437 0.000648763 0.00104028)
(2.84927 0.00172434 -0.00054915)
(2.69689 0.00423133 -0.00319935)
(2.26386 0.0105442 -0.00822779)
(0.739062 0.0312031 -0.0201928)
(-0.415886 0.0795179 -0.0224777)
(-0.179342 0.151798 -0.0208606)
(2.97624 1.4272e-06 0.00240723)
(2.95989 0.000210096 0.00254669)
(2.94481 0.000429734 0.00195999)
(2.9147 0.00118025 0.00103114)
(2.85005 0.00303657 -0.000551258)
(2.69879 0.00738704 -0.00319101)
(2.26943 0.0184693 -0.00820026)
(0.752611 0.0554567 -0.020166)
(-0.40495 0.151727 -0.0223517)
(-0.166029 0.2704 -0.020085)
(2.97629 7.54733e-06 0.00240849)
(2.95998 0.00038347 0.00254741)
(2.94501 0.00072191 0.00193539)
(2.91522 0.00183827 0.0010164)
(2.85129 0.00458298 -0.000552715)
(2.70186 0.0110326 -0.00317283)
(2.2788 0.0275796 -0.00813329)
(0.782693 0.0830709 -0.0200447)
(-0.37619 0.233956 -0.0220627)
(-0.149286 0.394586 -0.0192246)
(2.97637 2.12726e-05 0.00241046)
(2.96013 0.000661308 0.00254898)
(2.9453 0.0010939 0.00189488)
(2.91596 0.00259904 0.000991672)
(2.85307 0.00636283 -0.00055632)
(2.70635 0.0152947 -0.00314618)
(2.29259 0.0383095 -0.00802759)
(0.828421 0.114436 -0.0198307)
(-0.333131 0.318344 -0.0217435)
(-0.128171 0.513338 -0.0184234)
(2.97652 5.56813e-05 0.0024129)
(2.96034 0.00110244 0.00255119)
(2.94565 0.00141151 0.00183124)
(2.91693 0.00321478 0.000952578)
(2.85549 0.00813545 -0.000564105)
(2.71252 0.0200904 -0.00311095)
(2.31135 0.0508895 -0.00788462)
(0.889239 0.150207 -0.0195433)
(-0.278035 0.406335 -0.0214445)
(-0.103825 0.632145 -0.0176867)
(2.97675 0.000124047 0.00241251)
(2.96058 0.00168464 0.00254963)
(2.94599 0.00177523 0.00176556)
(2.91815 0.0038844 0.000905592)
(2.85866 0.0101623 -0.000580493)
(2.72055 0.0257285 -0.00307672)
(2.33516 0.0657495 -0.00771798)
(0.965026 0.191355 -0.0191852)
(-0.211569 0.502366 -0.0212208)
(-0.0766659 0.755356 -0.016873)
(2.9771 0.00020077 0.00240447)
(2.96088 0.00227278 0.00254132)
(2.94637 0.00226402 0.00167854)
(2.91968 0.00484494 0.000843359)
(2.86273 0.012757 -0.000603189)
(2.73092 0.0325172 -0.00303715)
(2.36538 0.0831538 -0.00752246)
(1.06001 0.238288 -0.0187874)
(-0.131931 0.609574 -0.0210044)
(-0.0478303 0.887057 -0.0162204)
(2.97753 0.000254268 0.00239171)
(2.96125 0.00277016 0.00252771)
(2.94683 0.00270216 0.00156712)
(2.92159 0.00586554 0.000763258)
(2.86787 0.0156539 -0.000633778)
(2.74401 0.0401653 -0.00299228)
(2.4031 0.103033 -0.0073018)
(1.17995 0.29321 -0.0182983)
(-0.0360537 0.734967 -0.0208956)
(-0.0173742 1.03398 -0.0155603)
(2.97804 0.000260006 0.00237476)
(2.96167 0.00314566 0.00250751)
(2.94738 0.00314048 0.00143498)
(2.92393 0.00699149 0.000668768)
(2.87418 0.018711 -0.000669941)
(2.76031 0.0478498 -0.00294591)
(2.45135 0.121815 -0.00707227)
(1.34502 0.341474 -0.0178957)
(0.0863941 0.876683 -0.0208871)
(0.015689 1.19987 -0.0156057)
(2.98601 6.15442e-06 0.00102675)
(2.96972 3.81594e-05 0.0016472)
(2.95078 3.3793e-05 0.00140286)
(2.91471 0.000140519 0.00103616)
(2.84132 0.000463741 0.000464474)
(2.67423 0.00126281 -0.000440005)
(2.20699 0.00324936 -0.00211807)
(0.616485 0.00960827 -0.00596631)
(-0.543211 0.0258194 -0.00686303)
(-0.30478 0.0772355 -0.006306)
(2.98603 1.99268e-05 0.00102746)
(2.96973 0.000124706 0.00164773)
(2.95082 0.000111764 0.00139884)
(2.91486 0.000445264 0.00103274)
(2.84169 0.00145352 0.000461895)
(2.67509 0.00395429 -0.000440721)
(2.20929 0.0102263 -0.00212034)
(0.618875 0.0304414 -0.00597213)
(-0.542143 0.0793424 -0.00684236)
(-0.286764 0.172261 -0.00620854)
(2.98605 3.92641e-05 0.00102886)
(2.96975 0.000246979 0.00164805)
(2.9509 0.000222857 0.0013903)
(2.91517 0.000806059 0.00102654)
(2.84249 0.00257219 0.00045887)
(2.67701 0.00696575 -0.000439306)
(2.21487 0.0182401 -0.00211924)
(0.63184 0.0556998 -0.00597074)
(-0.528708 0.153558 -0.00679339)
(-0.265363 0.297292 -0.00594328)
(2.98611 6.9914e-05 0.00103119)
(2.96979 0.000441618 0.00164818)
(2.95102 0.000374117 0.00137581)
(2.91567 0.00121529 0.00101629)
(2.84375 0.00382303 0.00045438)
(2.68014 0.0103548 -0.000436758)
(2.2244 0.0274231 -0.00210629)
(0.662119 0.0846044 -0.0059393)
(-0.497549 0.23771 -0.00670462)
(-0.241818 0.426173 -0.00562491)
(2.9862 0.000117218 0.00103506)
(2.96986 0.0007418 0.00164812)
(2.95118 0.000542942 0.00135189)
(2.91636 0.00162317 0.000999582)
(2.84555 0.00518379 0.000447474)
(2.68469 0.0142452 -0.000432496)
(2.23843 0.038101 -0.00207934)
(0.708171 0.116932 -0.00588038)
(-0.452527 0.323201 -0.00661581)
(-0.214611 0.547724 -0.0053372)
(2.98636 0.000182541 0.00104086)
(2.96994 0.00115661 0.00164713)
(2.95135 0.000689211 0.00131573)
(2.91727 0.00196178 0.000974255)
(2.848 0.00660058 0.000436888)
(2.69096 0.0186778 -0.000426562)
(2.25753 0.0505437 -0.00204148)
(0.768987 0.153386 -0.00580096)
(-0.396126 0.411168 -0.00654571)
(-0.185061 0.668222 -0.00508428)
(2.98659 0.000258071 0.00104842)
(2.97004 0.00163739 0.00164199)
(2.9515 0.000808138 0.00127873)
(2.91842 0.00227817 0.000948305)
(2.85121 0.00818372 0.000424779)
(2.69924 0.0238403 -0.000421888)
(2.28234 0.0650996 -0.00199797)
(0.845423 0.194897 -0.00570235)
(-0.328532 0.506533 -0.00650775)
(-0.153198 0.792437 -0.00481118)
(2.9869 0.000331972 0.00105649)
(2.97014 0.00210608 0.00163214)
(2.95162 0.000908442 0.00123136)
(2.91984 0.00266141 0.000915405)
(2.85532 0.0101005 0.000409459)
(2.7099 0.029978 -0.000416542)
(2.31372 0.082092 -0.00194728)
(0.941085 0.242048 -0.00559324)
(-0.248336 0.612922 -0.00648541)
(-0.120478 0.923865 -0.00459557)
(2.98729 0.000392914 0.00106558)
(2.97025 0.00249857 0.00161805)
(2.95175 0.000979177 0.00117171)
(2.92162 0.00312968 0.000874039)
(2.8605 0.0123595 0.000390386)
(2.72333 0.0370329 -0.000409974)
(2.35274 0.10155 -0.00188918)
(1.06116 0.296724 -0.00546168)
(-0.152633 0.737151 -0.00648654)
(-0.087159 1.06852 -0.00438409)
(2.98773 0.00035063 0.00107599)
(2.97036 0.00275998 0.00159901)
(2.95192 0.00110232 0.00110196)
(2.92382 0.00382938 0.000825918)
(2.86689 0.0150494 0.000368598)
(2.74 0.0447305 -0.000403188)
(2.40218 0.12137 -0.00183137)
(1.22383 0.348281 -0.00536413)
(-0.0325064 0.880344 -0.00651387)
(-0.0544098 1.23068 -0.00446012)
(2.98601 6.32853e-06 -0.00102748)
(2.96971 3.96745e-05 -0.00164975)
(2.95078 3.5179e-05 -0.00140387)
(2.91471 0.000140587 -0.00103523)
(2.84133 0.000459227 -0.000460561)
(2.67424 0.00124748 0.000447511)
(2.20701 0.00320154 0.0021303)
(0.616421 0.00947653 0.00597101)
(-0.543316 0.0256216 0.00683709)
(-0.308562 0.078071 0.00620861)
(2.98602 2.03746e-05 -0.00102802)
(2.96972 0.000127929 -0.00164967)
(2.95081 0.000114943 -0.00139991)
(2.91486 0.000445509 -0.00103252)
(2.84169 0.00144335 -0.000459596)
(2.67509 0.00391791 0.000446027)
(2.20928 0.0101152 0.00212879)
(0.618802 0.0301165 0.00597451)
(-0.542152 0.0790338 0.00682397)
(-0.28931 0.173516 0.00613136)
(2.98605 3.97037e-05 -0.00102923)
(2.96975 0.000249702 -0.00164948)
(2.95089 0.000225807 -0.00139136)
(2.91517 0.000806183 -0.00102685)
(2.84248 0.00256227 -0.000457954)
(2.677 0.00693007 0.000441976)
(2.2148 0.0181328 0.00212288)
(0.631732 0.0553788 0.0059646)
(-0.528542 0.153301 0.00678724)
(-0.26758 0.298638 0.00592656)
(2.98611 7.0123e-05 -0.00103145)
(2.96979 0.000442891 -0.00164931)
(2.95102 0.000375432 -0.00137685)
(2.91566 0.00121456 -0.00101701)
(2.84374 0.00381568 -0.000454608)
(2.68012 0.0103317 0.000437097)
(2.22431 0.0273586 0.00210546)
(0.662014 0.0844158 0.00592738)
(-0.497233 0.237436 0.00671252)
(-0.243838 0.42748 0.00564772)
(2.9862 0.000117214 -0.0010353)
(2.96985 0.000741798 -0.00164917)
(2.95117 0.000542695 -0.00135303)
(2.91636 0.0016218 -0.00100071)
(2.84554 0.00517932 -0.000448624)
(2.68466 0.0142339 0.000431085)
(2.23832 0.0380748 0.00207554)
(0.708032 0.116854 0.00586484)
(-0.452181 0.322836 0.006621)
(-0.216414 0.548881 0.00537338)
(2.98635 0.0001824 -0.00104114)
(2.96994 0.00115578 -0.00164824)
(2.95134 0.000688175 -0.00131705)
(2.91727 0.00196024 -0.000975736)
(2.84799 0.00659809 -0.000438694)
(2.69093 0.0186739 0.000423998)
(2.25744 0.0505394 0.00203592)
(0.768812 0.153377 0.00578346)
(-0.39581 0.4108 0.00654289)
(-0.186615 0.669263 0.00512337)
(2.98658 0.000257911 -0.00104876)
(2.97003 0.0016364 -0.00164325)
(2.95149 0.000807083 -0.00128012)
(2.91841 0.00227693 -0.000949954)
(2.85119 0.0081824 -0.000426929)
(2.69921 0.0238397 0.000418676)
(2.28225 0.0651049 0.00199147)
(0.845215 0.194921 0.00568397)
(-0.328273 0.506193 0.00649759)
(-0.154498 0.793423 0.0048525)
(2.9869 0.000331888 -0.00105686)
(2.97014 0.00210554 -0.00163354)
(2.95162 0.000907876 -0.00123281)
(2.91983 0.00266096 -0.000917151)
(2.8553 0.0101004 -0.000411783)
(2.70987 0.0299794 0.000413037)
(2.31364 0.082101 0.00194048)
(0.940833 0.242088 0.00557461)
(-0.248161 0.612633 0.00646509)
(-0.121523 0.924847 0.00463666)
(2.98728 0.000392931 -0.00106597)
(2.97024 0.0024986 -0.00161951)
(2.95175 0.000979318 -0.00117321)
(2.92161 0.00313009 -0.000875837)
(2.86049 0.0123604 -0.000392757)
(2.72331 0.0370352 0.000406433)
(2.35266 0.101559 0.00188258)
(1.06088 0.29677 0.00544454)
(-0.152545 0.736937 0.00646091)
(-0.0879858 1.06953 0.0044205)
(2.98773 0.000350948 -0.00107636)
(2.97035 0.00276055 -0.00160047)
(2.95192 0.0011033 -0.00110347)
(2.92381 0.00383105 -0.000827745)
(2.86687 0.0150521 -0.000371046)
(2.73998 0.0447354 0.000399473)
(2.4021 0.121383 0.00182448)
(1.22353 0.348332 0.00534673)
(-0.0325061 0.880204 0.00648234)
(-0.0550764 1.23176 0.00449076)
(2.9762 5.08407e-07 -0.00240676)
(2.95981 3.42068e-05 -0.00254689)
(2.94463 7.16805e-05 -0.0019812)
(2.91422 0.000204777 -0.00104165)
(2.84893 0.000535913 0.000556548)
(2.69609 0.00130577 0.00322265)
(2.2616 0.00321727 0.00828257)
(0.735769 0.00951448 0.0202465)
(-0.411712 0.0255467 0.0225219)
(-0.183452 0.0616979 0.0211006)
(2.97621 1.8744e-06 -0.00240712)
(2.95983 0.000111654 -0.00254708)
(2.94469 0.000230763 -0.00197444)
(2.91437 0.000646817 -0.00103776)
(2.84929 0.00167938 0.000556518)
(2.69691 0.0040885 0.0032164)
(2.26383 0.0101313 0.00826412)
(0.7387 0.0299187 0.0202322)
(-0.414963 0.0777849 0.0224859)
(-0.180978 0.155174 0.0208027)
(2.97623 4.08786e-06 -0.00240773)
(2.95988 0.000218853 -0.00254732)
(2.94481 0.000437862 -0.00195997)
(2.91469 0.00117672 -0.00102976)
(2.85005 0.00299926 0.000555505)
(2.69876 0.00726685 0.00320121)
(2.26921 0.0181279 0.0082213)
(0.752041 0.0544342 0.0201789)
(-0.404215 0.150324 0.0223567)
(-0.170209 0.27488 0.0201498)
(2.97628 8.56522e-06 -0.00240882)
(2.95998 0.000386998 -0.0025479)
(2.945 0.000723938 -0.00193549)
(2.91521 0.00183152 -0.00101575)
(2.85127 0.00455303 0.000555023)
(2.70181 0.0109485 0.00317868)
(2.27851 0.0273709 0.00814515)
(0.782127 0.0825629 0.0200423)
(-0.375284 0.232677 0.0220696)
(-0.15403 0.398927 0.0193274)
(2.97637 2.1025e-05 -0.00241076)
(2.96012 0.000660814 -0.0025495)
(2.94529 0.00109107 -0.00189524)
(2.91594 0.00259023 -0.000991772)
(2.85304 0.00634039 0.000556877)
(2.70628 0.0152429 0.00314826)
(2.29231 0.0382034 0.00803224)
(0.827828 0.114258 0.0198251)
(-0.332223 0.317078 0.0217455)
(-0.132707 0.517207 0.0185268)
(2.97651 5.45089e-05 -0.00241327)
(2.96034 0.00109907 -0.00255181)
(2.94564 0.00140617 -0.00183193)
(2.91692 0.00320638 -0.00095326)
(2.85546 0.00812089 0.000563474)
(2.71244 0.0200636 0.00311058)
(2.3111 0.0508486 0.00788471)
(0.888615 0.150201 0.0195357)
(-0.277241 0.405225 0.0214402)
(-0.107833 0.635641 0.0177802)
(2.97675 0.000122883 -0.00241303)
(2.96057 0.00168086 -0.00255042)
(2.94598 0.00177038 -0.0017664)
(2.91813 0.00387819 -0.00090662)
(2.85863 0.0101539 0.000579147)
(2.72048 0.0257171 0.0030749)
(2.33492 0.0657436 0.00771545)
(0.964358 0.191426 0.0191771)
(-0.210951 0.501451 0.0212084)
(-0.0800587 0.758582 0.0169518)
(2.97709 0.000200326 -0.00240507)
(2.96087 0.00227086 -0.00254223)
(2.94636 0.00226166 -0.00167949)
(2.91966 0.0048423 -0.000844599)
(2.8627 0.0127545 0.000601428)
(2.73085 0.032517 0.0030345)
(2.36516 0.083169 0.0075183)
(1.05928 0.2384 0.018778)
(-0.131549 0.6089 0.0209933)
(-0.0506477 0.890043 0.016281)
(2.97752 0.000254425 -0.00239235)
(2.96124 0.00277009 -0.0025287)
(2.94681 0.00270226 -0.00156814)
(2.92157 0.00586601 -0.000764561)
(2.86784 0.0156553 0.000631973)
(2.74394 0.0401699 0.0029897)
(2.4029 0.103051 0.00729834)
(1.17921 0.293321 0.0182946)
(-0.0358652 0.734507 0.0208778)
(-0.0197382 1.03671 0.0156006)
(2.97803 0.000260793 -0.00237539)
(2.96166 0.00314725 -0.00250851)
(2.94736 0.00314319 -0.00143601)
(2.92391 0.00699579 -0.000670126)
(2.87415 0.0187181 0.000667977)
(2.76024 0.0478632 0.00294288)
(2.45117 0.121847 0.00706743)
(1.34431 0.341592 0.0178877)
(0.0863408 0.876382 0.0208695)
(0.0135726 1.20236 0.0156154)
(2.97283 3.8257e-06 -0.000710254)
(2.96481 3.55447e-05 0.00226944)
(2.95823 0.00010105 0.00345341)
(2.93867 0.000241179 0.00516851)
(2.88952 0.000548877 0.00772962)
(2.76373 0.00124831 0.0118832)
(2.3793 0.00299065 0.0205141)
(0.93007 0.00912999 0.0436135)
(-0.201859 0.0261423 0.046438)
(-0.0117145 0.037128 0.0453211)
(2.97284 1.4637e-05 -0.000709279)
(2.96484 0.000118809 0.00226887)
(2.9583 0.000326062 0.0034557)
(2.93881 0.000762621 0.00516795)
(2.88984 0.00171642 0.00772331)
(2.76441 0.00388997 0.0118681)
(2.38126 0.00938159 0.0204583)
(0.934508 0.0286559 0.0435336)
(-0.201108 0.0756698 0.0463793)
(-0.0243295 0.124551 0.0445278)
(2.97287 3.06393e-05 -0.000706466)
(2.96491 0.000232837 0.00226774)
(2.95845 0.000612543 0.00346076)
(2.93912 0.00139135 0.00516704)
(2.89052 0.00307614 0.00771052)
(2.76602 0.00692069 0.0118322)
(2.3863 0.0167792 0.0203365)
(0.949587 0.0517208 0.0433457)
(-0.192756 0.143606 0.0461034)
(-0.0232126 0.235701 0.0433933)
(2.97291 5.24173e-05 -0.000701219)
(2.96503 0.00040006 0.00226523)
(2.95869 0.00100323 0.00346934)
(2.93962 0.00219267 0.00516675)
(2.89162 0.00472945 0.00769209)
(2.76869 0.0105169 0.0117746)
(2.39492 0.02545 0.0201436)
(0.980563 0.0780665 0.0429848)
(-0.168058 0.221425 0.0454769)
(-0.0143002 0.354512 0.0420392)
(2.97299 9.12313e-05 -0.000692867)
(2.96522 0.000666803 0.00225944)
(2.95904 0.00153592 0.00348371)
(2.94035 0.00319586 0.00516955)
(2.89322 0.00672996 0.00766963)
(2.77263 0.0148451 0.0116952)
(2.40761 0.0358258 0.0198732)
(1.02689 0.108038 0.0424599)
(-0.128594 0.303107 0.0447258)
(3.0518e-05 0.469676 0.0406707)
(2.97312 0.00019436 -0.000679757)
(2.9655 0.00114592 0.00224808)
(2.95953 0.00204441 0.00351019)
(2.94133 0.00415233 0.00518007)
(2.89543 0.00890639 0.00764539)
(2.77812 0.0199461 0.0115948)
(2.4248 0.048299 0.0195295)
(1.08814 0.142607 0.0417615)
(-0.076467 0.390784 0.0439374)
(0.0190345 0.586125 0.0393662)
(2.97334 0.000418317 -0.000652925)
(2.96582 0.00190249 0.00223186)
(2.96 0.00275846 0.00356506)
(2.94252 0.00535426 0.00520636)
(2.89821 0.0115444 0.00762288)
(2.785 0.0260996 0.011478)
(2.44607 0.0632922 0.0191254)
(1.16375 0.183065 0.0409017)
(-0.0125787 0.488061 0.0431938)
(0.0423129 0.708187 0.0378154)
(2.9737 0.000668996 -0.000601536)
(2.96623 0.00270724 0.00221879)
(2.96054 0.00373854 0.00364669)
(2.944 0.00698912 0.00524265)
(2.90178 0.0148454 0.00759372)
(2.79395 0.0334696 0.0113369)
(2.47329 0.0809898 0.0186392)
(1.2595 0.229703 0.0398782)
(0.0658082 0.597488 0.0423345)
(0.0694102 0.840632 0.0365033)
(2.97417 0.000859689 -0.000533406)
(2.96676 0.00337934 0.00220548)
(2.96122 0.00462311 0.00375597)
(2.94586 0.00863894 0.00529409)
(2.90631 0.0184167 0.00756378)
(2.80538 0.041733 0.0111742)
(2.50761 0.101472 0.0180859)
(1.37986 0.285446 0.0387015)
(0.16135 0.726653 0.0416415)
(0.100647 0.992286 0.0349914)
(2.97474 0.00102095 -0.000448833)
(2.96738 0.00397072 0.00219393)
(2.96203 0.00548734 0.00389113)
(2.94813 0.010281 0.00535852)
(2.91193 0.0218734 0.00753121)
(2.81985 0.0493649 0.0109912)
(2.55258 0.119033 0.017466)
(1.54812 0.328938 0.0372785)
(0.286424 0.867311 0.0410394)
(0.136122 1.16633 0.0343539)
(3.00397 1.17512e-05 0.0133266)
(3.01145 3.71624e-05 0.0199132)
(3.01129 9.8451e-05 0.0219756)
(3.00304 0.000231637 0.0240872)
(2.96954 0.000505035 0.0277284)
(2.87075 0.00107214 0.0341212)
(2.52755 0.00251206 0.0485367)
(0.952169 0.0084941 0.101953)
(-0.187017 0.0296729 0.101888)
(0.341215 -0.0315678 0.0944327)
(3.00398 4.49343e-05 0.0133273)
(3.01148 0.000127745 0.0199117)
(3.01134 0.000322031 0.0219741)
(3.00316 0.000741855 0.0240803)
(2.96983 0.00160596 0.027706)
(2.87103 0.00340482 0.0340873)
(2.52845 0.00794597 0.0484535)
(0.960837 0.0269768 0.101564)
(-0.187218 0.0762985 0.10185)
(0.166678 0.0577125 0.0958855)
(3.004 9.4202e-05 0.0133298)
(3.01155 0.000249616 0.019908)
(3.01144 0.000605581 0.0219724)
(3.00339 0.00136742 0.0240683)
(2.97038 0.00292983 0.0276702)
(2.87213 0.00617464 0.0340139)
(2.53201 0.0143999 0.0482422)
(0.973621 0.0492416 0.100995)
(-0.18006 0.136798 0.101363)
(0.138131 0.16404 0.0952438)
(3.00403 0.000158159 0.0133346)
(3.01166 0.000409719 0.0199007)
(3.0116 0.000976912 0.0219709)
(3.00377 0.0021701 0.0240515)
(2.97124 0.00458249 0.0276208)
(2.87417 0.00956045 0.0338991)
(2.5387 0.0222006 0.0478743)
(0.997828 0.0752299 0.100031)
(-0.160746 0.206298 0.100056)
(0.127368 0.282382 0.0934185)
(3.00408 0.000249838 0.0133422)
(3.01185 0.000639188 0.0198877)
(3.01183 0.00149024 0.0219695)
(3.00431 0.00323191 0.0240302)
(2.97248 0.00669425 0.0275558)
(2.87727 0.0138256 0.0337363)
(2.5489 0.03196 0.0473374)
(1.03593 0.105908 0.0986102)
(-0.12823 0.286036 0.0984733)
(0.125748 0.401427 0.0913787)
(3.00417 0.000450965 0.013353)
(3.01211 0.00107638 0.019865)
(3.01217 0.00226151 0.0219717)
(3.00509 0.00460144 0.024007)
(2.97425 0.00928097 0.0274729)
(2.88175 0.0190441 0.0335154)
(2.56327 0.0440574 0.0466369)
(1.09665 0.142118 0.0967992)
(-0.0787467 0.375477 0.0965469)
(0.128934 0.522341 0.0891598)
(3.00438 0.000869562 0.0133664)
(3.01248 0.00190594 0.019829)
(3.01266 0.0034811 0.0220071)
(3.00613 0.00640519 0.0239872)
(2.97663 0.0123841 0.0273556)
(2.88778 0.0252457 0.0332087)
(2.58206 0.0586065 0.045754)
(1.17885 0.185083 0.0944337)
(-0.0129284 0.476877 0.0945989)
(0.135832 0.651857 0.0863253)
(3.00479 0.00133521 0.0133836)
(3.01302 0.00283405 0.0197819)
(3.01333 0.00489527 0.0220557)
(3.00742 0.00856256 0.0239589)
(2.9797 0.0161361 0.0271911)
(2.89543 0.0328382 0.0328091)
(2.60587 0.0763628 0.0446855)
(1.28959 0.23565 0.0915577)
(0.0731234 0.592798 0.0922561)
(0.145346 0.795479 0.0834382)
(3.00533 0.00170686 0.0134067)
(3.01374 0.00359755 0.0197243)
(3.01419 0.00618582 0.0221242)
(3.00907 0.0107777 0.0239299)
(2.98364 0.0203158 0.02699)
(2.9054 0.0417353 0.0323127)
(2.63703 0.0978475 0.0434002)
(1.44737 0.2953 0.0872698)
(0.188717 0.730851 0.0895346)
(0.159144 0.964628 0.0802314)
(3.00599 0.00207959 0.0134394)
(3.01463 0.00434726 0.0196555)
(3.01521 0.0074666 0.0222144)
(3.01104 0.0129949 0.0239018)
(2.98849 0.024421 0.0267555)
(2.91826 0.0500761 0.0317179)
(2.67959 0.115635 0.0418333)
(1.67011 0.331896 0.0807425)
(0.344523 0.874735 0.0866098)
(0.184409 1.15691 0.0772791)
(3.09257 9.29492e-06 0.0762882)
(3.11499 1.95547e-05 0.0829588)
(3.11885 6.99184e-05 0.0851494)
(3.11475 0.000131312 0.0864278)
(3.09572 0.000217657 0.0909622)
(3.00717 0.000297811 0.103252)
(2.58121 0.00178721 0.159226)
(1.61787 0.00266004 0.271381)
(0.379893 0.0255221 0.322737)
(0.352911 0.0178065 0.308457)
(3.09257 3.77756e-05 0.0762893)
(3.115 6.64611e-05 0.082954)
(3.11888 0.000240498 0.0851471)
(3.11479 0.000460506 0.0864145)
(3.09575 0.000821361 0.0909246)
(3.00733 0.00152777 0.103262)
(2.58334 0.0064311 0.158362)
(1.61816 0.0110196 0.27226)
(0.408362 0.0588062 0.319552)
(0.370814 0.0596129 0.30634)
(3.09259 8.20894e-05 0.0762975)
(3.11504 0.000127426 0.0829348)
(3.11896 0.000469356 0.0851476)
(3.11491 0.000910538 0.0863858)
(3.09599 0.00169686 0.0908558)