/*--------------------------------*- C++ -*----------------------------------*\
  =========                 |
  \\      /  F ield         | OpenFOAM: The Open Source CFD Toolbox
   \\    /   O peration     | Website:  https://openfoam.org
    \\  /    A nd           | Version:  6.0
     \\/     M anipulation  |
\*---------------------------------------------------------------------------*/
FoamFile
{
    version     2.0;
    format      ascii;
    class       volVectorField;
    location    "1";
    object      U;
}
// * * * * * * * * * * * * * * * * * * * * * * * * * * * * * * * * * * * * * //

dimensions      [0 1 -1 0 0 0 0];

internalField   nonuniform List<vector> 
300
(
(2.99596 -0.000726584 0)
(2.9858 0.000333935 0)
(2.98728 0.000600861 0)
(2.86444 -0.00125087 0)
(2.7481 0.00788842 0)
(2.18122 -0.00606701 0)
(0.679074 0.0203014 0)
(0.20102 0.0226598 0)
(0.245402 0.0397856 0)
(0.224484 0.0651938 0)
(2.99601 -0.00301367 0)
(2.98628 0.00416761 0)
(2.98682 0.000367174 0)
(2.86664 -0.000528399 0)
(2.74498 0.00752259 0)
(2.17616 0.0378551 0)
(0.643098 0.0490695 0)
(0.155653 0.0685713 0)
(0.22199 0.103887 0)
(0.210145 0.13342 0)
(2.99693 -0.00248105 0)
(2.98698 0.00433046 0)
(2.98567 0.00174154 0)
(2.86629 0.00540056 0)
(2.75975 0.014501 0)
(2.19503 0.000786037 0)
(0.762012 0.095817 0)
(0.248409 0.123303 0)
(0.256385 0.175261 0)
(0.212966 0.215233 0)
(2.99719 -0.000372073 0)
(2.98775 0.000538254 0)
(2.98721 0.00424843 0)
(2.86982 0.0094431 0)
(2.74162 0.0183858 0)
(2.19659 -0.0283869 0)
(0.700354 0.15718 0)
(0.188469 0.184852 0)
(0.24699 0.249437 0)
(0.210103 0.299186 0)
(2.99722 -0.000327076 0)
(2.98856 -0.000761139 0)
(2.98875 0.000749268 0)
(2.87059 -0.00755581 0)
(2.74836 0.0286214 0)
(2.21875 0.0334064 0)
(0.753221 0.201451 0)
(0.21276 0.240621 0)
(0.254726 0.31792 0)
(0.209891 0.380875 0)
(2.99691 -0.000405971 0)
(2.98814 -0.000656637 0)
(2.98507 -0.000346441 0)
(2.87848 -0.0085714 0)
(2.75276 0.0357783 0)
(2.23255 0.0865884 0)
(0.770916 0.247861 0)
(0.221592 0.300967 0)
(0.264658 0.386803 0)
(0.212137 0.463691 0)
(2.99692 -0.000185091 0)
(2.98858 0.000380191 0)
(2.98618 0.00171237 0)
(2.88199 0.00462758 0)
(2.78268 0.0326526 0)
(2.27499 0.0923978 0)
(0.863303 0.294356 0)
(0.284418 0.36484 0)
(0.28935 0.458217 0)
(0.21927 0.552008 0)
(2.99699 4.59452e-05 0)
(2.98874 0.00102833 0)
(2.98638 0.0020242 0)
(2.88855 -0.00179231 0)
(2.78933 0.0505908 0)
(2.3109 0.0848083 0)
(0.895046 0.352948 0)
(0.326543 0.436703 0)
(0.318493 0.536083 0)
(0.231342 0.650767 0)
(2.9972 9.61755e-05 0)
(2.98921 0.00128103 0)
(2.98531 0.00377014 0)
(2.89807 -0.00138262 0)
(2.81279 0.0542205 0)
(2.35564 0.10338 0)
(0.983294 0.396942 0)
(0.390177 0.510407 0)
(0.357116 0.619825 0)
(0.250147 0.766078 0)
(2.99733 0.000317676 0)
(2.98991 0.00101671 0)
(2.98548 0.0045152 0)
(2.90653 0.00239561 0)
(2.82815 0.05993 0)
(2.40379 0.100984 0)
(1.06976 0.446465 0)
(0.465424 0.592492 0)
(0.40776 0.709312 0)
(0.278513 0.907386 0)
(2.99771 0.000890821 0)
(2.99146 0.00089495 0)
(2.98613 0.0047085 0)
(2.93044 0.00407939 0)
(2.87793 0.0558619 0)
(2.54843 0.0935933 0)
(1.44057 0.431983 0)
(0.866288 0.714567 0)
(0.78524 0.873175 0)
(0.752261 1.07769 0)
(2.9985 0.000992472 0)
(2.99402 0.00189889 0)
(2.98943 0.00908109 0)
(2.95833 0.0155299 0)
(2.92951 0.0502982 0)
(2.69474 0.0896409 0)
(1.92751 0.352468 0)
(1.34309 0.738338 0)
(1.12956 0.911811 0)
(1.112 1.04568 0)
(3.0006 2.7863e-05 0)
(3.00248 0.000962443 0)
(3.00452 0.00431605 0)
(2.98568 0.00685935 0)
(2.97964 0.0280203 0)
(2.835 0.0521976 0)
(2.49271 0.237928 0)
(1.96424 0.61764 0)
(1.55382 0.874356 0)
(1.45994 1.02201 0)
(2.99975 -0.00018911 0)
(2.99974 -0.000536752 0)
(2.99726 -0.00250603 0)
(2.99024 -0.00481148 0)
(2.98692 0.00710961 0)
(2.92409 0.00550213 0)
(2.8464 0.117153 0)
(2.53689 0.32397 0)
(1.97689 0.740777 0)
(1.80425 0.934368 0)
(2.99982 6.81818e-05 0)
(2.99934 0.000100913 0)
(2.99882 9.23302e-05 0)
(2.99853 0.00162271 0)
(2.99338 0.00659662 0)
(2.9741 0.00913772 0)
(2.95853 0.0593655 0)
(2.84127 0.11766 0)
(2.49588 0.408721 0)
(2.25062 0.689249 0)
(2.99991 -1.09242e-05 0)
(2.99978 0.000129303 0)
(2.9993 0.000446302 0)
(2.99896 0.0008761 0)
(2.99694 0.00132925 0)
(2.99394 0.00519941 0)
(2.9956 0.0184328 0)
(2.94971 0.0340514 0)
(2.8724 0.133705 0)
(2.71358 0.335592 0)
(2.99997 -5.43438e-06 0)
(2.99995 6.3562e-05 0)
(2.99981 0.000129764 0)
(2.9997 0.000536629 0)
(2.99913 0.000722453 0)
(2.99701 0.00249371 0)
(2.99654 0.00413419 0)
(2.97977 0.00377517 0)
(2.95558 0.0342025 0)
(2.88027 0.0747861 0)
(2.99999 -1.81919e-06 0)
(2.99996 1.71187e-05 0)
(2.99993 2.47434e-05 0)
(2.99975 0.000113691 0)
(2.99955 0.000185625 0)
(2.99851 0.000470218 0)
(2.99749 0.00189949 0)
(2.98989 0.00123556 0)
(2.982 0.0132777 0)
(2.9405 0.0291537 0)
(3 2.53516e-06 0)
(2.99998 5.93268e-06 0)
(2.99994 2.56841e-05 0)
(2.99992 4.42439e-05 0)
(2.9996 0.000195434 0)
(2.99929 0.000264622 0)
(2.99756 0.000946968 0)
(2.99492 0.00158676 0)
(2.99421 0.00620326 0)
(2.97354 0.0113426 0)
(3 6.51408e-07 0)
(2.99999 1.64172e-06 0)
(2.99998 7.18663e-06 0)
(2.99998 3.21529e-05 0)
(2.99984 5.29887e-05 0)
(2.99952 0.000208978 0)
(2.99926 0.000219126 0)
(2.99691 0.00148318 0)
(2.99507 0.00170762 0)
(2.98104 0.00211512 0)
(1.62002 0.915444 0)
(1.93585 0.652366 0)
(2.07553 0.34718 0)
(2.12028 0.117152 0)
(2.17507 0.0223893 0)
(2.24511 0.0036986 0)
(2.33046 0.00324597 0)
(2.42613 0.00233455 0)
(2.51949 0.00581381 0)
(2.60425 0.0105011 0)
(1.68784 0.773262 0)
(1.95976 0.39803 0)
(2.10736 0.0497674 0)
(2.21094 -0.149635 0)
(2.30479 -0.177082 0)
(2.3837 -0.14243 0)
(2.45957 -0.0986633 0)
(2.54346 -0.0704902 0)
(2.62576 -0.0544631 0)
(2.70619 -0.0476594 0)
(1.74918 0.817826 0)
(1.99652 0.48299 0)
(2.17243 0.217072 0)
(2.30483 0.08816 0)
(2.40378 0.0216339 0)
(2.48139 -0.0148265 0)
(2.55306 -0.0282031 0)
(2.6319 -0.0475432 0)
(2.70717 -0.0668532 0)
(2.78406 -0.079843 0)
(1.86062 0.894228 0)
(2.04262 0.577354 0)
(2.21179 0.308138 0)
(2.34781 0.13215 0)
(2.45425 0.00960101 0)
(2.5449 -0.0668766 0)
(2.6252 -0.110238 0)
(2.70355 -0.147703 0)
(2.77751 -0.180953 0)
(2.85747 -0.208668 0)
(2.01926 0.866547 0)
(2.09583 0.721349 0)
(2.25389 0.455211 0)
(2.398 0.250727 0)
(2.51477 0.0995442 0)
(2.61086 -0.0187678 0)
(2.69258 -0.132967 0)
(2.76879 -0.23179 0)
(2.83535 -0.312499 0)
(2.91933 -0.371527 0)
(2.20797 0.769541 0)
(2.18777 0.781076 0)
(2.28711 0.613776 0)
(2.43295 0.376834 0)
(2.55446 0.170712 0)
(2.65204 -0.0202486 0)
(2.73392 -0.229073 0)
(2.81286 -0.397334 0)
(2.87737 -0.483769 0)
(2.96627 -0.48507 0)
(2.39528 0.660333 0)
(2.3018 0.758285 0)
(2.3427 0.679616 0)
(2.45161 0.464538 0)
(2.5734 0.183893 0)
(2.67047 -0.103466 0)
(2.75825 -0.355171 0)
(2.84833 -0.488488 0)
(2.92823 -0.511021 0)
(3.00109 -0.462736 0)
(2.5592 0.538636 0)
(2.4297 0.667433 0)
(2.42724 0.623687 0)
(2.49055 0.409315 0)
(2.58383 0.120368 0)
(2.68584 -0.182584 0)
(2.79199 -0.355137 0)
(2.89108 -0.409667 0)
(2.97751 -0.406571 0)
(3.03478 -0.365819 0)
(2.71802 0.30487 0)
(2.54236 0.550258 0)
(2.5009 0.454512 0)
(2.53727 0.229467 0)
(2.62314 -0.00555794 0)
(2.72689 -0.163745 0)
(2.83444 -0.22321 0)
(2.93979 -0.237803 0)
(3.02083 -0.238837 0)
(3.06497 -0.226547 0)
(2.83883 0.0799031 0)
(2.61959 0.334839 0)
(2.5419 0.291629 0)
(2.58306 0.1881 0)
(2.67158 0.098783 0)
(2.77779 0.0408748 0)
(2.88628 0.0231737 0)
(2.97545 0.00537145 0)
(3.04762 -0.00941268 0)
(3.08476 -0.0201638 0)
)
;

boundaryField
{
    inlet
    {
        type            fixedValue;
        value           uniform (3 0 0);
    }
    outlet
    {
        type            inletOutlet;
        inletValue      uniform (3 0 0);
        value           nonuniform List<vector> 10((2.60425 0.0105011 0) (2.70619 -0.0476594 0) (2.78406 -0.079843 0) (2.85747 -0.208668 0) (2.91933 -0.371527 0) (2.96627 -0.48507 0) (3.00109 -0.462736 0) (3.03478 -0.365819 0) (3.06497 -0.226547 0) (3.08476 -0.0201638 0));
    }
    top
    {
        type            symmetryPlane;
    }
    bottom
    {
        type            symmetryPlane;
    }
    step
    {
        type            slip;
    }
    defaultFaces
    {
        type            empty;
    }
}


// ************************************************************************* //
