/*--------------------------------*- C++ -*----------------------------------*\
  =========                 |
  \\      /  F ield         | OpenFOAM: The Open Source CFD Toolbox
   \\    /   O peration     | Website:  https://openfoam.org
    \\  /    A nd           | Version:  6.0
     \\/     M anipulation  |
\*---------------------------------------------------------------------------*/
FoamFile
{
    version     2.0;
    format      ascii;
    class       volScalarField;
    location    "1.500193";
    object      rho;
}
// * * * * * * * * * * * * * * * * * * * * * * * * * * * * * * * * * * * * * //

dimensions      [1 -3 0 0 0 0 0];

internalField   nonuniform List<scalar> 
192000
(
1.39997
1.39997
1.39997
1.39997
1.39997
1.39997
1.39997
1.39997
1.39997
1.39997
1.39997
1.39997
1.39997
1.39997
1.39997
1.39997
1.39997
1.39997
1.39997
1.39997
1.39997
2.63284
5.22267
5.44644
5.47964
5.53046
5.57798
5.62735
5.68249
5.7412
5.79538
5.83712
5.85502
5.84964
5.84099
5.83835
5.8416
5.83812
5.82851
5.82495
1.39997
1.39997
1.39997
1.39997
1.39997
1.39997
1.39997
1.39997
1.39997
1.39997
1.39997
1.39997
1.39997
1.39997
1.39997
1.39997
1.39997
1.39997
1.39997
1.39997
1.39997
2.62856
5.2119
5.4458
5.48026
5.53073
5.57799
5.628
5.68416
5.74341
5.797
5.83641
5.85247
5.84743
5.84052
5.84016
5.84399
5.83904
5.82671
5.82179
1.39997
1.39997
1.39997
1.39997
1.39997
1.39997
1.39997
1.39997
1.39997
1.39997
1.39997
1.39997
1.39997
1.39997
1.39997
1.39997
1.39997
1.39997
1.39997
1.39997
1.39997
2.61934
5.1924
5.44019
5.47868
5.53011
5.57786
5.62872
5.68586
5.7455
5.79819
5.83502
5.84863
5.84343
5.83835
5.84071
5.84619
5.83958
5.82359
5.81638
1.39997
1.39997
1.39997
1.39997
1.39997
1.39997
1.39997
1.39997
1.39997
1.39997
1.39997
1.39997
1.39997
1.39997
1.39997
1.39997
1.39997
1.39997
1.39997
1.39997
1.39997
2.60526
5.17372
5.43664
5.47797
5.5304
5.57841
5.62989
5.68731
5.74657
5.7977
5.83146
5.8423
5.83806
5.83657
5.84304
5.84993
5.84017
5.81902
5.80925
1.39997
1.39997
1.39997
1.39997
1.39997
1.39997
1.39997
1.39997
1.39997
1.39997
1.39997
1.39997
1.39997
1.39997
1.39997
1.39997
1.39997
1.39997
1.39997
1.39997
1.39997
2.58621
5.16253
5.43561
5.47774
5.53051
5.57887
5.63091
5.6883
5.74643
5.79527
5.82581
5.83455
5.83183
5.83495
5.84598
5.85343
5.83991
5.81323
5.801
1.39997
1.39997
1.39997
1.39997
1.39997
1.39997
1.39997
1.39997
1.39997
1.39997
1.39997
1.39997
1.39997
1.39997
1.39997
1.39997
1.39997
1.39997
1.39997
1.39997
1.39997
2.56384
5.16001
5.43746
5.47819
5.52997
5.578
5.6311
5.68915
5.746
5.79165
5.81873
5.82644
5.82682
5.83531
5.84989
5.85481
5.8377
5.80671
5.79343
1.39997
1.39997
1.39997
1.39997
1.39997
1.39997
1.39997
1.39997
1.39997
1.39997
1.39997
1.39997
1.39997
1.39997
1.39997
1.39997
1.39997
1.39997
1.39997
1.39997
1.39997
2.54267
5.16421
5.44537
5.4794
5.52754
5.57437
5.62834
5.68726
5.74376
5.78697
5.81141
5.8193
5.82469
5.83874
5.8525
5.85309
5.8326
5.79967
5.78768
1.39997
1.39997
1.39997
1.39997
1.39997
1.39997
1.39997
1.39997
1.39997
1.39997
1.39997
1.39997
1.39997
1.39997
1.39997
1.39997
1.39997
1.39997
1.39997
1.39997
1.39997
2.50775
5.14979
5.44613
5.47711
5.5234
5.56958
5.6248
5.68566
5.74248
5.78333
5.80562
5.81537
5.82605
5.84192
5.85199
5.84841
5.82457
5.79286
5.78442
1.39997
1.39997
1.39997
1.39997
1.39997
1.39997
1.39997
1.39997
1.39997
1.39997
1.39997
1.39997
1.39997
1.39997
1.39997
1.39997
1.39997
1.39997
1.39997
1.39997
1.39997
2.47057
5.13093
5.44897
5.47651
5.51974
5.56357
5.61866
5.68133
5.73926
5.78017
5.80367
5.81671
5.82991
5.84282
5.84918
5.84076
5.81454
5.78675
5.78243
1.39997
1.39997
1.39997
1.39997
1.39997
1.39997
1.39997
1.39997
1.39997
1.39997
1.39997
1.39997
1.39997
1.39997
1.39997
1.39997
1.39997
1.39997
1.39997
1.39997
1.39997
2.42999
5.10672
5.4492
5.47468
5.51648
5.55864
5.61234
5.67465
5.73393
5.77815
5.80564
5.82123
5.83234
5.8411
5.84332
5.83144
5.80512
5.78189
5.77991
1.39997
1.39997
1.39997
1.39997
1.39997
1.39997
1.39997
1.39997
1.39997
1.39997
1.39997
1.39997
1.39997
1.39997
1.39997
1.39997
1.39997
1.39997
1.39997
1.39997
1.39997
2.38503
5.083
5.44879
5.47251
5.5138
5.55468
5.60589
5.66588
5.72733
5.77677
5.80928
5.82528
5.83147
5.83497
5.83368
5.82165
5.79791
5.7778
5.77588
1.39997
1.39997
1.39997
1.39997
1.39997
1.39997
1.39997
1.39997
1.39997
1.39997
1.39997
1.39997
1.39997
1.39997
1.39997
1.39997
1.39997
1.39997
1.39997
1.39997
1.39997
2.3363
5.06259
5.44828
5.46933
5.51074
5.55143
5.60068
5.65845
5.72123
5.77541
5.81149
5.82676
5.82627
5.82388
5.82138
5.81335
5.79332
5.77377
5.76957
1.39997
1.39997
1.39997
1.39997
1.39997
1.39997
1.39997
1.39997
1.39997
1.39997
1.39997
1.39997
1.39997
1.39997
1.39997
1.39997
1.39997
1.39997
1.39997
1.39997
1.39997
2.28557
5.04269
5.4477
5.46509
5.50692
5.54852
5.59753
5.65473
5.71755
5.77292
5.80969
5.82376
5.81649
5.80982
5.80933
5.80671
5.78986
5.76895
5.76102
1.39997
1.39997
1.39997
1.39997
1.39997
1.39997
1.39997
1.39997
1.39997
1.39997
1.39997
1.39997
1.39997
1.39997
1.39997
1.39997
1.39997
1.39997
1.39997
1.39997
1.39997
2.22936
5.01588
5.44603
5.4615
5.504
5.5469
5.59758
5.65551
5.71767
5.77094
5.80497
5.81557
5.80432
5.79657
5.79958
5.80062
5.78522
5.76214
5.75022
1.39997
1.39997
1.39997
1.39997
1.39997
1.39997
1.39997
1.39997
1.39997
1.39997
1.39997
1.39997
1.39997
1.39997
1.39997
1.39997
1.39997
1.39997
1.39997
1.39997
1.39997
2.1708
4.97992
5.43812
5.45666
5.50228
5.54803
5.60167
5.66092
5.72153
5.7707
5.79854
5.804
5.79253
5.78714
5.79291
5.79498
5.77884
5.75278
5.7375
1.39997
1.39997
1.39997
1.39997
1.39997
1.39997
1.39997
1.39997
1.39997
1.39997
1.39997
1.39997
1.39997
1.39997
1.39997
1.39997
1.39997
1.39997
1.39997
1.39997
1.39997
2.11086
4.92696
5.42986
5.45584
5.50474
5.55281
5.60856
5.66829
5.72541
5.7701
5.7918
5.79282
5.78316
5.78117
5.78794
5.78907
5.77035
5.74097
5.72363
1.39997
1.39997
1.39997
1.39997
1.39997
1.39997
1.39997
1.39997
1.39997
1.39997
1.39997
1.39997
1.39997
1.39997
1.39997
1.39997
1.39997
1.39997
1.39997
1.39997
1.39997
2.04917
4.85605
5.41857
5.45512
5.51006
5.55838
5.61298
5.67228
5.72688
5.76805
5.7865
5.78507
5.7765
5.77625
5.7829
5.78228
5.76014
5.72761
5.70936
1.39997
1.39997
1.39997
1.39997
1.39997
1.39997
1.39997
1.39997
1.39997
1.39997
1.39997
1.39997
1.39997
1.39997
1.39997
1.39997
1.39997
1.39997
1.39997
1.39997
1.39997
1.98405
4.77258
5.41606
5.45997
5.51681
5.56301
5.61294
5.66914
5.72369
5.76418
5.78265
5.78074
5.77097
5.76957
5.77562
5.77349
5.74869
5.71373
5.695
1.39997
1.39997
1.39997
1.39997
1.39997
1.39997
1.39997
1.39997
1.39997
1.39997
1.39997
1.39997
1.39997
1.39997
1.39997
1.39997
1.39997
1.39997
1.39997
1.39997
1.39997
1.91637
4.695
5.41942
5.46588
5.52295
5.56413
5.60738
5.65873
5.7131
5.7569
5.77872
5.77744
5.76489
5.75973
5.76446
5.76201
5.73677
5.70011
5.68094
1.39997
1.39997
1.39997
1.39997
1.39997
1.39997
1.39997
1.39997
1.39997
1.39997
1.39997
1.39997
1.39997
1.39997
1.39997
1.39997
1.39997
1.39997
1.39997
1.39997
1.39997
1.84875
4.63688
5.44366
5.47485
5.52757
5.56344
5.60016
5.645
5.69733
5.74493
5.77146
5.77188
5.75703
5.74746
5.75025
5.74854
5.72481
5.68681
5.66712
1.39997
1.39997
1.39997
1.39997
1.39997
1.39997
1.39997
1.39997
1.39997
1.39997
1.39997
1.39997
1.39997
1.39997
1.39997
1.39997
1.39997
1.39997
1.39997
1.39997
1.39997
1.77331
4.61998
5.47506
5.48671
5.53192
5.56365
5.59807
5.63782
5.68341
5.72859
5.75731
5.76055
5.7461
5.73477
5.73556
5.73435
5.71244
5.67336
5.65373
1.39997
1.39997
1.39997
1.39997
1.39997
1.39997
1.39997
1.39997
1.39997
1.39997
1.39997
1.39997
1.39997
1.39997
1.39997
1.39997
1.39997
1.39997
1.39997
1.39997
1.39997
1.6982
4.61296
5.52271
5.50109
5.53572
5.56574
5.60026
5.63691
5.67478
5.7118
5.7377
5.74333
5.73276
5.72395
5.72297
5.72065
5.69947
5.65926
5.64041
1.39997
1.39997
1.39997
1.39997
1.39997
1.39997
1.39997
1.39997
1.39997
1.39997
1.39997
1.39997
1.39997
1.39997
1.39997
1.39997
1.39997
1.39997
1.39997
1.39997
1.39997
1.62028
4.54198
5.54541
5.50989
5.53893
5.56722
5.60301
5.63764
5.66827
5.6962
5.71569
5.72233
5.71894
5.71518
5.71236
5.70698
5.68495
5.64409
5.62733
1.39997
1.39997
1.39997
1.39997
1.39997
1.39997
1.39997
1.39997
1.39997
1.39997
1.39997
1.39997
1.39997
1.39997
1.39997
1.39997
1.39997
1.39997
1.39997
1.39997
1.39997
1.54307
4.43495
5.52765
5.4965
5.52742
5.55975
5.60021
5.63595
5.66174
5.68107
5.69406
5.70201
5.70583
5.70704
5.70222
5.69236
5.66827
5.62778
5.61383
1.39997
1.39997
1.39997
1.39997
1.39997
1.39997
1.39997
1.39997
1.39997
1.39997
1.39997
1.39997
1.39997
1.39997
1.39997
1.39997
1.39997
1.39997
1.39997
1.39997
1.39997
1.48907
4.31237
5.50405
5.4803
5.51232
5.54668
5.59015
5.6276
5.65191
5.6659
5.67547
5.68498
5.69352
5.69751
5.68995
5.67448
5.64751
5.6097
5.60009
1.39997
1.39997
1.39997
1.39997
1.39997
1.39997
1.39997
1.39997
1.39997
1.39997
1.39997
1.39997
1.39997
1.39997
1.39997
1.39997
1.39997
1.39997
1.39997
1.39997
1.39997
1.44531
4.20054
5.47588
5.46384
5.49401
5.52696
5.57068
5.61175
5.63809
5.65108
5.66029
5.67087
5.68144
5.68625
5.67483
5.65235
5.62191
5.58943
5.5845
1.39997
1.39997
1.39997
1.39997
1.39997
1.39997
1.39997
1.39997
1.39997
1.39997
1.39997
1.39997
1.39997
1.39997
1.39997
1.39997
1.39997
1.39997
1.39997
1.39997
1.39997
1.41035
4.07684
5.44239
5.44575
5.4744
5.50586
5.54738
5.59066
5.62084
5.63686
5.64753
5.65826
5.66866
5.67266
5.65651
5.62582
5.59168
5.56632
5.56634
1.39997
1.39997
1.39997
1.39997
1.39997
1.39997
1.39997
1.39997
1.39997
1.39997
1.39997
1.39997
1.39997
1.39997
1.39997
1.39997
1.39997
1.39997
1.39997
1.39997
1.39997
1.40099
3.92861
5.40163
5.42689
5.45678
5.48687
5.52506
5.5681
5.60203
5.62287
5.63556
5.64547
5.65389
5.65483
5.63439
5.59719
5.56012
5.54051
5.54269
1.39997
1.39997
1.39997
1.39997
1.39997
1.39997
1.39997
1.39997
1.39997
1.39997
1.39997
1.39997
1.39997
1.39997
1.39997
1.39997
1.39997
1.39997
1.39997
1.39997
1.39997
1.4
3.77299
5.36182
5.40776
5.44057
5.47141
5.50644
5.54736
5.58355
5.60858
5.6228
5.63001
5.63411
5.62995
5.60744
5.56884
5.53004
5.51226
5.51367
1.39997
1.39997
1.39997
1.39997
1.39997
1.39997
1.39997
1.39997
1.39997
1.39997
1.39997
1.39997
1.39997
1.39997
1.39997
1.39997
1.39997
1.39997
1.39997
1.39997
1.39997
1.39997
3.61227
5.32336
5.39063
5.42616
5.45829
5.4916
5.52996
5.56591
5.59268
5.60656
5.60999
5.60762
5.59729
5.57762
5.54353
5.50402
5.48233
5.47762
1.39997
1.39997
1.39997
1.39997
1.39997
1.39997
1.39997
1.39997
1.39997
1.39997
1.39997
1.39997
1.39997
1.39997
1.39997
1.39997
1.39997
1.39997
1.39997
1.39997
1.39997
1.39997
3.45081
5.29113
5.37612
5.4116
5.44504
5.47856
5.51475
5.54807
5.57373
5.58617
5.5848
5.57434
5.56017
5.54782
5.52122
5.48012
5.45007
5.43688
1.39997
1.39997
1.39997
1.39997
1.39997
1.39997
1.39997
1.39997
1.39997
1.39997
1.39997
1.39997
1.39997
1.39997
1.39997
1.39997
1.39997
1.39997
1.39997
1.39997
1.39997
1.39997
3.28844
5.26486
5.36371
5.39528
5.42865
5.46403
5.50011
5.53064
5.55263
5.56176
5.55536
5.53886
5.52463
5.52033
5.50067
5.45642
5.41474
5.38975
1.39997
1.39997
1.39997
1.39997
1.39997
1.39997
1.39997
1.39997
1.39997
1.39997
1.39997
1.39997
1.39997
1.39997
1.39997
1.39997
1.39997
1.39997
1.39997
1.39997
1.39997
1.39997
3.125
5.23804
5.35739
5.3815
5.41213
5.44848
5.4844
5.5122
5.53001
5.536
5.52606
5.50673
5.49471
5.49543
5.47894
5.42882
5.3736
5.33759
1.39997
1.39997
1.39997
1.39997
1.39997
1.39997
1.39997
1.39997
1.39997
1.39997
1.39997
1.39997
1.39997
1.39997
1.39997
1.39997
1.39997
1.39997
1.39997
1.39997
1.39997
1.39997
2.9587
5.20312
5.35655
5.37159
5.39739
5.43244
5.46815
5.49478
5.50952
5.51309
5.50151
5.48169
5.47123
5.47189
5.45415
5.39673
5.32568
5.27581
1.39997
1.39997
1.39997
1.39997
1.39997
1.39997
1.39997
1.39997
1.39997
1.39997
1.39997
1.39997
1.39997
1.39997
1.39997
1.39997
1.39997
1.39997
1.39997
1.39997
1.39997
1.39997
2.78823
5.15673
5.35867
5.3648
5.38644
5.41945
5.45257
5.47865
5.49254
5.49511
5.48306
5.46325
5.45167
5.44771
5.42532
5.35794
5.26723
5.20429
1.39997
1.39997
1.39997
1.39997
1.39997
1.39997
1.39997
1.39997
1.39997
1.39997
1.39997
1.39997
1.39997
1.39997
1.39997
1.39997
1.39997
1.39997
1.39997
1.39997
1.39997
1.39997
2.61514
5.09607
5.36196
5.35978
5.37658
5.40631
5.43721
5.46432
5.4789
5.48151
5.47014
5.44969
5.43415
5.42215
5.39183
5.31364
5.19882
5.11662
1.39997
1.39997
1.39997
1.39997
1.39997
1.39997
1.39997
1.39997
1.39997
1.39997
1.39997
1.39997
1.39997
1.39997
1.39997
1.39997
1.39997
1.39997
1.39997
1.39997
1.39997
1.39997
2.44128
5.0204
5.36601
5.35518
5.36777
5.3958
5.42431
5.45161
5.46634
5.46922
5.45915
5.43954
5.41961
5.39754
5.35506
5.25978
5.11216
5.01032
1.39997
1.39997
1.39997
1.39997
1.39997
1.39997
1.39997
1.39997
1.39997
1.39997
1.39997
1.39997
1.39997
1.39997
1.39997
1.39997
1.39997
1.39997
1.39997
1.39997
1.39997
1.39997
2.26492
4.94136
5.38524
5.35846
5.36249
5.38533
5.41361
5.44071
5.45425
5.45705
5.4474
5.42851
5.40416
5.36876
5.30636
5.19081
5.01103
4.87267
1.39997
1.39997
1.39997
1.39997
1.39997
1.39997
1.39997
1.39997
1.39997
1.39997
1.39997
1.39997
1.39997
1.39997
1.39997
1.39997
1.39997
1.39997
1.39997
1.39997
1.39997
1.39997
2.07195
4.87251
5.42036
5.37891
5.37179
5.38384
5.40716
5.42925
5.44049
5.44255
5.43354
5.41724
5.38954
5.33772
5.2539
5.11475
4.88648
4.68043
1.39997
1.39997
1.39997
1.39997
1.39997
1.39997
1.39997
1.39997
1.39997
1.39997
1.39997
1.39997
1.39997
1.39997
1.39997
1.39997
1.39997
1.39997
1.39997
1.39997
1.39997
1.39997
1.86443
4.82749
5.45213
5.39694
5.38806
5.39558
5.40618
5.41981
5.42725
5.42673
5.41623
5.39842
5.36187
5.29059
5.18415
5.02615
4.76983
4.46815
1.39997
1.39997
1.39997
1.39997
1.39997
1.39997
1.39997
1.39997
1.39997
1.39997
1.39997
1.39997
1.39997
1.39997
1.39997
1.39997
1.39997
1.39997
1.39997
1.39997
1.39997
2.63284
5.22267
5.44644
5.47964
5.53046
5.57798
5.62735
5.68249
5.7412
5.79538
5.83712
5.85502
5.84964
5.84099
5.83835
5.8416
5.83812
5.82851
5.82495
1.39997
1.39997
1.39997
1.39997
1.39997
1.39997
1.39997
1.39997
1.39997
1.39997
1.39997
1.39997
1.39997
1.39997
1.39997
1.39997
1.39997
1.39997
1.39997
1.39997
1.39997
2.62856
5.2119
5.4458
5.48026
5.53073
5.57799
5.628
5.68416
5.74341
5.797
5.83641
5.85247
5.84743
5.84052
5.84016
5.84399
5.83904
5.82671
5.82179
1.39997
1.39997
1.39997
1.39997
1.39997
1.39997
1.39997
1.39997
1.39997
1.39997
1.39997
1.39997
1.39997
1.39997
1.39997
1.39997
1.39997
1.39997
1.39997
1.39997
1.39997
2.61934
5.1924
5.44019
5.47868
5.53011
5.57786
5.62872
5.68586
5.7455
5.79819
5.83502
5.84863
5.84343
5.83835
5.84071
5.84619
5.83958
5.82359
5.81638
1.39997
1.39997
1.39997
1.39997
1.39997
1.39997
1.39997
1.39997
1.39997
1.39997
1.39997
1.39997
1.39997
1.39997
1.39997
1.39997
1.39997
1.39997
1.39997
1.39997
1.39997
2.60526
5.17372
5.43664
5.47797
5.5304
5.57841
5.62989
5.68731
5.74657
5.7977
5.83146
5.8423
5.83806
5.83657
5.84304
5.84993
5.84017
5.81902
5.80925
1.39997
1.39997
1.39997
1.39997
1.39997
1.39997
1.39997
1.39997
1.39997
1.39997
1.39997
1.39997
1.39997
1.39997
1.39997
1.39997
1.39997
1.39997
1.39997
1.39997
1.39997
2.58621
5.16253
5.43561
5.47774
5.53051
5.57887
5.63091
5.6883
5.74643
5.79527
5.82581
5.83455
5.83183
5.83495
5.84598
5.85343
5.83991
5.81323
5.801
1.39997
1.39997
1.39997
1.39997
1.39997
1.39997
1.39997
1.39997
1.39997
1.39997
1.39997
1.39997
1.39997
1.39997
1.39997
1.39997
1.39997
1.39997
1.39997
1.39997
1.39997
2.56384
5.16001
5.43746
5.47819
5.52997
5.578
5.6311
5.68915
5.746
5.79165
5.81873
5.82644
5.82682
5.83531
5.84989
5.85481
5.8377
5.80671
5.79343
1.39997
1.39997
1.39997
1.39997
1.39997
1.39997
1.39997
1.39997
1.39997
1.39997
1.39997
1.39997
1.39997
1.39997
1.39997
1.39997
1.39997
1.39997
1.39997
1.39997
1.39997
2.54267
5.16421
5.44537
5.4794
5.52754
5.57437
5.62834
5.68726
5.74376
5.78697
5.81141
5.8193
5.82469
5.83874
5.8525
5.85309
5.8326
5.79967
5.78768
1.39997
1.39997
1.39997
1.39997
1.39997
1.39997
1.39997
1.39997
1.39997
1.39997
1.39997
1.39997
1.39997
1.39997
1.39997
1.39997
1.39997
1.39997
1.39997
1.39997
1.39997
2.50775
5.14979
5.44613
5.47711
5.5234
5.56958
5.6248
5.68566
5.74248
5.78333
5.80562
5.81537
5.82605
5.84192
5.85199
5.84841
5.82457
5.79286
5.78442
1.39997
1.39997
1.39997
1.39997
1.39997
1.39997
1.39997
1.39997
1.39997
1.39997
1.39997
1.39997
1.39997
1.39997
1.39997
1.39997
1.39997
1.39997
1.39997
1.39997
1.39997
2.47057
5.13093
5.44897
5.47651
5.51974
5.56357
5.61866
5.68133
5.73926
5.78017
5.80367
5.81671
5.82991
5.84282
5.84918
5.84076
5.81454
5.78675
5.78243
1.39997
1.39997
1.39997
1.39997
1.39997
1.39997
1.39997
1.39997
1.39997
1.39997
1.39997
1.39997
1.39997
1.39997
1.39997
1.39997
1.39997
1.39997
1.39997
1.39997
1.39997
2.42999
5.10672
5.4492
5.47468
5.51648
5.55864
5.61234
5.67465
5.73393
5.77815
5.80564
5.82123
5.83234
5.8411
5.84332
5.83144
5.80512
5.78189
5.77991
1.39997
1.39997
1.39997
1.39997
1.39997
1.39997
1.39997
1.39997
1.39997
1.39997
1.39997
1.39997
1.39997
1.39997
1.39997
1.39997
1.39997
1.39997
1.39997
1.39997
1.39997
2.38503
5.083
5.44879
5.47251
5.5138
5.55468
5.60589
5.66588
5.72733
5.77677
5.80928
5.82528
5.83147
5.83497
5.83368
5.82165
5.79791
5.7778
5.77588
1.39997
1.39997
1.39997
1.39997
1.39997
1.39997
1.39997
1.39997
1.39997
1.39997
1.39997
1.39997
1.39997
1.39997
1.39997
1.39997
1.39997
1.39997
1.39997
1.39997
1.39997
2.3363
5.06259
5.44828
5.46933
5.51074
5.55143
5.60068
5.65845
5.72123
5.77541
5.81149
5.82676
5.82627
5.82388
5.82138
5.81335
5.79332
5.77377
5.76957
1.39997
1.39997
1.39997
1.39997
1.39997
1.39997
1.39997
1.39997
1.39997
1.39997
1.39997
1.39997
1.39997
1.39997
1.39997
1.39997
1.39997
1.39997
1.39997
1.39997
1.39997
2.28557
5.04269
5.4477
5.46509
5.50692
5.54852
5.59753
5.65473
5.71755
5.77292
5.80969
5.82376
5.81649
5.80982
5.80933
5.80671
5.78986
5.76895
5.76102
1.39997
1.39997
1.39997
1.39997
1.39997
1.39997
1.39997
1.39997
1.39997
1.39997
1.39997
1.39997
1.39997
1.39997
1.39997
1.39997
1.39997
1.39997
1.39997
1.39997
1.39997
2.22936
5.01588
5.44603
5.4615
5.504
5.5469
5.59758
5.65551
5.71767
5.77094
5.80497
5.81557
5.80432
5.79657
5.79958
5.80062
5.78522
5.76214
5.75022
1.39997
1.39997
1.39997
1.39997
1.39997
1.39997
1.39997
1.39997
1.39997
1.39997
1.39997
1.39997
1.39997
1.39997
1.39997
1.39997
1.39997
1.39997
1.39997
1.39997
1.39997
2.1708
4.97992
5.43812
5.45666
5.50228
5.54803
5.60167
5.66092
5.72153
5.7707
5.79854
5.804
5.79253
5.78714
5.79291
5.79498
5.77884
5.75278
5.7375
1.39997
1.39997
1.39997
1.39997
1.39997
1.39997
1.39997
1.39997
1.39997
1.39997
1.39997
1.39997
1.39997
1.39997
1.39997
1.39997
1.39997
1.39997
1.39997
1.39997
1.39997
2.11086
4.92696
5.42986
5.45584
5.50474
5.55281
5.60856
5.66829
5.72541
5.7701
5.7918
5.79282
5.78316
5.78117
5.78794
5.78907
5.77035
5.74097
5.72363
1.39997
1.39997
1.39997
1.39997
1.39997
1.39997
1.39997
1.39997
1.39997
1.39997
1.39997
1.39997
1.39997
1.39997
1.39997
1.39997
1.39997
1.39997
1.39997
1.39997
1.39997
2.04917
4.85605
5.41857
5.45512
5.51006
5.55838
5.61298
5.67228
5.72688
5.76805
5.7865
5.78507
5.7765
5.77625
5.7829
5.78228
5.76014
5.72761
5.70936
1.39997
1.39997
1.39997
1.39997
1.39997
1.39997
1.39997
1.39997
1.39997
1.39997
1.39997
1.39997
1.39997
1.39997
1.39997
1.39997
1.39997
1.39997
1.39997
1.39997
1.39997
1.98405
4.77258
5.41606
5.45997
5.51681
5.56301
5.61294
5.66914
5.72369
5.76418
5.78265
5.78074
5.77097
5.76957
5.77562
5.77349
5.74869
5.71373
5.695
1.39997
1.39997
1.39997
1.39997
1.39997
1.39997
1.39997
1.39997
1.39997
1.39997
1.39997
1.39997
1.39997
1.39997
1.39997
1.39997
1.39997
1.39997
1.39997
1.39997
1.39997
1.91637
4.695
5.41942
5.46588
5.52295
5.56413
5.60738
5.65873
5.7131
5.7569
5.77872
5.77744
5.76489
5.75973
5.76446
5.76201
5.73677
5.70011
5.68094
1.39997
1.39997
1.39997
1.39997
1.39997
1.39997
1.39997
1.39997
1.39997
1.39997
1.39997
1.39997
1.39997
1.39997
1.39997
1.39997
1.39997
1.39997
1.39997
1.39997
1.39997
1.84875
4.63688
5.44366
5.47485
5.52757
5.56344
5.60016
5.645
5.69733
5.74493
5.77146
5.77188
5.75703
5.74746
5.75025
5.74854
5.72481
5.68681
5.66712
1.39997
1.39997
1.39997
1.39997
1.39997
1.39997
1.39997
1.39997
1.39997
1.39997
1.39997
1.39997
1.39997
1.39997
1.39997
1.39997
1.39997
1.39997
1.39997
1.39997
1.39997
1.77331
4.61998
5.47506
5.48671
5.53192
5.56365
5.59807
5.63782
5.68341
5.72859
5.75731
5.76055
5.7461
5.73477
5.73556
5.73435
5.71244
5.67336
5.65373
1.39997
1.39997
1.39997
1.39997
1.39997
1.39997
1.39997
1.39997
1.39997
1.39997
1.39997
1.39997
1.39997
1.39997
1.39997
1.39997
1.39997
1.39997
1.39997
1.39997
1.39997
1.6982
4.61296
5.52271
5.50109
5.53572
5.56574
5.60026
5.63691
5.67478
5.7118
5.7377
5.74333
5.73276
5.72395
5.72297
5.72065
5.69947
5.65926
5.64041
1.39997
1.39997
1.39997
1.39997
1.39997
1.39997
1.39997
1.39997
1.39997
1.39997
1.39997
1.39997
1.39997
1.39997
1.39997
1.39997
1.39997
1.39997
1.39997
1.39997
1.39997
1.62028
4.54198
5.54541
5.50989
5.53893
5.56722
5.60301
5.63764
5.66827
5.6962
5.71569
5.72233
5.71894
5.71518
5.71236
5.70698
5.68495
5.64409
5.62733
1.39997
1.39997
1.39997
1.39997
1.39997
1.39997
1.39997
1.39997
1.39997
1.39997
1.39997
1.39997
1.39997
1.39997
1.39997
1.39997
1.39997
1.39997
1.39997
1.39997
1.39997
1.54307
4.43495
5.52765
5.4965
5.52742
5.55975
5.60021
5.63595
5.66174
5.68107
5.69406
5.70201
5.70583
5.70704
5.70222
5.69236
5.66827
5.62778
5.61383
1.39997
1.39997
1.39997
1.39997
1.39997
1.39997
1.39997
1.39997
1.39997
1.39997
1.39997
1.39997
1.39997
1.39997
1.39997
1.39997
1.39997
1.39997
1.39997
1.39997
1.39997
1.48907
4.31237
5.50405
5.4803
5.51232
5.54668
5.59015
5.6276
5.65191
5.6659
5.67547
5.68498
5.69352
5.69751
5.68995
5.67448
5.64751
5.6097
5.60009
1.39997
1.39997
1.39997
1.39997
1.39997
1.39997
1.39997
1.39997
1.39997
1.39997
1.39997
1.39997
1.39997
1.39997
1.39997
1.39997
1.39997
1.39997
1.39997
1.39997
1.39997
1.44531
4.20054
5.47588
5.46384
5.49401
5.52696
5.57068
5.61175
5.63809
5.65108
5.66029
5.67087
5.68144
5.68625
5.67483
5.65235
5.62191
5.58943
5.5845
1.39997
1.39997
1.39997
1.39997
1.39997
1.39997
1.39997
1.39997
1.39997
1.39997
1.39997
1.39997
1.39997
1.39997
1.39997
1.39997
1.39997
1.39997
1.39997
1.39997
1.39997
1.41035
4.07684
5.44239
5.44575
5.4744
5.50586
5.54738
5.59066
5.62084
5.63686
5.64753
5.65826
5.66866
5.67266
5.65651
5.62582
5.59168
5.56632
5.56634
1.39997
1.39997
1.39997
1.39997
1.39997
1.39997
1.39997
1.39997
1.39997
1.39997
1.39997
1.39997
1.39997
1.39997
1.39997
1.39997
1.39997
1.39997
1.39997
1.39997
1.39997
1.40099
3.92861
5.40163
5.42689
5.45678
5.48687
5.52506
5.5681
5.60203
5.62287
5.63556
5.64547
5.65389
5.65483
5.63439
5.59719
5.56012
5.54051
5.54269
1.39997
1.39997
1.39997
1.39997
1.39997
1.39997
1.39997
1.39997
1.39997
1.39997
1.39997
1.39997
1.39997
1.39997
1.39997
1.39997
1.39997
1.39997
1.39997
1.39997
1.39997
1.4
3.77299
5.36182
5.40776
5.44057
5.47141
5.50644
5.54736
5.58355
5.60858
5.6228
5.63001
5.63411
5.62995
5.60744
5.56884
5.53004
5.51226
5.51367
1.39997
1.39997
1.39997
1.39997
1.39997
1.39997
1.39997
1.39997
1.39997
1.39997
1.39997
1.39997
1.39997
1.39997
1.39997
1.39997
1.39997
1.39997
1.39997
1.39997
1.39997
1.39997
3.61227
5.32336
5.39063
5.42616
5.45829
5.4916
5.52996
5.56591
5.59268
5.60656
5.60999
5.60762
5.59729
5.57762
5.54353
5.50402
5.48233
5.47762
1.39997
1.39997
1.39997
1.39997
1.39997
1.39997
1.39997
1.39997
1.39997
1.39997
1.39997
1.39997
1.39997
1.39997
1.39997
1.39997
1.39997
1.39997
1.39997
1.39997
1.39997
1.39997
3.45081
5.29113
5.37612
5.4116
5.44504
5.47856
5.51475
5.54807
5.57373
5.58617
5.5848
5.57434
5.56017
5.54782
5.52122
5.48012
5.45007
5.43688
1.39997
1.39997
1.39997
1.39997
1.39997
1.39997
1.39997
1.39997
1.39997
1.39997
1.39997
1.39997
1.39997
1.39997
1.39997
1.39997
1.39997
1.39997
1.39997
1.39997
1.39997
1.39997
3.28844
5.26486
5.36371
5.39528
5.42865
5.46403
5.50011
5.53064
5.55263
5.56176
5.55536
5.53886
5.52463
5.52033
5.50067
5.45642
5.41474
5.38975
1.39997
1.39997
1.39997
1.39997
1.39997
1.39997
1.39997
1.39997
1.39997
1.39997
1.39997
1.39997
1.39997
1.39997
1.39997
1.39997
1.39997
1.39997
1.39997
1.39997
1.39997
1.39997
3.125
5.23804
5.35739
5.3815
5.41213
5.44848
5.4844
5.5122
5.53001
5.536
5.52606
5.50673
5.49471
5.49543
5.47894
5.42882
5.3736
5.33759
1.39997
1.39997
1.39997
1.39997
1.39997
1.39997
1.39997
1.39997
1.39997
1.39997
1.39997
1.39997
1.39997
1.39997
1.39997
1.39997
1.39997
1.39997
1.39997
1.39997
1.39997
1.39997
2.9587
5.20312
5.35655
5.37159
5.39739
5.43244
5.46815
5.49478
5.50952
5.51309
5.50151
5.48169
5.47123
5.47189
5.45415
5.39673
5.32568
5.27581
1.39997
1.39997
1.39997
1.39997
1.39997
1.39997
1.39997
1.39997
1.39997
1.39997
1.39997
1.39997
1.39997
1.39997
1.39997
1.39997
1.39997
1.39997
1.39997
1.39997
1.39997
1.39997
2.78823
5.15673
5.35867
5.3648
5.38644
5.41945
5.45257
5.47865
5.49254
5.49511
5.48306
5.46325
5.45167
5.44771
5.42532
5.35794
5.26723
5.20429
1.39997
1.39997
1.39997
1.39997
1.39997
1.39997
1.39997
1.39997
1.39997
1.39997
1.39997
1.39997
1.39997
1.39997
1.39997
1.39997
1.39997
1.39997
1.39997
1.39997
1.39997
1.39997
2.61514
5.09607
5.36196
5.35978
5.37658
5.40631
5.43721
5.46432
5.4789
5.48151
5.47014
5.44969
5.43415
5.42215
5.39183
5.31364
5.19882
5.11662
1.39997
1.39997
1.39997
1.39997
1.39997
1.39997
1.39997
1.39997
1.39997
1.39997
1.39997
1.39997
1.39997
1.39997
1.39997
1.39997
1.39997
1.39997
1.39997
1.39997
1.39997
1.39997
2.44128
5.0204
5.36601
5.35518
5.36777
5.3958
5.42431
5.45161
5.46634
5.46922
5.45915
5.43954
5.41961
5.39754
5.35506
5.25978
5.11216
5.01032
1.39997
1.39997
1.39997
1.39997
1.39997
1.39997
1.39997
1.39997
1.39997
1.39997
1.39997
1.39997
1.39997
1.39997
1.39997
1.39997
1.39997
1.39997
1.39997
1.39997
1.39997
1.39997
2.26492
4.94136
5.38524
5.35846
5.36249
5.38533
5.41361
5.44071
5.45425
5.45705
5.4474
5.42851
5.40416
5.36876
5.30636
5.19081
5.01103
4.87267
1.39997
1.39997
1.39997
1.39997
1.39997
1.39997
1.39997
1.39997
1.39997
1.39997
1.39997
1.39997
1.39997
1.39997
1.39997
1.39997
1.39997
1.39997
1.39997
1.39997
1.39997
1.39997
2.07195
4.87251
5.42036
5.37891
5.37179
5.38384
5.40716
5.42925
5.44049
5.44255
5.43354
5.41724
5.38954
5.33772
5.2539
5.11475
4.88648
4.68043
1.39997
1.39997
1.39997
1.39997
1.39997
1.39997
1.39997
1.39997
1.39997
1.39997
1.39997
1.39997
1.39997
1.39997
1.39997
1.39997
1.39997
1.39997
1.39997
1.39997
1.39997
1.39997
1.86443
4.82749
5.45213
5.39694
5.38806
5.39558
5.40618
5.41981
5.42725
5.42673
5.41623
5.39842
5.36187
5.29059
5.18415
5.02615
4.76983
4.46815
1.39997
1.39997
1.39997
1.39997
1.39997
1.39997
1.39997
1.39997
1.39997
1.39997
1.39997
1.39997
1.39997
1.39997
1.39997
1.39997
1.39997
1.39997
1.39997
1.39997
1.39997
2.63284
5.22267
5.44644
5.47964
5.53046
5.57798
5.62735
5.68249
5.7412
5.79538
5.83712
5.85502
5.84964
5.84099
5.83835
5.8416
5.83812
5.82851
5.82495
1.39997
1.39997
1.39997
1.39997
1.39997
1.39997
1.39997
1.39997
1.39997
1.39997
1.39997
1.39997
1.39997
1.39997
1.39997
1.39997
1.39997
1.39997
1.39997
1.39997
1.39997
2.62856
5.2119
5.4458
5.48026
5.53073
5.57799
5.628
5.68416
5.74341
5.797
5.83641
5.85247
5.84743
5.84052
5.84016
5.84399
5.83904
5.82671
5.82179
1.39997
1.39997
1.39997
1.39997
1.39997
1.39997
1.39997
1.39997
1.39997
1.39997
1.39997
1.39997
1.39997
1.39997
1.39997
1.39997
1.39997
1.39997
1.39997
1.39997
1.39997
2.61934
5.1924
5.44019
5.47868
5.53011
5.57786
5.62872
5.68586
5.7455
5.79819
5.83502
5.84863
5.84343
5.83835
5.84071
5.84619
5.83958
5.82359
5.81638
1.39997
1.39997
1.39997
1.39997
1.39997
1.39997
1.39997
1.39997
1.39997
1.39997
1.39997
1.39997
1.39997
1.39997
1.39997
1.39997
1.39997
1.39997
1.39997
1.39997
1.39997
2.60526
5.17372
5.43664
5.47797
5.5304
5.57841
5.62989
5.68731
5.74657
5.7977
5.83146
5.8423
5.83806
5.83657
5.84304
5.84993
5.84017
5.81902
5.80925
1.39997
1.39997
1.39997
1.39997
1.39997
1.39997
1.39997
1.39997
1.39997
1.39997
1.39997
1.39997
1.39997
1.39997
1.39997
1.39997
1.39997
1.39997
1.39997
1.39997
1.39997
2.58621
5.16253
5.43561
5.47774
5.53051
5.57887
5.63091
5.6883
5.74643
5.79527
5.82581
5.83455
5.83183
5.83495
5.84598
5.85343
5.83991
5.81323
5.801
1.39997
1.39997
1.39997
1.39997
1.39997
1.39997
1.39997
1.39997
1.39997
1.39997
1.39997
1.39997
1.39997
1.39997
1.39997
1.39997
1.39997
1.39997
1.39997
1.39997
1.39997
2.56384
5.16001
5.43746
5.47819
5.52997
5.578
5.6311
5.68915
5.746
5.79165
5.81873
5.82644
5.82682
5.83531
5.84989
5.85481
5.8377
5.80671
5.79343
1.39997
1.39997
1.39997
1.39997
1.39997
1.39997
1.39997
1.39997
1.39997
1.39997
1.39997
1.39997
1.39997
1.39997
1.39997
1.39997
1.39997
1.39997
1.39997
1.39997
1.39997
2.54267
5.16421
5.44537
5.4794
5.52754
5.57437
5.62834
5.68726
5.74376
5.78697
5.81141
5.8193
5.82469
5.83874
5.8525
5.85309
5.8326
5.79967
5.78768
1.39997
1.39997
1.39997
1.39997
1.39997
1.39997
1.39997
1.39997
1.39997
1.39997
1.39997
1.39997
1.39997
1.39997
1.39997
1.39997
1.39997
1.39997
1.39997
1.39997
1.39997
2.50775
5.14979
5.44613
5.47711
5.5234
5.56958
5.6248
5.68566
5.74248
5.78333
5.80562
5.81537
5.82605
5.84192
5.85199
5.84841
5.82457
5.79286
5.78442
1.39997
1.39997
1.39997
1.39997
1.39997
1.39997
1.39997
1.39997
1.39997
1.39997
1.39997
1.39997
1.39997
1.39997
1.39997
1.39997
1.39997
1.39997
1.39997
1.39997
1.39997
2.47057
5.13093
5.44897
5.47651
5.51974
5.56357
5.61866
5.68133
5.73926
5.78017
5.80367
5.81671
5.82991
5.84282
5.84918
5.84076
5.81454
5.78675
5.78243
1.39997
1.39997
1.39997
1.39997
1.39997
1.39997
1.39997
1.39997
1.39997
1.39997
1.39997
1.39997
1.39997
1.39997
1.39997
1.39997
1.39997
1.39997
1.39997
1.39997
1.39997
2.42999
5.10672
5.4492
5.47468
5.51648
5.55864
5.61234
5.67465
5.73393
5.77815
5.80564
5.82123
5.83234
5.8411
5.84332
5.83144
5.80512
5.78189
5.77991
1.39997
1.39997
1.39997
1.39997
1.39997
1.39997
1.39997
1.39997
1.39997
1.39997
1.39997
1.39997
1.39997
1.39997
1.39997
1.39997
1.39997
1.39997
1.39997
1.39997
1.39997
2.38503
5.083
5.44879
5.47251
5.5138
5.55468
5.60589
5.66588
5.72733
5.77677
5.80928
5.82528
5.83147
5.83497
5.83368
5.82165
5.79791
5.7778
5.77588
1.39997
1.39997
1.39997
1.39997
1.39997
1.39997
1.39997
1.39997
1.39997
1.39997
1.39997
1.39997
1.39997
1.39997
1.39997
1.39997
1.39997
1.39997
1.39997
1.39997
1.39997
2.3363
5.06259
5.44828
5.46933
5.51074
5.55143
5.60068
5.65845
5.72123
5.77541
5.81149
5.82676
5.82627
5.82388
5.82138
5.81335
5.79332
5.77377
5.76957
1.39997
1.39997
1.39997
1.39997
1.39997
1.39997
1.39997
1.39997
1.39997
1.39997