/*--------------------------------*- C++ -*----------------------------------*\
  =========                 |
  \\      /  F ield         | OpenFOAM: The Open Source CFD Toolbox
   \\    /   O peration     | Website:  https://openfoam.org
    \\  /    A nd           | Version:  6.0
     \\/     M anipulation  |
\*---------------------------------------------------------------------------*/
FoamFile
{
    version     2.0;
    format      ascii;
    class       volVectorField;
    location    "2.5002577";
    object      U;
}
// * * * * * * * * * * * * * * * * * * * * * * * * * * * * * * * * * * * * * //

dimensions      [0 1 -1 0 0 0 0];

internalField   nonuniform List<vector> 
192000
(
(3 7.161e-16 0)
(3 3.39857e-16 0)
(3 6.31767e-16 0)
(3 -1.13863e-15 0)
(3 -3.6452e-16 0)
(3 4.40502e-15 0)
(3 -3.12325e-15 0)
(3 -6.69247e-15 0)
(3 -3.21878e-15 0)
(3 3.25125e-17 0)
(3 4.64665e-16 0)
(3 2.36873e-15 0)
(3 2.27887e-15 0)
(3 3.57296e-15 0)
(3 2.82048e-15 0)
(3 1.58194e-15 0)
(3 1.9417e-15 0)
(3 6.51877e-18 0)
(3 2.05522e-15 0)
(3 3.43396e-15 0)
(2.59864 0.000731093 0)
(0.905871 0.00330131 0)
(0.731086 0.00636338 0)
(0.694021 0.00682009 0)
(0.653369 0.00662372 0)
(0.614474 0.00618598 0)
(0.575361 0.00612727 0)
(0.535756 0.00653801 0)
(0.495715 0.00717495 0)
(0.45538 0.00737342 0)
(0.41457 0.0067456 0)
(0.373396 0.00574068 0)
(0.332534 0.00517485 0)
(0.292456 0.00540052 0)
(0.252822 0.00637109 0)
(0.212527 0.00736724 0)
(0.170313 0.00781203 0)
(0.124307 0.00787372 0)
(0.0760763 0.00797981 0)
(0.0261479 0.00831414 0)
(3 1.60438e-16 0)
(3 9.14902e-16 0)
(3 1.25266e-15 0)
(3 -1.12455e-15 0)
(3 2.03451e-16 0)
(3 4.75165e-15 0)
(3 3.50033e-15 0)
(3 -8.40525e-16 0)
(3 4.83214e-15 0)
(3 4.68281e-16 0)
(3 1.23856e-15 0)
(3 8.66462e-16 0)
(3 2.48215e-15 0)
(3 2.739e-15 0)
(3 1.26746e-15 0)
(3 5.02129e-16 0)
(3 4.83684e-16 0)
(3 3.90206e-16 0)
(3 2.33266e-15 0)
(3 1.8642e-15 0)
(2.59434 0.00174182 0)
(0.900791 0.0120499 0)
(0.723168 0.0177122 0)
(0.68511 0.0165184 0)
(0.644691 0.0158725 0)
(0.606749 0.0155686 0)
(0.568621 0.0158325 0)
(0.53014 0.0173347 0)
(0.490959 0.0196421 0)
(0.45101 0.021419 0)
(0.41055 0.0210317 0)
(0.370219 0.0186879 0)
(0.330497 0.0165419 0)
(0.291305 0.0163111 0)
(0.252009 0.0182438 0)
(0.211541 0.0212604 0)
(0.169088 0.0232618 0)
(0.12318 0.0240061 0)
(0.0754924 0.0242896 0)
(0.0260817 0.0250913 0)
(3 -1.41549e-15 0)
(3 -3.52119e-16 0)
(3 7.79512e-16 0)
(3 1.33864e-15 0)
(3 3.74536e-15 0)
(3 -4.17047e-15 0)
(3 -1.08583e-15 0)
(3 1.62233e-15 0)
(3 5.67678e-16 0)
(3 -9.80754e-16 0)
(3 1.73559e-15 0)
(3 -4.25171e-16 0)
(3 2.38197e-15 0)
(3 -3.85654e-15 0)
(3 -1.99503e-15 0)
(3 -1.24107e-15 0)
(3 3.95621e-16 0)
(3 7.40724e-16 0)
(3 2.45136e-15 0)
(3 -2.59692e-15 0)
(2.5845 0.00761485 0)
(0.891612 0.02147 0)
(0.711991 0.0279779 0)
(0.674825 0.0271014 0)
(0.634964 0.0265915 0)
(0.597779 0.026125 0)
(0.560687 0.0269155 0)
(0.523205 0.0290406 0)
(0.48489 0.0316584 0)
(0.445499 0.0335648 0)
(0.405304 0.0332279 0)
(0.365449 0.0306572 0)
(0.326575 0.0282755 0)
(0.288357 0.0283926 0)
(0.249838 0.0312859 0)
(0.209655 0.0352554 0)
(0.167218 0.0379078 0)
(0.121797 0.0394004 0)
(0.0747599 0.0402605 0)
(0.0260345 0.0418858 0)
(3 -1.93988e-16 0)
(3 -3.2928e-15 0)
(3 3.37499e-16 0)
(3 1.7896e-15 0)
(3 3.05224e-16 0)
(3 3.45929e-15 0)
(3 -3.53795e-15 0)
(3 -2.55382e-15 0)
(3 -2.88479e-15 0)
(3 9.56301e-16 0)
(3 -2.23373e-17 0)
(3 3.42858e-15 0)
(3 -1.24123e-15 0)
(3 1.80722e-15 0)
(3 -2.78624e-15 0)
(3 -1.35993e-15 0)
(3 2.77578e-16 0)
(3 -1.04042e-15 0)
(3 -1.87174e-15 0)
(3 -4.01722e-15 0)
(2.58003 0.0185226 0)
(0.885256 0.0349221 0)
(0.702551 0.0376583 0)
(0.666097 0.0363617 0)
(0.626797 0.0364331 0)
(0.589872 0.0366638 0)
(0.553136 0.0379841 0)
(0.516219 0.0401076 0)
(0.478634 0.0423609 0)
(0.440132 0.0440423 0)
(0.400969 0.0440655 0)
(0.362233 0.0424047 0)
(0.324461 0.0409969 0)
(0.286912 0.0418764 0)
(0.248188 0.0451978 0)
(0.207266 0.0489133 0)
(0.164362 0.0519678 0)
(0.119649 0.0542708 0)
(0.073502 0.055994 0)
(0.0257644 0.0586614 0)
(3 1.18732e-15 0)
(3 -9.10656e-16 0)
(3 7.42687e-16 0)
(3 6.509e-16 0)
(3 2.21737e-15 0)
(3 2.05404e-15 0)
(3 3.20825e-15 0)
(3 -4.09451e-15 0)
(3 -2.8024e-15 0)
(3 1.7872e-15 0)
(3 1.06424e-16 0)
(3 4.96449e-16 0)
(3 -3.42702e-15 0)
(3 -2.63652e-15 0)
(3 1.52473e-15 0)
(3 -4.27164e-15 0)
(3 -3.87481e-15 0)
(3 -4.20526e-15 0)
(3 -2.73735e-15 0)
(3 -1.53549e-15 0)
(2.59515 0.0352474 0)
(0.889382 0.0516451 0)
(0.702219 0.0499252 0)
(0.664897 0.0475504 0)
(0.625111 0.0479415 0)
(0.58759 0.0486652 0)
(0.550224 0.0502859 0)
(0.513025 0.0520407 0)
(0.475663 0.0534951 0)
(0.437937 0.0543999 0)
(0.399942 0.0545985 0)
(0.362365 0.0542597 0)
(0.325272 0.0544954 0)
(0.287525 0.0561457 0)
(0.247653 0.0590343 0)
(0.205373 0.0625488 0)
(0.161623 0.0657037 0)
(0.117076 0.0687945 0)
(0.0717911 0.0714561 0)
(0.0251913 0.0751813 0)
(3 1.72686e-16 0)
(3 -5.7921e-16 0)
(3 -2.00107e-15 0)
(3 -7.85228e-16 0)
(3 1.85073e-15 0)
(3 -9.09529e-16 0)
(3 2.50165e-15 0)
(3 -7.25117e-16 0)
(3 4.69911e-15 0)
(3 1.06651e-15 0)
(3 1.23481e-15 0)
(3 -1.66332e-15 0)
(3 2.55624e-15 0)
(3 3.44144e-16 0)
(3 3.73695e-15 0)
(3 2.36636e-15 0)
(3 -7.93852e-16 0)
(3 -3.02204e-16 0)
(3 -1.61467e-15 0)
(3 1.91467e-16 0)
(2.62589 0.0448326 0)
(0.902979 0.0659885 0)
(0.711294 0.0607885 0)
(0.671891 0.0585437 0)
(0.630653 0.0588453 0)
(0.591877 0.0603571 0)
(0.553284 0.0625876 0)
(0.515193 0.0644232 0)
(0.477627 0.0650826 0)
(0.440363 0.0652629 0)
(0.403161 0.0654918 0)
(0.366056 0.0660539 0)
(0.328586 0.0678336 0)
(0.289561 0.0705897 0)
(0.248027 0.0735938 0)
(0.204274 0.0766637 0)
(0.159754 0.0797568 0)
(0.11501 0.0834043 0)
(0.0702872 0.0867019 0)
(0.0246246 0.0913097 0)
(3 -5.85825e-16 0)
(3 2.07869e-15 0)
(3 -8.86843e-16 0)
(3 2.37113e-15 0)
(3 -3.35062e-16 0)
(3 7.80285e-16 0)
(3 1.68694e-15 0)
(3 3.46073e-15 0)
(3 1.11523e-15 0)
(3 -2.21787e-15 0)
(3 -2.48127e-15 0)
(3 -1.79353e-15 0)
(3 -3.82806e-15 0)
(3 -1.56417e-15 0)
(3 -1.35544e-15 0)
(3 4.06839e-15 0)
(3 2.25655e-15 0)
(3 -2.59475e-15 0)
(3 8.36906e-17 0)
(3 -9.20824e-16 0)
(2.65596 0.0501807 0)
(0.916041 0.0776062 0)
(0.722372 0.0719293 0)
(0.682908 0.0685559 0)
(0.64046 0.0693173 0)
(0.600546 0.0711636 0)
(0.560805 0.0738914 0)
(0.521755 0.0762048 0)
(0.48376 0.0769195 0)
(0.446714 0.0768668 0)
(0.410009 0.0771197 0)
(0.372931 0.0782106 0)
(0.334318 0.0808366 0)
(0.292859 0.0843031 0)
(0.248625 0.0879038 0)
(0.203114 0.0910833 0)
(0.158182 0.0943145 0)
(0.113394 0.0982016 0)
(0.0692328 0.10175 0)
(0.0242501 0.107061 0)
(3 -1.79632e-16 0)
(3 2.8044e-15 0)
(3 -7.84165e-16 0)
(3 3.3968e-15 0)
(3 -8.99887e-16 0)
(3 1.75399e-15 0)
(3 -2.68629e-16 0)
(3 2.37353e-15 0)
(3 6.7281e-16 0)
(3 -2.13791e-15 0)
(3 2.39933e-15 0)
(3 -1.24647e-15 0)
(3 6.88143e-16 0)
(3 -5.27916e-16 0)
(3 -5.70425e-16 0)
(3 7.34466e-16 0)
(3 -8.20772e-16 0)
(3 4.1367e-16 0)
(3 1.18723e-15 0)
(3 -8.3472e-16 0)
(2.68308 0.0508501 0)
(0.926208 0.0869603 0)
(0.729577 0.083552 0)
(0.691764 0.0797979 0)
(0.649837 0.0803293 0)
(0.609725 0.0820257 0)
(0.569698 0.0847537 0)
(0.530401 0.0873093 0)
(0.492239 0.0887743 0)
(0.455307 0.0894822 0)
(0.41873 0.0898623 0)
(0.38108 0.0909482 0)
(0.340613 0.0935706 0)
(0.29655 0.0978012 0)
(0.249873 0.102212 0)
(0.202719 0.106063 0)
(0.15708 0.109419 0)
(0.112168 0.11317 0)
(0.0682811 0.116589 0)
(0.023881 0.122461 0)
(3 1.28411e-16 0)
(3 -9.2435e-16 0)
(3 1.42015e-16 0)
(3 -1.29316e-15 0)
(3 -7.67824e-16 0)
(3 8.88383e-16 0)
(3 2.27093e-15 0)
(3 2.09351e-15 0)
(3 1.09803e-15 0)
(3 1.20779e-16 0)
(3 1.11569e-15 0)
(3 -5.35947e-16 0)
(3 1.45939e-15 0)
(3 2.71736e-15 0)
(3 3.55645e-15 0)
(3 1.2525e-15 0)
(3 1.20634e-15 0)
(3 7.05146e-16 0)
(3 -1.27354e-16 0)
(3 5.19088e-17 0)
(2.70597 0.053272 0)
(0.930175 0.0972009 0)
(0.728343 0.0948149 0)
(0.693872 0.0915333 0)
(0.654966 0.0917953 0)
(0.617329 0.0927608 0)
(0.578805 0.0949589 0)
(0.540137 0.0976021 0)
(0.501859 0.100052 0)
(0.464306 0.102137 0)
(0.426954 0.103395 0)
(0.388087 0.104226 0)
(0.345649 0.106994 0)
(0.299039 0.111699 0)
(0.250108 0.117011 0)
(0.201816 0.121573 0)
(0.155963 0.124825 0)
(0.111252 0.128171 0)
(0.0676209 0.131246 0)
(0.0237389 0.137598 0)
(3 -1.20214e-16 0)
(3 -9.8752e-17 0)
(3 7.43451e-16 0)
(3 -4.27678e-16 0)
(3 8.97726e-16 0)
(3 -3.36748e-16 0)
(3 3.19444e-15 0)
(3 1.04216e-15 0)
(3 -1.2686e-15 0)
(3 -1.55854e-15 0)
(3 -7.51104e-16 0)
(3 -3.39639e-15 0)
(3 -6.83587e-16 0)
(3 -4.99261e-16 0)
(3 4.62364e-15 0)
(3 1.07562e-16 0)
(3 4.44782e-16 0)
(3 -4.28493e-15 0)
(3 -9.41633e-16 0)
(3 9.2893e-16 0)
(2.73313 0.0582632 0)
(0.939344 0.107562 0)
(0.73069 0.104305 0)
(0.697998 0.101077 0)
(0.660609 0.101492 0)
(0.624291 0.10251 0)
(0.586752 0.104788 0)
(0.548692 0.107824 0)
(0.510357 0.110997 0)
(0.471583 0.114532 0)
(0.431688 0.117093 0)
(0.390017 0.118599 0)
(0.345615 0.12131 0)
(0.298106 0.126315 0)
(0.248999 0.132409 0)
(0.200858 0.137361 0)
(0.155294 0.140192 0)
(0.110856 0.142993 0)
(0.0673427 0.145729 0)
(0.0238567 0.152713 0)
(3 -3.13268e-16 0)
(3 2.31035e-16 0)
(3 -1.04573e-15 0)
(3 -1.22616e-15 0)
(3 1.2574e-16 0)
(3 1.17505e-15 0)
(3 -3.18717e-15 0)
(3 -1.96875e-15 0)
(3 -5.91935e-16 0)
(3 -5.09749e-16 0)
(3 -1.0558e-15 0)
(3 -1.73406e-15 0)
(3 -1.04391e-15 0)
(3 4.24246e-15 0)
(3 4.61352e-15 0)
(3 4.3746e-15 0)
(3 2.05179e-15 0)
(3 -4.646e-15 0)
(3 -6.06727e-16 0)
(3 6.2276e-16 0)
(2.76477 0.059671 0)
(0.952341 0.116471 0)
(0.734432 0.113345 0)
(0.700628 0.111179 0)
(0.662678 0.111988 0)
(0.626763 0.113497 0)
(0.590337 0.11579 0)
(0.553463 0.118632 0)
(0.515744 0.122176 0)
(0.476678 0.126223 0)
(0.435414 0.129776 0)
(0.391443 0.132248 0)
(0.344851 0.135785 0)
(0.296318 0.141686 0)
(0.247283 0.148294 0)
(0.199737 0.153083 0)
(0.154729 0.155248 0)
(0.110763 0.15752 0)
(0.0673199 0.160136 0)
(0.0241765 0.168052 0)
(3 1.25262e-15 0)
(3 -3.86485e-16 0)
(3 -9.56078e-16 0)
(3 3.69234e-17 0)
(3 -2.41921e-16 0)
(3 -7.41205e-16 0)
(3 -1.51311e-15 0)
(3 -2.37453e-15 0)
(3 1.24653e-15 0)
(3 -4.43082e-16 0)
(3 1.42845e-15 0)
(3 1.02847e-15 0)
(3 2.48784e-15 0)
(3 1.0838e-15 0)
(3 1.99425e-15 0)
(3 4.88175e-16 0)
(3 1.24826e-15 0)
(3 -1.8824e-15 0)
(3 -3.18575e-15 0)
(3 -3.90938e-15 0)
(2.79141 0.0575319 0)
(0.961355 0.127841 0)
(0.733299 0.123264 0)
(0.699591 0.121633 0)
(0.661479 0.12284 0)
(0.625544 0.124763 0)
(0.589418 0.12743 0)
(0.55343 0.130223 0)
(0.51662 0.133504 0)
(0.477542 0.137973 0)
(0.435205 0.1422 0)
(0.389735 0.145758 0)
(0.342153 0.150825 0)
(0.293585 0.157867 0)
(0.245278 0.164491 0)
(0.198755 0.168486 0)
(0.154529 0.169785 0)
(0.111108 0.17175 0)
(0.0677502 0.174626 0)
(0.0246496 0.183784 0)
(3 6.19531e-17 0)
(3 -7.9513e-16 0)
(3 1.69972e-15 0)
(3 6.31757e-16 0)
(3 -1.84958e-15 0)
(3 3.81982e-16 0)
(3 1.07537e-15 0)
(3 2.6064e-15 0)
(3 8.05772e-16 0)
(3 -1.34575e-15 0)
(3 -3.35111e-16 0)
(3 1.34964e-15 0)
(3 -2.36159e-15 0)
(3 3.96172e-15 0)
(3 2.30627e-15 0)
(3 3.32397e-15 0)
(3 1.54546e-15 0)
(3 2.43935e-15 0)
(3 -2.89171e-15 0)
(3 -4.94734e-15 0)
(2.80723 0.0589783 0)
(0.962964 0.13866 0)
(0.724998 0.129993 0)
(0.69265 0.129942 0)
(0.655467 0.132109 0)
(0.62012 0.135039 0)
(0.584292 0.138598 0)
(0.548675 0.141786 0)
(0.512455 0.144963 0)
(0.473925 0.149239 0)
(0.43172 0.154086 0)
(0.386066 0.159175 0)
(0.33847 0.16615 0)
(0.290476 0.174305 0)
(0.243379 0.180564 0)
(0.198323 0.183361 0)
(0.155131 0.183765 0)
(0.112113 0.185862 0)
(0.0685503 0.189409 0)
(0.0251573 0.199978 0)
(3 4.86906e-17 0)
(3 -3.75344e-16 0)
(3 -1.08713e-15 0)
(3 -8.14216e-17 0)
(3 -2.56008e-16 0)
(3 -3.34139e-15 0)
(3 -7.48704e-16 0)
(3 2.39153e-15 0)
(3 -3.40837e-15 0)
(3 -1.95186e-15 0)
(3 -2.28989e-15 0)
(3 -1.43542e-15 0)
(3 -3.05537e-15 0)
(3 -2.03384e-15 0)
(3 -2.78283e-16 0)
(3 -6.94741e-16 0)
(3 -1.55932e-15 0)
(3 -2.38916e-15 0)
(3 -3.81524e-15 0)
(3 -3.97132e-15 0)
(2.8253 0.0662531 0)
(0.967902 0.154922 0)
(0.720415 0.139129 0)
(0.689578 0.140291 0)
(0.652401 0.142473 0)
(0.616628 0.14586 0)
(0.580035 0.149719 0)
(0.543581 0.153135 0)
(0.506732 0.156123 0)
(0.468086 0.160349 0)
(0.426216 0.16602 0)
(0.381182 0.17277 0)
(0.33453 0.181473 0)
(0.287905 0.190464 0)
(0.242589 0.196119 0)
(0.199263 0.197634 0)
(0.157002 0.197397 0)
(0.113927 0.200152 0)
(0.0696696 0.204634 0)
(0.0256539 0.216611 0)
(3 -2.68265e-16 0)
(3 1.3885e-15 0)
(3 7.32866e-16 0)
(3 2.67523e-16 0)
(3 1.50602e-15 0)
(3 -6.21508e-16 0)
(3 -8.88879e-16 0)
(3 2.50904e-15 0)
(3 2.10117e-16 0)
(3 -8.75956e-17 0)
(3 1.22495e-15 0)
(3 1.79874e-15 0)
(3 2.09572e-15 0)
(3 4.57339e-15 0)
(3 1.39998e-15 0)
(3 4.47674e-16 0)
(3 -1.65722e-15 0)
(3 -3.55471e-15 0)
(3 -4.44796e-15 0)
(3 -4.19278e-15 0)
(2.86996 0.0783437 0)
(0.990805 0.174162 0)
(0.729102 0.149777 0)
(0.696593 0.151235 0)
(0.657032 0.153756 0)
(0.61962 0.157455 0)
(0.581241 0.161517 0)
(0.542688 0.165144 0)
(0.503692 0.168374 0)
(0.463575 0.172866 0)
(0.421424 0.17909 0)
(0.377188 0.186837 0)
(0.332119 0.196584 0)
(0.287423 0.205967 0)
(0.243967 0.210922 0)
(0.201981 0.211456 0)
(0.160132 0.211118 0)
(0.116544 0.214889 0)
(0.0711637 0.220313 0)
(0.0262144 0.233613 0)
(3 -9.58264e-17 0)
(3 -1.55576e-15 0)
(3 -3.73868e-16 0)
(3 -1.65231e-15 0)
(3 1.97568e-16 0)
(3 1.21774e-15 0)
(3 3.79626e-16 0)
(3 1.56591e-16 0)
(3 4.32979e-15 0)
(3 1.06154e-15 0)
(3 3.87762e-15 0)
(3 4.43008e-15 0)
(3 2.51206e-15 0)
(3 2.66771e-15 0)
(3 2.79269e-15 0)
(3 2.01493e-15 0)
(3 -6.68174e-16 0)
(3 -6.42841e-16 0)
(3 2.54685e-16 0)
(3 -3.48559e-15 0)
(2.93043 0.0714235 0)
(1.02808 0.18499 0)
(0.752476 0.154207 0)
(0.715586 0.160607 0)
(0.671283 0.163868 0)
(0.630629 0.168086 0)
(0.589471 0.17263 0)
(0.54791 0.177049 0)
(0.505846 0.181376 0)
(0.463386 0.186927 0)
(0.420308 0.193715 0)
(0.376612 0.201596 0)
(0.333003 0.211431 0)
(0.289904 0.220677 0)
(0.247672 0.225093 0)
(0.206328 0.225256 0)
(0.164361 0.225335 0)
(0.119841 0.230242 0)
(0.0729081 0.236427 0)
(0.0267373 0.25088 0)
(3 -3.98058e-16 0)
(3 -6.74077e-16 0)
(3 -6.66075e-16 0)
(3 -5.82948e-16 0)
(3 -4.21094e-17 0)
(3 -6.45728e-16 0)
(3 1.30088e-15 0)
(3 -1.44904e-15 0)
(3 1.44635e-15 0)
(3 4.44525e-16 0)
(3 3.08046e-16 0)
(3 -2.911e-15 0)
(3 1.40604e-15 0)
(3 -5.632e-15 0)
(3 8.18379e-17 0)
(3 -2.84291e-15 0)
(3 -2.2645e-15 0)
(3 -5.26414e-15 0)
(3 8.26229e-16 0)
(3 -2.76957e-15 0)
(2.97907 0.0402676 0)
(1.06023 0.190509 0)
(0.773134 0.163813 0)
(0.737644 0.172904 0)
(0.690583 0.176433 0)
(0.647273 0.179614 0)
(0.603336 0.183916 0)
(0.558808 0.18888 0)
(0.513644 0.194524 0)
(0.46855 0.201533 0)
(0.424105 0.20903 0)
(0.380507 0.216584 0)
(0.337841 0.225758 0)
(0.29565 0.234526 0)
(0.253781 0.238834 0)
(0.212215 0.239368 0)
(0.169515 0.240296 0)
(0.123665 0.246307 0)
(0.0750038 0.25296 0)
(0.0273866 0.268321 0)
(3 -2.37812e-16 0)
(3 4.27835e-16 0)
(3 -3.10913e-16 0)
(3 4.92115e-16 0)
(3 2.25652e-16 0)
(3 1.09048e-15 0)
(3 -2.05158e-16 0)
(3 5.657e-16 0)
(3 -4.245e-16 0)
(3 -1.82888e-15 0)
(3 -1.85185e-15 0)
(3 1.92448e-15 0)
(3 -1.37626e-15 0)
(3 -3.5889e-16 0)
(3 7.06993e-16 0)
(3 1.88523e-15 0)
(3 9.05044e-16 0)
(3 -7.7864e-16 0)
(3 1.86386e-15 0)
(3 -2.65716e-16 0)
(2.98423 0.0218085 0)
(1.07483 0.195029 0)
(0.778703 0.172315 0)
(0.752546 0.183325 0)
(0.7091 0.187878 0)
(0.665707 0.191901 0)
(0.620323 0.196449 0)
(0.573787 0.201701 0)
(0.526145 0.208222 0)
(0.478534 0.216357 0)
(0.43227 0.224433 0)
(0.387989 0.231511 0)
(0.345416 0.239821 0)
(0.303405 0.248253 0)
(0.261315 0.252915 0)
(0.219071 0.254225 0)
(0.175301 0.256081 0)
(0.128011 0.263039 0)
(0.0774575 0.26994 0)
(0.0281469 0.285992 0)
(3 1.9502e-16 0)
(3 -4.09825e-16 0)
(3 -9.42174e-16 0)
(3 5.34806e-16 0)
(3 3.08524e-16 0)
(3 -1.74721e-15 0)
(3 -2.02833e-15 0)
(3 3.42326e-15 0)
(3 8.63199e-16 0)
(3 -8.96321e-16 0)
(3 -2.38947e-15 0)
(3 9.55569e-16 0)
(3 1.78832e-15 0)
(3 1.84824e-15 0)
(3 5.82414e-16 0)
(3 -4.73497e-16 0)
(3 -7.1562e-17 0)
(3 7.01691e-16 0)
(3 1.22515e-15 0)
(3 5.707e-16 0)
(2.98281 0.0154699 0)
(1.0878 0.196495 0)
(0.776184 0.178135 0)
(0.755352 0.193026 0)
(0.718468 0.199959 0)
(0.679661 0.204725 0)
(0.636503 0.210031 0)
(0.590324 0.215888 0)
(0.541786 0.22286 0)
(0.492579 0.231301 0)
(0.444632 0.239367 0)
(0.399168 0.245817 0)
(0.356109 0.25332 0)
(0.31391 0.261576 0)
(0.271199 0.266854 0)
(0.227577 0.269361 0)
(0.181844 0.272462 0)
(0.132382 0.280482 0)
(0.0797117 0.287513 0)
(0.0286782 0.303957 0)
(3 3.62237e-16 0)
(3 -3.9103e-17 0)
(3 -2.89551e-16 0)
(3 7.68518e-17 0)
(3 2.02831e-15 0)
(3 -3.59626e-15 0)
(3 3.02196e-15 0)
(3 2.54432e-15 0)
(3 -5.81871e-16 0)
(3 1.98153e-16 0)
(3 -1.69455e-15 0)
(3 -9.59903e-16 0)
(3 3.61063e-15 0)
(3 6.41478e-16 0)
(3 -3.75188e-16 0)
(3 -2.38985e-15 0)
(3 -5.61269e-16 0)
(3 1.65299e-15 0)
(3 2.15583e-17 0)
(3 1.87849e-16 0)
(2.99617 0.0103485 0)
(1.10205 0.200904 0)
(0.770601 0.17974 0)
(0.753306 0.200576 0)
(0.720888 0.209597 0)
(0.687019 0.216109 0)
(0.648711 0.222945 0)
(0.605532 0.230277 0)
(0.558151 0.238111 0)
(0.508724 0.246612 0)
(0.45966 0.254243 0)
(0.412806 0.260035 0)
(0.368569 0.26721 0)
(0.325402 0.27585 0)
(0.281294 0.282016 0)
(0.235596 0.285722 0)
(0.187561 0.28987 0)
(0.136035 0.298738 0)
(0.0816782 0.305707 0)
(0.029179 0.322263 0)
(3 -2.93197e-16 0)
(3 -2.93534e-16 0)
(3 6.88946e-16 0)
(3 -2.00065e-17 0)
(3 -3.20136e-15 0)
(3 -1.68e-16 0)
(3 3.72487e-15 0)
(3 -2.35015e-15 0)
(3 3.70809e-15 0)
(3 -3.95657e-16 0)
(3 5.35251e-16 0)
(3 1.35662e-15 0)
(3 1.11023e-15 0)
(3 9.01622e-16 0)
(3 1.78432e-16 0)
(3 8.46679e-16 0)
(3 2.12923e-15 0)
(3 8.51266e-16 0)
(3 3.08286e-15 0)
(3 -1.79738e-16 0)
(3.00297 0.00205852 0)
(1.1217 0.206845 0)
(0.763858 0.18446 0)
(0.747154 0.206215 0)
(0.718141 0.218007 0)
(0.687079 0.225985 0)
(0.653129 0.234976 0)
(0.615007 0.244529 0)
(0.571878 0.253596 0)
(0.524819 0.262089 0)
(0.476354 0.268888 0)
(0.428882 0.273733 0)
(0.38349 0.280614 0)
(0.339039 0.289813 0)
(0.293242 0.297032 0)
(0.245279 0.302104 0)
(0.194754 0.307472 0)
(0.140872 0.317395 0)
(0.084437 0.324478 0)
(0.0301109 0.341177 0)
(3 -5.25573e-16 0)
(3 1.63594e-15 0)
(3 2.79524e-15 0)
(3 4.37376e-15 0)
(3 2.38867e-16 0)
(3 -2.63508e-15 0)
(3 -1.30313e-15 0)
(3 4.44609e-16 0)
(3 3.99879e-15 0)
(3 1.5626e-15 0)
(3 4.10893e-15 0)
(3 -1.08313e-15 0)
(3 -2.51495e-15 0)
(3 1.9022e-15 0)
(3 1.89478e-15 0)
(3 1.87522e-15 0)
(3 1.67869e-15 0)
(3 7.27714e-16 0)
(3 2.71356e-15 0)
(3 -1.44387e-15 0)
(3.0007 0.000145185 0)
(1.14893 0.218245 0)
(0.758464 0.189105 0)
(0.738753 0.211782 0)
(0.711877 0.225043 0)
(0.683507 0.234647 0)
(0.653606 0.244683 0)
(0.620715 0.255956 0)
(0.582472 0.267142 0)
(0.539075 0.276892 0)
(0.49237 0.283902 0)
(0.444741 0.288609 0)
(0.397907 0.295681 0)
(0.351443 0.305676 0)
(0.303374 0.313926 0)
(0.253173 0.320012 0)
(0.200637 0.326148 0)
(0.145144 0.33686 0)
(0.0868961 0.344049 0)
(0.0310006 0.36095 0)
(3 -8.16662e-16 0)
(3 2.60565e-15 0)
(3 4.52286e-16 0)
(3 3.00664e-15 0)
(3 2.52037e-15 0)
(3 -1.43486e-15 0)
(3 -3.16032e-16 0)
(3 3.33035e-15 0)
(3 3.48721e-15 0)
(3 1.53026e-15 0)
(3 1.28157e-15 0)
(3 -3.68115e-16 0)
(3 -2.531e-15 0)
(3 -3.87883e-16 0)
(3 6.5858e-16 0)
(3 7.66212e-17 0)
(3 -9.14221e-17 0)
(3 -1.6952e-15 0)
(3 -1.75092e-15 0)
(3 -3.26171e-15 0)
(3.00004 4.05602e-06 0)
(1.18786 0.231471 0)
(0.757325 0.197304 0)
(0.7297 0.218694 0)
(0.703403 0.231994 0)
(0.677014 0.241739 0)
(0.650146 0.252931 0)
(0.621483 0.265783 0)
(0.58841 0.278949 0)
(0.549676 0.290646 0)
(0.506227 0.298725 0)
(0.459942 0.303556 0)
(0.412692 0.310612 0)
(0.364847 0.321199 0)
(0.314966 0.33051 0)
(0.26276 0.337826 0)
(0.208042 0.345018 0)
(0.150672 0.356717 0)
(0.0902074 0.364315 0)
(0.0322659 0.381701 0)
(3 4.72895e-17 0)
(3 8.67031e-16 0)
(3 -3.34859e-15 0)
(3 4.12008e-16 0)
(3 -2.56307e-15 0)
(3 4.03973e-15 0)
(3 2.46347e-15 0)
(3 3.36907e-15 0)
(3 -1.11842e-15 0)
(3 1.6402e-15 0)
(3 -2.31851e-15 0)
(3 1.13514e-15 0)
(3 -1.09137e-15 0)
(3 -9.95417e-16 0)
(3 1.02005e-15 0)
(3 -4.04263e-15 0)
(3 -2.84765e-15 0)
(3 -3.7665e-15 0)
(3 -1.23588e-15 0)
(3 -3.25794e-15 0)
(3 5.29738e-09 0)
(1.23863 0.244506 0)
(0.761462 0.207209 0)
(0.722019 0.226485 0)
(0.694424 0.239422 0)
(0.668801 0.248646 0)
(0.644464 0.259998 0)
(0.618808 0.273705 0)
(0.590204 0.288911 0)
(0.556207 0.302905 0)
(0.516429 0.313124 0)
(0.471854 0.319351 0)
(0.424359 0.32718 0)
(0.375274 0.338577 0)
(0.324058 0.34883 0)
(0.270665 0.357099 0)
(0.214565 0.36502 0)
(0.155767 0.377497 0)
(0.0933756 0.385611 0)
(0.0334223 0.403629 0)
(3 4.31336e-16 0)
(3 -1.17721e-15 0)
(3 2.45812e-16 0)
(3 -1.12011e-15 0)
(3 -3.66546e-16 0)
(3 1.00029e-15 0)
(3 6.71569e-16 0)
(3 1.47898e-16 0)
(3 -8.39369e-17 0)
(3 3.18245e-15 0)
(3 -5.05089e-16 0)
(3 3.07833e-15 0)
(3 1.31135e-15 0)
(3 1.14668e-15 0)
(3 -1.88896e-15 0)
(3 2.09083e-15 0)
(3 -7.37817e-16 0)
(3 -3.12041e-15 0)
(3 -2.25289e-15 0)
(3 -1.13424e-15 0)
(3 -4.82484e-10 0)
(1.29902 0.257228 0)
(0.768018 0.219197 0)
(0.718638 0.236393 0)
(0.687022 0.247389 0)
(0.660225 0.255711 0)
(0.637263 0.266661 0)
(0.614412 0.281065 0)
(0.589244 0.297603 0)
(0.559397 0.313806 0)
(0.523301 0.326482 0)
(0.481219 0.334612 0)
(0.434879 0.343393 0)
(0.385949 0.355561 0)
(0.334282 0.366852 0)
(0.280008 0.376336 0)
(0.222405 0.385263 0)
(0.161978 0.398821 0)
(0.0974771 0.407908 0)
(0.0350287 0.426824 0)
(3 -8.23974e-16 0)
(3 1.42909e-15 0)
(3 1.16884e-15 0)
(3 -1.168e-16 0)
(3 -1.83884e-15 0)
(3 -7.11351e-16 0)
(3 1.48864e-15 0)
(3 3.10327e-15 0)
(3 3.80817e-15 0)
(3 5.92426e-16 0)
(3 3.40194e-16 0)
(3 1.83928e-15 0)
(3 2.88025e-15 0)
(3 1.60761e-15 0)
(3 5.00402e-17 0)
(3 9.42783e-16 0)
(3 9.37722e-16 0)
(3 -5.18075e-16 0)
(3 -1.10036e-15 0)
(3 6.72541e-17 0)
(3 -7.60018e-10 0)
(1.36711 0.268791 0)
(0.776044 0.232565 0)
(0.719116 0.2472 0)
(0.683576 0.256811 0)
(0.653267 0.262933 0)
(0.629786 0.273374 0)
(0.608707 0.287967 0)
(0.586309 0.305553 0)
(0.559992 0.323651 0)
(0.527338 0.338724 0)
(0.48788 0.34928 0)
(0.443161 0.359837 0)
(0.395038 0.37334 0)
(0.343567 0.385822 0)
(0.28897 0.396425 0)
(0.230262 0.406256 0)
(0.168355 0.421117 0)
(0.101765 0.431574 0)
(0.0366007 0.451515 0)
(3 8.37645e-16 0)
(3 2.42114e-17 0)
(3 -4.1769e-16 0)
(3 2.77875e-16 0)
(3 -7.30412e-16 0)
(3 -7.87913e-16 0)
(3 9.60725e-16 0)
(3 1.81581e-15 0)
(3 2.00365e-15 0)
(3 3.12844e-17 0)
(3 3.26705e-16 0)
(3 -1.23105e-15 0)
(3 9.47657e-16 0)
(3 3.17364e-17 0)
(3 7.27364e-18 0)
(3 -5.78578e-16 0)
(3 6.29577e-16 0)
(3 6.03905e-16 0)
(3 1.81071e-15 0)
(3 5.57088e-15 0)
(3 -6.53963e-10 0)
(1.44213 0.279834 0)
(0.784334 0.247114 0)
(0.721439 0.258713 0)
(0.683414 0.266599 0)
(0.650144 0.271339 0)
(0.623736 0.280195 0)
(0.60282 0.295023 0)
(0.582346 0.313312 0)
(0.558968 0.33267 0)
(0.52971 0.349807 0)
(0.493219 0.362857 0)
(0.450826 0.375643 0)
(0.404323 0.390894 0)
(0.353629 0.404714 0)
(0.298976 0.416443 0)
(0.239202 0.427435 0)
(0.175868 0.444163 0)
(0.107022 0.456574 0)
(0.0385982 0.477743 0)
(3 -1.0371e-15 0)
(3 3.15513e-15 0)
(3 4.96278e-16 0)
(3 1.82617e-16 0)
(3 1.78105e-15 0)
(3 8.98782e-16 0)
(3 -1.0065e-15 0)
(3 1.16192e-15 0)
(3 7.3085e-16 0)
(3 3.9619e-16 0)
(3 -6.7888e-16 0)
(3 -1.17129e-15 0)
(3 -2.71272e-16 0)
(3 5.14795e-16 0)
(3 -2.21804e-15 0)
(3 -1.64083e-15 0)
(3 -4.8831e-16 0)
(3 -8.48851e-16 0)
(3 -2.23379e-15 0)
(3 5.65478e-15 0)
(3 -4.9592e-10 0)
(1.52459 0.290898 0)
(0.79257 0.262898 0)
(0.724374 0.270851 0)
(0.685363 0.27639 0)
(0.650351 0.280058 0)
(0.621003 0.287846 0)
(0.597779 0.301836 0)
(0.577821 0.320536 0)
(0.556733 0.340951 0)
(0.530507 0.359882 0)
(0.497041 0.375536 0)
(0.457345 0.391086 0)
(0.412958 0.408643 0)
(0.363499 0.424009 0)
(0.308911 0.436855 0)
(0.248456 0.449257 0)
(0.183542 0.468434 0)
(0.11221 0.483202 0)
(0.0402312 0.505596 0)
(3 -8.80235e-16 0)
(3 -3.28651e-16 0)
(3 1.49761e-16 0)
(3 -1.73526e-16 0)
(3 9.67769e-17 0)
(3 -1.10323e-15 0)
(3 -7.3587e-16 0)
(3 2.50169e-15 0)
(3 -5.32836e-16 0)
(3 8.16005e-16 0)
(3 -7.75495e-16 0)
(3 2.27323e-16 0)
(3 3.87693e-16 0)
(3 -4.10318e-16 0)
(3 -3.51256e-15 0)
(3 1.01576e-15 0)
(3 -2.75181e-16 0)
(3 1.43696e-15 0)
(3 -2.81733e-15 0)
(3 1.79074e-15 0)
(3 -2.83603e-10 0)
(1.61579 0.302246 0)
(0.801424 0.279842 0)
(0.726456 0.283646 0)
(0.687371 0.286426 0)
(0.651927 0.288834 0)
(0.621148 0.295889 0)
(0.595407 0.30907 0)
(0.57384 0.32715 0)
(0.553681 0.348265 0)
(0.530232 0.368936 0)
(0.500143 0.387176 0)
(0.463724 0.405619 0)
(0.42191 0.425727 0)
(0.373862 0.442949 0)
(0.319424 0.45735 0)
(0.258447 0.47175 0)
(0.192369 0.493784 0)
(0.118455 0.511213 0)
(0.0424335 0.5349 0)
(3 4.74201e-16 0)
(3 -1.34094e-15 0)
(3 -8.16501e-16 0)
(3 -2.34842e-16 0)
(3 2.01182e-15 0)
(3 -3.39545e-15 0)
(3 -1.23452e-15 0)
(3 -3.22922e-15 0)
(3 -2.78954e-15 0)
(3 2.93181e-16 0)
(3 -2.6828e-15 0)
(3 1.41771e-15 0)
(3 2.4447e-15 0)
(3 -7.98277e-16 0)
(3 1.41547e-15 0)
(3 9.77069e-16 0)
(3 4.93587e-16 0)
(3 4.66945e-15 0)
(3 -2.20905e-15 0)
(3 -1.6296e-16 0)
(3 -1.20974e-10 0)
(1.71679 0.313119 0)
(0.811227 0.297965 0)
(0.727375 0.297142 0)
(0.689202 0.296698 0)
(0.654855 0.297948 0)
(0.623939 0.303962 0)
(0.596507 0.316557 0)
(0.572221 0.334079 0)
(0.550842 0.355011 0)
(0.529178 0.377066 0)
(0.502454 0.397859 0)
(0.469391 0.419148 0)
(0.43015 0.441968 0)
(0.383558 0.461571 0)
(0.329821 0.478314 0)
(0.268708 0.49542 0)
(0.201752 0.520684 0)
(0.124933 0.54089 0)
(0.0442628 0.565726 0)
(3 4.05506e-16 0)
(3 -8.16214e-16 0)
(3 1.66651e-16 0)
(3 -8.38153e-17 0)
(3 9.02053e-16 0)
(3 1.92036e-15 0)
(3 -4.01046e-16 0)
(3 -2.27892e-15 0)
(3 1.31638e-15 0)
(3 6.37763e-16 0)
(3 2.95457e-15 0)
(3 4.58143e-16 0)
(3 1.68841e-15 0)
(3 2.1877e-15 0)
(3 -2.00884e-15 0)
(3 -2.63587e-15 0)
(3 -2.24867e-18 0)
(3 4.31194e-15 0)
(3 -9.16668e-16 0)
(3 -3.28546e-16 0)
(3 -5.65516e-11 0)
(1.82855 0.323114 0)
(0.823263 0.317144 0)
(0.728798 0.310564 0)
(0.691874 0.30695 0)
(0.658551 0.307345 0)
(0.627452 0.312504 0)
(0.598598 0.324327 0)
(0.572115 0.341187 0)
(0.548758 0.361673 0)
(0.527411 0.384535 0)
(0.503298 0.407709 0)
(0.473476 0.431605 0)
(0.437464 0.456866 0)
(0.393201 0.479133 0)
(0.341126 0.499336 0)
(0.280383 0.520169 0)
(0.212962 0.548956 0)
(0.133216 0.572008 0)
(0.0470932 0.597951 0)
(3 -2.36688e-16 0)
(3 -8.0985e-16 0)
(3 -8.19547e-16 0)
(3 -1.05667e-15 0)
(3 -9.71577e-16 0)
(3 8.50496e-17 0)
(3 1.63179e-16 0)
(3 1.83912e-15 0)
(3 -4.84403e-15 0)
(3 -3.35074e-15 0)
(3 -3.31758e-15 0)
(3 5.40057e-16 0)
(3 6.3349e-16 0)
(3 2.09953e-15 0)
(3 3.12839e-15 0)
(3 2.78478e-15 0)
(3 1.68082e-15 0)
(3 1.06764e-15 0)
(3 4.63064e-15 0)
(3 2.50062e-15 0)
(3 -3.76784e-11 0)
(1.95145 0.331302 0)
(0.838848 0.337259 0)
(0.730408 0.323228 0)
(0.693507 0.317353 0)
(0.660469 0.317531 0)
(0.629396 0.321904 0)
(0.600095 0.332623 0)
(0.572789 0.348693 0)
(0.548291 0.368957 0)
(0.526508 0.392257 0)
(0.50387 0.416869 0)
(0.477103 0.442659 0)
(0.444631 0.470007 0)
(0.403486 0.495347 0)
(0.353743 0.520076 0)
(0.293775 0.545922 0)
(0.225268 0.579024 0)
(0.141452 0.605244 0)
(0.049208 0.632105 0)
(3 -1.38515e-15 0)
(3 8.65077e-16 0)
(3 8.82238e-16 0)
(3 3.36408e-16 0)
(3 -1.67381e-15 0)
(3 3.18935e-15 0)
(3 2.12718e-15 0)
(3 2.95324e-15 0)
(3 -2.36726e-15 0)
(3 -3.26607e-15 0)
(3 -1.68568e-15 0)
(3 3.15554e-15 0)
(3 4.74999e-16 0)
(3 7.62476e-16 0)
(3 9.23901e-16 0)
(3 2.18501e-15 0)
(3 1.51776e-15 0)
(3 2.71976e-15 0)
(3 3.21108e-15 0)
(3 3.39955e-16 0)
(3 -2.76973e-11 0)
(2.07976 0.334051 0)
(0.855035 0.360019 0)
(0.728534 0.335464 0)
(0.693486 0.327377 0)
(0.66277 0.32776 0)
(0.63286 0.331624 0)
(0.603587 0.341347 0)
(0.5759 0.356808 0)
(0.550589 0.376882 0)
(0.528228 0.400396 0)
(0.505649 0.425593 0)
(0.480457 0.452486 0)
(0.451098 0.481896 0)
(0.413604 0.510966 0)
(0.366308 0.541034 0)
(0.307831 0.572786 0)
(0.238609 0.610769 0)
(0.150865 0.640506 0)
(0.0526644 0.668658 0)
(3 -2.49385e-16 0)
(3 -1.0492e-16 0)
(3 7.19361e-16 0)
(3 -9.54131e-16 0)
(3 -1.09713e-15 0)
(3 1.17757e-15 0)
(3 1.8873e-15 0)
(3 1.0058e-15 0)
(3 1.64027e-15 0)
(3 -5.12904e-16 0)
(3 -7.64949e-16 0)
(3 -2.35717e-15 0)
(3 -8.76152e-17 0)
(3 -1.74402e-15 0)
(3 -2.68437e-16 0)
(3 -1.21073e-16 0)
(3 1.57318e-15 0)
(3 8.16294e-16 0)
(3 4.69132e-17 0)
(3 2.25523e-15 0)
(3 -1.83939e-11 0)
(2.21081 0.334377 0)
(0.86865 0.386026 0)
(0.726205 0.347371 0)
(0.696391 0.336737 0)
(0.668339 0.337547 0)
(0.639675 0.340883 0)
(0.610353 0.349777 0)
(0.582134 0.364896 0)
(0.555693 0.385014 0)
(0.53136 0.408687 0)
(0.507604 0.43399 0)
(0.482634 0.461504 0)
(0.45597 0.493273 0)
(0.422645 0.526791 0)
(0.378701 0.562262 0)
(0.322924 0.599721 0)
(0.252617 0.643816 0)
(0.159758 0.678567 0)
(0.0551699 0.709113 0)
(3 8.30656e-16 0)
(3 2.72629e-16 0)
(3 -2.05315e-15 0)
(3 -2.88335e-15 0)
(3 6.94184e-16 0)
(3 -1.73654e-16 0)
(3 6.66949e-16 0)
(3 2.4002e-16 0)
(3 1.75443e-15 0)
(3 -1.34753e-15 0)
(3 -3.67028e-16 0)
(3 -3.56101e-15 0)
(3 -1.2546e-15 0)
(3 -1.699e-15 0)
(3 2.25662e-15 0)
(3 1.0548e-15 0)
(3 7.66071e-16 0)
(3 4.28798e-15 0)
(3 4.05771e-15 0)
(3 2.43296e-15 0)
(3 -8.98929e-12 0)
(2.34585 0.336449 0)
(0.883174 0.416304 0)
(0.73251 0.35851 0)
(0.705917 0.344666 0)
(0.678114 0.345729 0)
(0.648473 0.349617 0)
(0.617524 0.359147 0)
(0.587571 0.374554 0)
(0.559381 0.394392 0)
(0.533428 0.417154 0)
(0.509607 0.441982 0)
(0.4853 0.470035 0)
(0.460795 0.504326 0)
(0.430644 0.542829 0)
(0.390492 0.583963 0)
(0.337216 0.627101 0)
(0.267421 0.677767 0)
(0.171354 0.719407 0)
(0.0599115 0.75454 0)
(3 1.62462e-16 0)
(3 -9.03884e-17 0)
(3 5.04777e-16 0)
(3 1.10557e-15 0)
(3 -5.45375e-16 0)
(3 1.86072e-15 0)
(3 2.86042e-16 0)
(3 -1.25986e-16 0)
(3 6.74802e-16 0)
(3 -1.76913e-15 0)
(3 4.90719e-15 0)
(3 2.61e-15 0)
(3 -1.06569e-15 0)
(3 3.80758e-16 0)
(3 -5.64169e-16 0)
(3 6.07332e-16 0)
(3 2.18613e-15 0)
(3 6.43609e-16 0)
(3 3.92179e-15 0)
(3 2.33646e-15 0)
(3 -2.2643e-12 0)
(2.52673 0.33924 0)
(0.921842 0.443205 0)
(0.75769 0.365976 0)
(0.726873 0.352064 0)
(0.691034 0.355536 0)
(0.65516 0.360595 0)
(0.620904 0.370217 0)
(0.590292 0.385277 0)
(0.562276 0.40369 0)
(0.536329 0.425004 0)
(0.512846 0.449621 0)
(0.489339 0.478696 0)
(0.466367 0.515752 0)
(0.438538 0.559001 0)
(0.403019 0.605089 0)
(0.353018 0.653169 0)
(0.284286 0.711605 0)
(0.183898 0.764984 0)
(0.0638509 0.807398 0)
(3 -8.83308e-16 0)
(3 9.41836e-16 0)
(3 -1.47406e-15 0)
(3 -1.16197e-15 0)
(3 -1.71717e-16 0)
(3 -2.09562e-15 0)
(3 -7.44884e-16 0)
(3 4.9457e-16 0)
(3 -6.13276e-16 0)
(3 5.21768e-15 0)
(3 3.88648e-15 0)
(3 3.06718e-15 0)