/*--------------------------------*- C++ -*----------------------------------*\
  =========                 |
  \\      /  F ield         | OpenFOAM: The Open Source CFD Toolbox
   \\    /   O peration     | Website:  https://openfoam.org
    \\  /    A nd           | Version:  6.0
     \\/     M anipulation  |
\*---------------------------------------------------------------------------*/
FoamFile
{
    version     2.0;
    format      ascii;
    class       volScalarField;
    location    "2";
    object      p;
}
// * * * * * * * * * * * * * * * * * * * * * * * * * * * * * * * * * * * * * //

dimensions      [1 -1 -2 0 0 0 0];

internalField   nonuniform List<scalar> 
1200
(
1.00013
1.00067
1.00183
1.00438
1.01001
1.02252
1.05048
1.11349
1.25826
1.60452
2.50423
5.23595
13.7257
13.2096
11.9777
11.154
11.1319
11.2796
11.5
12.0414
1.00013
1.00067
1.00183
1.00437
1.01
1.02251
1.05046
1.11345
1.25816
1.60429
2.50367
5.23413
13.7166
13.1952
11.9578
11.1381
11.1287
11.2841
11.5034
12.0397
1.00013
1.00067
1.00183
1.00437
1.00999
1.02249
1.05041
1.11335
1.25795
1.60379
2.50243
5.22997
13.6944
13.1641
11.9162
11.1049
11.1131
11.2899
11.5037
12.0021
1.00013
1.00067
1.00182
1.00436
1.00998
1.02246
1.05035
1.1132
1.25761
1.60299
2.50038
5.22288
13.6567
13.1175
11.8583
11.0623
11.0833
11.2915
11.5005
11.9454
1.00013
1.00066
1.00182
1.00435
1.00996
1.02242
1.05025
1.11299
1.25712
1.60184
2.49736
5.21227
13.6021
13.0555
11.7874
11.0123
11.0446
11.2842
11.4959
11.8869
1.00013
1.00066
1.00182
1.00434
1.00994
1.02236
1.05012
1.1127
1.25646
1.60027
2.4932
5.19755
13.5291
12.978
11.7053
10.9552
10.998
11.2605
11.4948
11.8174
1.00013
1.00066
1.00181
1.00433
1.0099
1.02229
1.04996
1.11233
1.25561
1.59822
2.48772
5.17824
13.437
12.8849
11.6131
10.8921
10.9441
11.2195
11.4907
11.736
1.00013
1.00066
1.0018
1.00431
1.00986
1.0222
1.04975
1.11187
1.25454
1.59562
2.48077
5.1538
13.3249
12.7761
11.5123
10.8238
10.8846
11.171
11.4776
11.6433
1.00013
1.00066
1.00179
1.00429
1.00981
1.02209
1.0495
1.1113
1.25322
1.59242
2.47215
5.12373
13.1923
12.6513
11.4039
10.7511
10.8199
11.1149
11.4482
11.5417
1.00013
1.00065
1.00178
1.00426
1.00975
1.02195
1.0492
1.11061
1.25163
1.58854
2.46168
5.08749
13.0384
12.5104
11.2888
10.6745
10.7503
11.051
11.3948
11.4338
1.00013
1.00065
1.00177
1.00423
1.00968
1.02179
1.04884
1.10978
1.24971
1.58387
2.44911
5.04448
12.8626
12.3534
11.1679
10.594
10.6753
10.9768
11.3172
11.3182
1.00012
1.00064
1.00175
1.0042
1.0096
1.0216
1.0484
1.1088
1.24743
1.57833
2.43419
4.99406
12.6644
12.1798
11.0424
10.5107
10.5954
10.8922
11.2136
11.1957
1.00012
1.00063
1.00174
1.00415
1.0095
1.02137
1.04789
1.10764
1.24474
1.57179
2.4166
4.93531
12.4423
11.9908
10.9139
10.4249
10.5104
10.7949
11.0832
11.0591
1.00012
1.00063
1.00171
1.0041
1.00938
1.02111
1.04729
1.10628
1.24157
1.56408
2.39593
4.8672
12.1969
11.7853
10.7835
10.3384
10.4213
10.6848
10.9299
10.902
1.00012
1.00062
1.00169
1.00404
1.00924
1.02079
1.04658
1.10467
1.23784
1.555
2.37166
4.78837
11.9265
11.5625
10.6549
10.2526
10.3284
10.5587
10.7488
10.7127
1.00012
1.00061
1.00166
1.00397
1.00908
1.02042
1.04575
1.10277
1.23343
1.54431
2.34311
4.69709
11.629
11.3221
10.533
10.1702
10.2327
10.4154
10.5396
10.484
1.00012
1.00059
1.00162
1.00388
1.00888
1.01998
1.04476
1.10053
1.22823
1.53166
2.30945
4.59093
11.299
11.0656
10.4322
10.094
10.1335
10.2487
10.2957
10.1937
1.00011
1.00058
1.00158
1.00379
1.00866
1.01947
1.04359
1.09787
1.22204
1.51661
2.26942
4.46562
10.9245
10.8026
10.3704
10.0267
10.0276
10.0547
10.0199
9.81452
1.00011
1.00056
1.00154
1.00367
1.00839
1.01886
1.04222
1.09471
1.21467
1.49858
2.22117
4.31402
10.4765
10.5934
10.348
9.97604
9.89929
9.84155
9.69134
9.29552
1.00011
1.00054
1.00148
1.00354
1.00808
1.01816
1.04062
1.09102
1.20598
1.47715
2.16318
4.12912
9.89303
10.5248
10.3331
9.93725
9.75929
9.60124
9.28209
8.5792
1.00009
1.00049
1.00133
1.00317
1.00722
1.01617
1.03606
1.0805
1.18114
1.41569
1.99606
3.60421
8.26416
10.5586
10.3598
9.87912
9.39179
8.94763
8.10656
6.15376
1.00007
1.00037
1.00102
1.00241
1.00545
1.01209
1.0266
1.05834
1.12824
1.28467
1.6491
2.57949
5.06677
10.4193
10.255
9.75561
8.96167
8.24969
7.43429
5.75243
1.00005
1.00028
1.00076
1.00182
1.00413
1.00924
1.02052
1.04553
1.10144
1.22846
1.52752
2.28251
4.39397
9.89591
9.8931
9.5481
8.7099
7.83673
7.03584
5.7886
1.00004
1.00022
1.00061
1.00145
1.00332
1.00744
1.01659
1.03695
1.08259
1.18634
1.42949
2.03659
3.73078
8.48168
9.18229
9.02754
8.54333
7.57589
6.74411
5.76433
1.00003
1.00016
1.00044
1.00105
1.00239
1.00534
1.01185
1.02624
1.0582
1.12981
1.29351
1.68401
2.6992
5.42401
8.65179
8.54349
8.19013
7.43684
6.59883
5.69869
1.00002
1.0001
1.00028
1.00068
1.00154
1.00345
1.00764
1.01691
1.03743
1.08315
1.18635
1.42595
2.01426
3.56194
7.37344
7.84735
7.71553
7.33398
6.5691
5.6979
1.00001
1.00007
1.00018
1.00044
1.00099
1.0022
1.00488
1.01076
1.02373
1.05245
1.11653
1.26208
1.60514
2.47138
4.70047
7.29824
7.2628
7.0763
6.59712
5.73769
1.00001
1.00004
1.00011
1.00026
1.00058
1.0013
1.00289
1.00637
1.01407
1.03108
1.06887
1.15376
1.34889
1.81859
3.01619
5.98399
6.858
6.78123
6.5169
5.89847
1
1.00002
1.00006
1.00014
1.00031
1.00069
1.00153
1.00336
1.00739
1.01623
1.03569
1.07877
1.17525
1.39644
1.92468
3.22086
5.99288
6.38591
6.28972
5.94224
1
1.00001
1.00004
1.00008
1.00019
1.00042
1.00092
1.00202
1.00443
1.00971
1.02128
1.04672
1.10308
1.22977
1.52353
2.24463
4.03467
5.82714
5.82504
5.72923
1
1.00001
1.00002
1.00004
1.0001
1.00023
1.0005
1.00109
1.00238
1.00521
1.01142
1.02505
1.05514
1.12205
1.2734
1.62778
2.49046
4.54223
5.32975
5.28737
1
1
1.00001
1.00002
1.00005
1.00011
1.00023
1.00051
1.0011
1.00241
1.00525
1.01147
1.0251
1.0551
1.1216
1.27132
1.6166
2.43188
4.28195
4.81133
1
1
1
1.00001
1.00002
1.00005
1.0001
1.00022
1.00047
1.00102
1.00221
1.00479
1.01039
1.02255
1.04912
1.10756
1.23775
1.53277
2.219
3.76061
1
1
1
1
1.00001
1.00002
1.00004
1.00009
1.00019
1.00041
1.00085
1.00178
1.00372
1.0078
1.01636
1.03446
1.07302
1.15537
1.33254
1.70292
1
1
1
1
1
1.00001
1.00002
1.00005
1.0001
1.00021
1.00044
1.00095
1.00203
1.00433
1.00926
1.01985
1.0427
1.09222
1.20135
1.44468
1
1
1
1
1
1.00001
1.00001
1.00003
1.00006
1.00012
1.00026
1.00056
1.0012
1.00256
1.00544
1.01151
1.02426
1.05091
1.1064
1.22201
1
1
1
1
1
1
1.00001
1.00001
1.00003
1.00007
1.00015
1.00033
1.00073
1.00158
1.00343
1.00747
1.01627
1.03551
1.0779
1.17241
1
1
1
1
1
1
1.00001
1.00001
1.00003
1.00006
1.00012
1.00027
1.0006
1.00133
1.00292
1.00643
1.01414
1.03121
1.06921
1.15488
1
1
1
1
1
1
1
1.00001
1.00002
1.00004
1.0001
1.00021
1.00046
1.00102
1.00223
1.00491
1.01082
1.02387
1.0528
1.11762
1
1
1
1
1
1
1
1.00001
1.00002
1.00004
1.0001
1.00021
1.00047
1.00104
1.00229
1.00508
1.01126
1.02498
1.0556
1.12443
2.75266
1.83837
1.77302
1.82066
1.95386
2.06908
2.09827
2.14673
2.24625
2.4502
2.86412
3.69858
5.42005
5.33431
5.08248
4.91492
4.61981
4.28788
4.07675
3.83871
3.13554
2.23334
2.20794
2.14044
1.99774
2.00902
2.04471
2.12197
2.27398
2.54349
2.98336
3.69271
5.17721
5.13582
5.01499
4.7922
4.59458
4.24852
4.01164
3.82344
3.97261
3.00971
2.34478
2.08884
1.9787
1.99193
2.03607
2.13166
2.32105
2.58592
3.03882
3.65316
4.9348
4.97407
4.94892
4.85403
4.64283
4.26331
4.04827
3.92996
4.26483
3.18399
2.5318
2.19959
2.11243
2.12122
2.14644
2.20594
2.33133
2.58365
3.05663
3.53991
4.53351
4.75569
4.7382
4.66963
4.52532
4.20198
3.96478
3.85827
4.38016
3.42727
2.78127
2.41351
2.20146
2.20418
2.21969
2.26626
2.37075
2.58543
3.01443
3.27215
3.62554
4.06472
4.54583
4.50304
4.355
4.12504
3.95162
3.83798
4.46344
3.63348
2.99303
2.58763
2.318
2.32082
2.33674
2.38143
2.48039
2.68241
2.96396
3.06692
3.19091
3.33759
3.54142
3.77511
3.97034
3.96711
3.9321
3.79296
4.54336
3.79296
3.17806
2.77025
2.4639
2.46512
2.47634
2.51095
2.59261
2.76256
2.93639
2.96161
2.9896
3.00567
3.04558
3.14792
3.36688
3.57623
3.70348
3.67557
4.66144
3.93311
3.34128
2.94862
2.61152
2.61098
2.61879
2.64596
2.7137
2.85446
2.92602
2.91622
2.87811
2.79204
2.63941
2.6625
2.73735
2.89781
3.28145
3.79778
4.7851
4.06198
3.48305
3.12348
2.76865
2.76757
2.77503
2.80045
2.86349
2.93899
2.93308
2.90851
2.81332
2.61506
2.35133
2.25144
2.17649
2.16372
2.18086
2.21416
4.89596
4.16803
3.61582
3.30301
2.95007
2.95018
2.95789
2.9852
3.05105
3.05917
3.06703
2.96841
2.73654
2.41082
2.19543
2.06166
1.92263
1.85594
1.78358
1.74867
4.86797
4.32112
3.78419
3.50441
3.17209
3.17212
3.18022
3.20809
3.27482
3.29972
3.18726
2.95647
2.59597
2.29719
2.07968
1.93772
1.79489
1.71524
1.61141
1.57016
4.76745
4.5452
4.08871
3.73184
3.45865
3.46462
3.48532
3.53997
3.52637
3.43263
3.19179
2.83529
2.51669
2.2225
2.00097
1.84522
1.69526
1.61082
1.50519
1.4595
4.57412
4.52945
4.36973
4.03571
3.91703
3.92174
3.92127
3.88987
3.75481
3.46437
3.14092
2.77071
2.47732
2.17422
1.95146
1.7817
1.62613
1.53568
1.42509
1.37354
4.16096
4.51532
4.46973
4.34546
4.32064
4.30518
4.24883
4.10523
3.83231
3.46
3.10829
2.74206
2.45752
2.14046
1.91515
1.73668
1.5759
1.48104
1.36915
1.31155
3.27129
4.54246
4.58698
4.64504
4.63841
4.59114
4.47468
4.28035
3.8953
3.48232
3.09376
2.73136
2.44886
2.12304
1.89218
1.70252
1.53559
1.43892
1.32646
1.2647
1.98022
4.54128
4.84433
4.94938
4.93796
4.89982
4.80298
4.5987
4.04847
3.51114
3.09255
2.72946
2.44657
2.11568
1.88085
1.68505
1.51168
1.40976
1.2985
1.22966
1.84517
4.38128
5.40062
5.51014
5.50665
5.46385
5.29801
4.891
4.14272
3.54499
3.1005
2.73902
2.44847
2.11323
1.87581
1.67688
1.50061
1.3955
1.28519
1.20229
1.75351
4.00187
6.63419
6.60429
6.54068
6.33149
5.83042
4.94666
4.20001
3.57126
3.1084
2.74432
2.44939
2.11264
1.87457
1.67431
1.49728
1.3901
1.28045
1.18945
1.54707
3.41271
7.41338
7.50553
7.42457
7.1149
6.31137
5.03782
4.27126
3.62328
3.13956
2.76558
2.46716
2.12887
1.88723
1.67986
1.50184
1.38962
1.28036
1.18581
1.58702
3.68552
8.28382
8.2523
8.04839
7.51238
6.52755
5.19145
4.36616
3.69486
3.19134
2.80546
2.50178
2.16336
1.91991
1.71126
1.53176
1.41484
1.30266
1.20228
)
;

boundaryField
{
    inlet
    {
        type            fixedValue;
        value           uniform 1;
    }
    outlet
    {
        type            waveTransmissive;
        gamma           1.4;
        fieldInf        1;
        lInf            3;
        value           nonuniform List<scalar> 
20
(
3.81652
3.78088
3.87154
3.83351
3.81022
3.72528
3.52794
3.48651
2.07055
1.6945
1.53918
1.43519
1.35486
1.29696
1.25387
1.22139
1.19608
1.18382
1.18012
1.19594
)
;
    }
    top
    {
        type            symmetryPlane;
    }
    bottom
    {
        type            symmetryPlane;
    }
    step
    {
        type            zeroGradient;
    }
    defaultFaces
    {
        type            empty;
    }
}


// ************************************************************************* //
