/*--------------------------------*- C++ -*----------------------------------*\
  =========                 |
  \\      /  F ield         | OpenFOAM: The Open Source CFD Toolbox
   \\    /   O peration     | Website:  https://openfoam.org
    \\  /    A nd           | Version:  6.0
     \\/     M anipulation  |
\*---------------------------------------------------------------------------*/
FoamFile
{
    version     2.0;
    format      ascii;
    class       surfaceScalarField;
    location    "2";
    object      phi;
}
// * * * * * * * * * * * * * * * * * * * * * * * * * * * * * * * * * * * * * //

dimensions      [1 0 -1 0 0 0 0];

internalField   nonuniform List<scalar> 
2320
(
0.0041999
1.62836e-10
0.0041999
9.99404e-10
0.00419991
3.27915e-09
0.00419993
8.7168e-09
0.00419996
2.11434e-08
0.00420005
4.91921e-08
0.00420023
1.12796e-07
0.00420061
2.60395e-07
0.00420126
6.19942e-07
0.00420213
1.56597e-06
0.00419996
4.26226e-06
0.00420054
1.58878e-05
0.00414254
0.0001841
0.00381898
0.000403507
0.00320579
0.000639518
0.00242065
0.000799212
0.00168236
0.000760944
0.00138846
0.000268543
0.000611656
0.000757299
0.000665629
0.0041999
3.35493e-10
0.0041999
2.05812e-09
0.00419991
6.753e-09
0.00419993
1.79513e-08
0.00419996
4.35448e-08
0.00420004
1.01333e-07
0.00420022
2.32505e-07
0.00420057
5.37663e-07
0.00420117
1.28547e-06
0.00420187
3.28167e-06
0.00419903
9.16793e-06
0.00419598
3.53243e-05
0.00408094
0.000424995
0.00373494
0.00082797
0.00316044
0.00124023
0.00250762
0.00146522
0.0018226
0.00146773
0.00131487
0.000770401
0.00072629
0.00131557
0.00136733
0.0041999
5.27054e-10
0.0041999
3.23274e-09
0.00419991
1.06069e-08
0.00419992
2.81995e-08
0.00419996
6.84268e-08
0.00420003
1.59352e-07
0.00420019
3.66143e-07
0.0042005
8.48833e-07
0.004201
2.03853e-06
0.00420141
5.24784e-06
0.00419768
1.49152e-05
0.00419029
5.88759e-05
0.0040383
0.0007022
0.00366883
0.00127373
0.00312495
0.00181055
0.00253927
0.00206274
0.00186346
0.00216476
0.00117157
0.00146322
0.000544117
0.00190001
0.00189919
0.0041999
7.42915e-10
0.0041999
4.55616e-09
0.00419991
1.49498e-08
0.00419992
3.97512e-08
0.00419995
9.64912e-08
0.00420002
2.24886e-07
0.00420015
5.17481e-07
0.00420041
1.20262e-06
0.00420078
2.89949e-06
0.00420085
7.51295e-06
0.0041961
2.16118e-05
0.00418439
8.64233e-05
0.00400607
0.00100514
0.00361811
0.00173566
0.00309549
0.00235901
0.00252893
0.00264066
0.00190313
0.00280847
0.00108184
0.00228776
0.000525471
0.00238634
0.00242023
0.0041999
9.8476e-10
0.0041999
6.04096e-09
0.00419991
1.98318e-08
0.00419992
5.27596e-08
0.00419995
1.28154e-07
0.0042
2.98986e-07
0.00420011
6.89063e-07
0.00420031
1.60497e-06
0.00420054
3.88211e-06
0.00420024
1.01086e-05
0.00419444
2.93271e-05
0.00417845
0.000117904
0.00398092
0.00132741
0.00357947
0.00220948
0.00307175
0.00288999
0.00252933
0.00319361
0.00192837
0.00342535
0.00108516
0.00313447
0.000562263
0.00283088
0.00298898
0.0041999
1.25473e-09
0.0041999
7.70258e-09
0.00419991
2.53117e-08
0.00419992
6.74029e-08
0.00419994
1.63884e-07
0.00419998
3.82784e-07
0.00420007
8.83451e-07
0.00420021
2.06151e-06
0.00420029
4.99862e-06
0.00419961
1.30613e-05
0.00419275
3.81132e-05
0.0041726
0.000153191
0.00396104
0.00166371
0.00355003
0.00269153
0.00305491
0.00340558
0.00253537
0.0037217
0.00196133
0.0040125
0.00120687
0.00389132
0.00059581
0.00336117
0.00360072
0.0041999
1.55847e-09
0.0041999
9.57358e-09
0.0041999
3.14883e-08
0.00419991
8.3926e-08
0.00419993
2.04237e-07
0.00419997
4.77473e-07
0.00420003
1.10315e-06
0.00420011
2.57739e-06
0.00420005
6.25957e-06
0.00419898
1.63926e-05
0.00419103
4.80127e-05
0.00416679
0.000192227
0.00394488
0.00201028
0.00352798
0.00317887
0.00304321
0.00390771
0.0025451
0.0042259
0.0020065
0.00456112
0.00131503
0.00458417
0.000634972
0.0039607
0.00425824
0.0041999
1.90155e-09
0.0041999
1.16859e-08
0.0041999
3.84586e-08
0.00419991
1.02569e-07
0.00419992
2.49761e-07
0.00419995
5.84274e-07
0.00419998
1.35086e-06
0.00420001
3.15871e-06
0.0041998
7.67906e-06
0.00419834
2.01365e-05
0.00418928
5.91077e-05
0.00416098
0.000235067
0.00393129
0.00236443
0.00351078
0.00366991
0.00303555
0.00439727
0.0025551
0.00471008
0.00204298
0.0050811
0.00139526
0.00523152
0.000674351
0.00460348
0.00495787
0.0041999
2.28925e-09
0.0041999
1.40727e-08
0.0041999
4.63336e-08
0.00419991
1.23629e-07
0.00419992
3.01176e-07
0.00419993
7.04854e-07
0.00419994
1.63034e-06
0.0041999
3.81389e-06
0.00419954
9.2762e-06
0.00419768
2.43387e-05
0.00418744
7.15129e-05
0.00415505
0.000281903
0.00391926
0.00272423
0.00349597
0.00416369
0.00303053
0.00487498
0.00256537
0.00517615
0.00207423
0.00557757
0.00147056
0.00583484
0.000680133
0.00532277
0.00566329
0.0041999
2.72915e-09
0.0041999
1.67801e-08
0.0041999
5.52632e-08
0.0041999
1.475e-07
0.00419991
3.59435e-07
0.00419991
8.41427e-07
0.00419989
1.94671e-06
0.00419979
4.55486e-06
0.00419927
1.10794e-05
0.00419697
2.90694e-05
0.00418543
8.54097e-05
0.00414878
0.000333082
0.00390846
0.00308828
0.00348165
0.00465831
0.00302693
0.00534213
0.00257477
0.00562813
0.00210162
0.00605518
0.00151237
0.00642364
0.000714373
0.00605584
0.00639909
0.0041999
3.23113e-09
0.0041999
1.98691e-08
0.0041999
6.54482e-08
0.0041999
1.74721e-07
0.0041999
4.25857e-07
0.00419989
9.971e-07
0.00419984
2.30715e-06
0.00419967
5.39822e-06
0.00419898
1.31278e-05
0.00419618
3.44244e-05
0.00418316
0.00010105
0.00414201
0.000389049
0.00389738
0.00345584
0.00346698
0.00515588
0.00302531
0.00579727
0.00258641
0.00606517
0.00212825
0.00651586
0.0015638
0.00698731
0.000726778
0.00683711
0.00713594
0.0041999
3.80854e-09
0.0041999
2.34212e-08
0.0041999
7.71561e-08
0.0041999
2.06006e-07
0.00419989
5.02194e-07
0.00419986
1.176e-06
0.00419979
2.72121e-06
0.00419953
6.366e-06
0.00419864
1.54733e-05
0.00419525
4.05338e-05
0.00418045
0.000118798
0.00413378
0.000451009
0.00388451
0.00382802
0.00345379
0.00565226
0.0030231
0.00623876
0.00259956
0.00648489
0.00215819
0.00695953
0.00159629
0.0075513
0.000772457
0.00761506
0.00791606
0.0041999
4.47837e-09
0.0041999
2.75402e-08
0.0041999
9.07265e-08
0.00419989
2.4226e-07
0.00419988
5.90649e-07
0.00419984
1.38328e-06
0.00419972
3.20084e-06
0.00419937
7.48614e-06
0.00419822
1.81831e-05
0.00419413
4.75688e-05
0.00417717
0.000139122
0.00412432
0.000520038
0.00386627
0.00420663
0.00343975
0.0061451
0.00302238
0.00666792
0.00261735
0.00688808
0.00219424
0.00738454
0.00164798
0.00809855
0.000813252
0.00840752
0.00873033
0.0041999
5.26093e-09
0.0041999
3.23499e-08
0.0041999
1.06564e-07
0.00419989
2.84563e-07
0.00419987
6.93875e-07
0.0041998
1.62526e-06
0.00419964
3.76082e-06
0.00419917
8.79337e-06
0.00419772
2.13404e-05
0.00419278
5.57359e-05
0.00417314
0.000162589
0.00411371
0.000597277
0.00384067
0.00459246
0.00342504
0.00663736
0.00302477
0.00707856
0.00264075
0.00726694
0.0022374
0.00778861
0.00169229
0.00864589
0.000865739
0.00919395
0.00959182
0.0041999
6.17866e-09
0.0041999
3.79867e-08
0.0041999
1.25117e-07
0.00419988
3.34128e-07
0.00419985
8.14924e-07
0.00419976
1.90936e-06
0.00419954
4.41926e-06
0.00419893
1.03322e-05
0.0041971
2.506e-05
0.00419109
6.5342e-05
0.00416798
0.000190189
0.0040995
0.000685469
0.00380816
0.00499001
0.00339538
0.00713043
0.00302469
0.00746129
0.00267466
0.00761267
0.00229639
0.00816779
0.00176008
0.0091847
0.000926651
0.00998734
0.0105153
0.0041999
7.25045e-09
0.0041999
4.4565e-08
0.00419989
1.46762e-07
0.00419988
3.92004e-07
0.00419983
9.56532e-07
0.00419972
2.24262e-06
0.00419943
5.19406e-06
0.00419865
1.21483e-05
0.00419638
2.94572e-05
0.00418908
7.67019e-05
0.00416231
0.00022262
0.00407902
0.000787241
0.00376157
0.0054206
0.00334443
0.00762735
0.00303154
0.00778692
0.00272207
0.00791687
0.00236822
0.0085206
0.00182823
0.00972644
0.0010068
0.0107677
0.0115183
0.0041999
8.48232e-09
0.0041999
5.21208e-08
0.00419989
1.71633e-07
0.00419987
4.58645e-07
0.00419982
1.12022e-06
0.00419968
2.62999e-06
0.00419932
6.10064e-06
0.00419836
1.4289e-05
0.00419559
3.46759e-05
0.00418672
9.02802e-05
0.0041549
0.000261585
0.00405179
0.000909918
0.00367712
0.00591651
0.00326424
0.00812089
0.00304415
0.00801722
0.00279644
0.00815962
0.00246149
0.00885491
0.00192558
0.0102652
0.00112581
0.0115274
0.0126385
0.0041999
9.84822e-09
0.0041999
6.04924e-08
0.00419989
1.99209e-07
0.00419987
5.32778e-07
0.00419981
1.30336e-06
0.00419966
3.06679e-06
0.00419926
7.13297e-06
0.00419817
1.67535e-05
0.00419496
4.07599e-05
0.00418454
0.000106326
0.00414626
0.000308774
0.00401818
0.00106316
0.00351898
0.00654612
0.00320085
0.00851462
0.00307566
0.00814391
0.00291621
0.0083104
0.00255343
0.00921343
0.00207225
0.0107473
0.00126039
0.0122989
0.0138935
0.0041999
1.12577e-08
0.0041999
6.91367e-08
0.0041999
2.27726e-07
0.00419988
6.09676e-07
0.00419983
1.49431e-06
0.00419971
3.52562e-06
0.00419935
8.22748e-06
0.00419834
1.93966e-05
0.00419521
4.7366e-05
0.00418434
0.000124079
0.00414205
0.000362702
0.00398843
0.00124663
0.00323583
0.00746078
0.00331078
0.00846159
0.00311517
0.00834263
0.00298095
0.00843599
0.00269899
0.00949139
0.00223113
0.0112169
0.00136448
0.0131283
0.0152478
0.0041999
1.26445e-08
0.0041999
7.74117e-08
0.0041999
2.54398e-07
0.0041999
6.8081e-07
0.0041999
1.66988e-06
0.00419987
3.94537e-06
0.00419976
9.22348e-06
0.00419934
2.17859e-05
0.00419761
5.3316e-05
0.00419008
0.000140137
0.00415305
0.000413885
0.00402317
0.00141633
0.00320896
0.00847422
0.00323789
0.008443
0.00316917
0.00840845
0.00306823
0.00852109
0.00281498
0.00973488
0.00235644
0.011674
0.00148702
0.0139617
0.01673
0.0167996
1.55021e-08
0.0167996
9.47506e-08
0.0167998
3.11138e-07
0.0168
8.33485e-07
0.0168006
2.04752e-06
0.016802
4.84445e-06
0.0168051
1.13293e-05
0.016812
2.66914e-05
0.0168264
6.47364e-05
0.0168522
0.000167209
0.0168656
0.000491817
0.0168918
0.00160836
0.0182961
0.00799306
0.01696
0.00981142
0.0153439
0.0100266
0.0143749
0.00937936
0.0140563
0.0100238
0.0144739
0.0113188
0.0156361
0.0126528
0.0114859
0.0207962
0.0167996
1.49503e-08
0.0167997
9.02027e-08
0.0168001
2.91857e-07
0.016801
7.67669e-07
0.0168034
1.84077e-06
0.0168093
4.21996e-06
0.0168241
9.47566e-06
0.0168611
2.11723e-05
0.0169513
4.78597e-05
0.0171596
0.000112269
0.0176033
0.000285707
0.0184176
0.000993667
0.0254544
0.00203872
0.020993
0.0145084
0.0183774
0.0129838
0.0170575
0.0101094
0.0168607
0.0100501
0.0176512
0.0104549
0.0190987
0.0111641
0.0100787
0.0204528
0.0167996
8.50664e-09
0.0167997
5.40312e-08
0.0167999
1.82639e-07
0.0168004
4.91637e-07
0.0168016
1.19444e-06
0.0168044
2.76092e-06
0.0168105
6.23609e-06
0.0168241
1.39979e-05
0.016854
3.17271e-05
0.0169197
7.42553e-05
0.0170621
0.000186602
0.0176306
0.000533272
0.018507
0.00157694
0.020311
0.0135998
0.0227395
0.0111213
0.0198904
0.0128554
0.0192678
0.0102868
0.0195541
0.010078
0.0205377
0.0101444
0.00980617
0.0207849
0.0167996
8.71582e-09
0.0167996
5.35904e-08
0.0167997
1.76604e-07
0.0167998
4.71864e-07
0.0168001
1.15004e-06
0.0168007
2.68477e-06
0.016802
6.15189e-06
0.0168045
1.40489e-05
0.0168091
3.24378e-05
0.0168163
7.7323e-05
0.0168227
0.000197462
0.0167906
0.000582024
0.0164368
0.00201389
0.020007
0.0103588
0.0205494
0.0104566
0.0221618
0.0111885
0.0207448
0.0116297
0.0206142
0.0102271
0.0210378
0.00974676
0.00924244
0.0216662
0.0167996
8.55509e-09
0.0167996
5.18167e-08
0.0167997
1.6844e-07
0.0167999
4.45903e-07
0.0168004
1.07846e-06
0.0168015
2.49837e-06
0.016804
5.67254e-06
0.0168099
1.27907e-05
0.0168239
2.89452e-05
0.0168574
6.66594e-05
0.0169416
0.000160325
0.0171764
0.000427057
0.0177611
0.00154297
0.0249861
0.0036378
0.0224901
0.0128295
0.0218934
0.0116781
0.0219632
0.0116085
0.0216094
0.0107606
0.0215857
0.00983822
0.00881065
0.0220482
0.0167996
5.4577e-09
0.0167997
3.40375e-08
0.0167997
1.13443e-07
0.0168
3.04089e-07
0.0168005
7.39821e-07
0.0168017
1.71751e-06
0.0168043
3.89761e-06
0.0168103
8.75938e-06
0.0168238
1.96651e-05
0.016855
4.45011e-05
0.016931
0.000103035
0.0171381
0.000252209
0.0180091
0.000732909
0.0197046
0.00207303
0.02247
0.0102759
0.0232667
0.0108615
0.0233236
0.0115466
0.0221896
0.0120015
0.0221622
0.00987397
0.00856772
0.0223518
0.0167996
4.14088e-09
0.0167996
2.54039e-08
0.0167997
8.3456e-08
0.0167999
2.21791e-07
0.0168002
5.3633e-07
0.0168011
1.23864e-06
0.016803
2.79605e-06
0.0168072
6.24526e-06
0.0168169
1.39084e-05
0.0168387
3.10999e-05
0.0168889
7.05708e-05
0.0170119
0.000166173
0.0173748
0.000432169
0.0181062
0.0015097
0.0258302
0.00328233
0.0238575
0.0127902
0.0241487
0.0112608
0.0247978
0.0113855
0.0229217
0.0117692
0.00856167
0.0228369
0.0167996
2.68451e-09
0.0167996
1.65103e-08
0.0167997
5.43843e-08
0.0167998
1.44938e-07
0.0168
3.51558e-07
0.0168005
8.14531e-07
0.0168017
1.84446e-06
0.0168044
4.13004e-06
0.0168104
9.20362e-06
0.0168239
2.05022e-05
0.0168547
4.58804e-05
0.0169294
0.000104144
0.0171362
0.000246298
0.0179911
0.000693431
0.0190505
0.00230712
0.0248381
0.00723279
0.0254618
0.0106483
0.0257075
0.0111065
0.0254646
0.0119597
0.00998433
0.023909
0.0167996
1.19389e-09
0.0167996
7.66576e-09
0.0167997
2.61727e-08
0.0167997
7.09662e-08
0.0167999
1.73419e-07
0.0168004
4.02525e-07
0.0168014
9.10042e-07
0.0168037
2.03008e-06
0.0168089
4.49989e-06
0.0168204
9.95416e-06
0.0168463
2.20555e-05
0.0169055
4.91965e-05
0.0170483
0.000111682
0.0174837
0.00026788
0.0190166
0.000801351
0.0243076
0.00194634
0.0254033
0.00987316
0.026721
0.00987599
0.0279921
0.0107776
0.0132093
0.024797
0.0167996
9.28214e-10
0.0167996
5.68414e-09
0.0167997
1.86542e-08
0.0167997
4.95219e-08
0.0167998
1.19462e-07
0.0168
2.74749e-07
0.0168006
6.16552e-07
0.0168018
1.36624e-06
0.0168043
3.00908e-06
0.0168099
6.61274e-06
0.0168223
1.4546e-05
0.01685
3.21627e-05
0.0169124
7.20878e-05
0.0170597
0.0001672
0.0175211
0.000429749
0.0181137
0.00146427
0.0257718
0.00320732
0.025636
0.0102206
0.0267714
0.00979422
0.010536
0.0295463
0.0167996
5.44513e-10
0.0167996
3.37716e-09
0.0167996
1.12002e-08
0.0167997
2.99113e-08
0.0167997
7.24753e-08
0.0167999
1.67371e-07
0.0168003
3.7713e-07
0.016801
8.39063e-07
0.0168026
1.85476e-06
0.0168062
4.08718e-06
0.0168137
8.99632e-06
0.0168303
1.9811e-05
0.0168675
4.3751e-05
0.0169557
9.74547e-05
0.0171984
0.000223237
0.0181111
0.000592332
0.0196276
0.00189598
0.0261614
0.00412017
0.0270589
0.00897856
0.00960432
0.0280292
0.0167996
2.5809e-10
0.0167996
1.62737e-09
0.0167996
5.47197e-09
0.0167997
1.47266e-08
0.0167997
3.58576e-08
0.0167998
8.30748e-08
0.0168
1.87565e-07
0.0168005
4.1774e-07
0.0168016
9.23684e-07
0.016804
2.03477e-06
0.016809
4.47428e-06
0.0168199
9.8319e-06
0.0168434
2.16064e-05
0.0168958
4.75341e-05
0.0170194
0.000104999
0.0173767
0.000238305
0.0186904
0.000622915
0.0210407
0.00180257
0.0263395
0.00379534
0.00917995
0.0267204
0.0167996
1.24014e-10
0.0167996
7.81537e-10
0.0167996
2.62765e-09
0.0167996
7.05646e-09
0.0167997
1.71082e-08
0.0167997
3.94066e-08
0.0167999
8.83841e-08
0.0168001
1.95509e-07
0.0168007
4.29466e-07
0.016802
9.40356e-07
0.0168047
2.05665e-06
0.0168105
4.49803e-06
0.0168229
9.84227e-06
0.0168496
2.15489e-05
0.0169074
4.71969e-05
0.0170388
0.000103573
0.0174131
0.000232717
0.0185949
0.000591349
0.0206323
0.00157115
0.00300859
0.0267632
0.0167996
6.21915e-11
0.0167996
3.89004e-10
0.0167996
1.29789e-09
0.0167996
3.45081e-09
0.0167997
8.24743e-09
0.0167997
1.86428e-08
0.0167998
4.08676e-08
0.0168
8.80417e-08
0.0168004
1.87746e-07
0.0168012
3.97844e-07
0.0168031
8.39489e-07
0.0168073
1.76592e-06
0.0168161
3.7063e-06
0.0168345
7.76796e-06
0.0168725
1.62849e-05
0.0169511
3.42518e-05
0.0171163
7.30705e-05
0.0175391
0.000164482
0.0185424
0.000467373
0.000968333
0.020577
0.0167996
2.17447e-11
0.0167996
1.42772e-10
0.0167996
4.95256e-10
0.0167996
1.345e-09
0.0167996
3.25703e-09
0.0167997
7.42913e-09
0.0167997
1.63957e-08
0.0167998
3.55125e-08
0.0167999
7.60868e-08
0.0168003
1.61975e-07
0.0168011
3.43501e-07
0.0168027
7.26851e-07
0.0168061
1.5364e-06
0.0168131
3.24761e-06
0.0168276
6.87373e-06
0.0168573
1.45952e-05
0.0169191
3.12144e-05
0.0170555
6.76435e-05
0.0174301
0.000155469
0.000391054
0.0181289
0.0167996
1.20341e-11
0.0167996
7.5239e-11
0.0167996
2.51095e-10
0.0167996
6.72656e-10
0.0167996
1.62809e-09
0.0167996
3.73644e-09
0.0167997
8.32041e-09
0.0167997
1.81952e-08
0.0167998
3.93357e-08
0.0167999
8.43965e-08
0.0168003
1.80124e-07
0.0168011
3.82918e-07
0.0168028
8.11377e-07
0.0168067
1.714e-06
0.0168154
3.61003e-06
0.0168351
7.58013e-06
0.0168804
1.58864e-05
0.0169812
3.32943e-05
0.0172461
7.00206e-05
0.000159267
0.0176514
0.0167996
5.09197e-12
0.0167996
3.24862e-11
0.0167996
1.10124e-10
0.0167996
2.93638e-10
0.0167996
6.9907e-10
0.0167996
1.56956e-09
0.0167996
3.41537e-09
0.0167996
7.30755e-09
0.0167997
1.5491e-08
0.0167997
3.26596e-08
0.0167998
6.86003e-08
0.0168001
1.4367e-07
0.0168007
3.00164e-07
0.016802
6.26008e-07
0.0168049
1.3044e-06
0.0168112
2.71911e-06
0.0168245
5.67975e-06
0.0168525
1.19363e-05
0.0169116
2.54091e-05
5.6245e-05
0.0170258
0.0167996
2.9904e-12
0.0167996
1.85439e-11
0.0167996
6.1106e-11
0.0167996
1.59352e-10
0.0167996
3.71921e-10
0.0167996
8.2117e-10
0.0167996
1.767e-09
0.0167996
3.77062e-09
0.0167996
8.06065e-09
0.0167997
1.7353e-08
0.0167997
3.76787e-08
0.0167998
8.2424e-08
0.0167999
1.81173e-07
0.0168004
3.98917e-07
0.0168015
8.77728e-07
0.016804
1.92822e-06
0.0168089
4.23455e-06
0.0168179
9.3356e-06
0.0168342
2.08227e-05
4.82799e-05
0.0168548
0.0167996
1.22143e-12
0.0167996
7.6947e-12
0.0167996
2.56552e-11
0.0167996
6.80405e-11
0.0167996
1.6218e-10
0.0167996
3.64616e-10
0.0167996
7.89371e-10
0.0167996
1.66033e-09
0.0167997
3.40584e-09
0.0167997
6.8264e-09
0.0167998
1.33892e-08
0.0167999
2.57448e-08
0.0168002
4.86338e-08
0.0168007
9.0449e-08
0.0168018
1.6576e-07
0.0168039
2.98895e-07
0.0168087
5.26936e-07
0.0168194
8.99473e-07
0.0168419
1.45597e-06
2.22074e-06
0.0168897
0.0167996
0.0167996
0.0167996
0.0167996
0.0167996
0.0167996
0.0167996
0.0167996
0.0167996
0.0167996
0.0167997
0.0167997
0.0167998
0.0168
0.0168004
0.0168013
0.0168031
0.016807
0.0168156
0.0168367
0.0105774
0.0100744
0.00596647
0.00462558
0.00324806
0.00251074
0.00318653
-2.29731e-05
0.00694671
-0.00364544
0.00774493
-0.000375467
0.00804688
-5.26789e-05
0.00809656
-0.000106145
0.00843684
-0.000518101
0.00941991
-0.0013834
0.0130141
-0.00441699
0.0168504
-0.00517414
0.0151748
-0.00119728
0.0111196
0.00219316
0.0103953
0.000666242
0.0107316
0.000249389
0.0107723
-0.000353707
0.0104847
8.45894e-05
0.0103038
-1.48054e-05
0.00141186
0.0111942
0.0191022
0.00811109
0.00753116
0.0105112
6.16611e-05
0.00994187
0.000413312
0.00710675
-0.00108064
0.00727398
-0.000387068
0.00850998
-0.000709385
0.00984589
-0.001365
0.0109909
-0.00211048
0.0118561
-0.00340734
0.0139253
-0.00742448
0.0148052
-0.00736435
0.0159919
-0.00363574
0.0167025
0.00106901
0.015827
0.00179895
0.0156949
0.000577673
0.0152461
0.000430435
0.0144742
0.000995308
0.0127424
0.00139544
0.00141249
0.016535
0.0231162
0.0145207
0.00941581
0.0111273
0.00332266
0.0100063
0.00130421
0.00818881
0.000413445
0.00807479
-0.000353488
0.00965379
-0.00178335
0.011298
-0.00282379
0.0127353
-0.00376753
0.0146498
-0.00542569
0.0160889
-0.00902655
0.0154626
-0.00788076
0.0163115
-0.00439313
0.0195106
-0.00209266
0.0213769
0.000117633
0.0208271
0.00133056
0.0193283
0.00233803
0.0180195
0.00304797
0.0169289
0.00265605
0.00220651
0.0197195
0.025121
0.0158533
0.0131954
0.0127999
0.00620343
0.0111299
0.00259279
0.0097189
0.00134745
0.00966912
-0.000547422
0.0102387
-0.00203386
0.0112616
-0.00358215
0.0128056
-0.00516916
0.0151968
-0.00766293
0.0160255
-0.00983563
0.0162125
-0.00964599
0.0176074
-0.00780758
0.0208113
-0.00531218
0.0230187
-0.00190166
0.0228926
0.00155538
0.0215385
0.00356345
0.0204421
0.00411439
0.0194079
0.00453576
0.00382564
0.0207602
0.0263336
0.0174903
0.0163025
0.0146458
0.00886715
0.0125577
0.00426635
0.0112664
0.00211689
0.0103137
0.00010791
0.0101514
-0.00189929
0.010984
-0.00403412
0.0124734
-0.00637344
0.0145677
-0.00944134
0.015431
-0.0109315
0.0161249
-0.0108901
0.0171312
-0.0108353
0.0184148
-0.00949247
0.0211675
-0.00690919
0.0229276
-0.00222292
0.0230934
0.00308595
0.0220258
0.00686122
0.0216655
0.00704231
0.00656734
0.0213216
0.0272987
0.0188407
0.0187126
0.0161263
0.0114054
0.0137789
0.00630534
0.0120773
0.00320533
0.0110979
0.000644226
0.0109761
-0.00187078
0.0117368
-0.00448247
0.0131938
-0.00749096
0.0148357
-0.0106491
0.0154419
-0.0116778
0.0155439
-0.0117385
0.01598
-0.0124482
0.0165489
-0.011369
0.0172514
-0.00906965
0.0182867
-0.00554671
0.0204788
-0.000721351
0.0246816
0.00380872
0.0237198
0.00828792
0.00853587
0.0217677
0.0282618
0.0198134
0.0206525
0.0173186
0.0137456
0.0148717
0.00842577
0.0130411
0.00445502
0.0118826
0.00125461
0.0117206
-0.00181088
0.0124512
-0.00492296
0.0136657
-0.00821576
0.0148627
-0.0113322
0.0155129
-0.0123688
0.0157602
-0.0124521
0.0162302
-0.0135478
0.0159738
-0.0117696
0.0149924
-0.00867308
0.0153294
-0.00656016
0.0177803
-0.00440024
0.0241722
-0.00163544
0.0266354
0.00332323
0.00791143
0.0223619
0.0295787
0.0206104
0.0224683
0.0183131
0.0159509
0.0158639
0.0105053
0.0139748
0.00578803
0.0126672
0.00191493
0.0123723
-0.00166032
0.0129011
-0.00524007
0.0142836
-0.00898207
0.0151441
-0.0118889
0.0164685
-0.0138391
0.0174743
-0.013918
0.0173516
-0.0138425
0.0166393
-0.0112672
0.0157661
-0.00885364
0.0157248
-0.00705177
0.015346
-0.00580497
0.0149986
-0.00445019
0.0178431
-0.00287918
-0.00116151
0.0232531
0.0313601
0.0213153
0.0246137
0.0191597
0.0179927
0.0167463
0.0123946
0.014828
0.00702439
0.0134525
0.00254754
0.0131161
-0.00149932
0.0136384
-0.00556329
0.0149294
-0.00975503
0.0161384
-0.0129879
0.0172652
-0.0151138
0.0188956
-0.0163501
0.0176466
-0.0133018
0.0161378
-0.00994399
0.0158066
-0.00827893
0.0161093
-0.00746445
0.0165017
-0.00658603
0.0169301
-0.00577343
0.0176068
-0.0047735
-0.00467328
0.0241718
0.0369445
0.0218178
0.0267313
0.0198467
0.0197716
0.0175971
0.0139523
0.0157003
0.0080485
0.0142969
0.00304515
0.0140432
-0.00151662
0.0146867
-0.00613812
0.0160363
-0.0109214
0.0174298
-0.0147084
0.0205359
-0.0192387
0.0195776
-0.0162818
0.0168787
-0.0113707
0.0158319
-0.00932979
0.0156381
-0.00785992
0.0155677
-0.00722119
0.0155708
-0.00646639
0.0157473
-0.0061264
0.0159086
-0.0053426
-0.004782
0.0242423
0.0405223
0.02252
0.0280605
0.020617
0.0213013
0.0185294
0.0152899
0.01665
0.00888744
0.0153547
0.00341546
0.0150518
-0.00155319
0.0158864
-0.00729593
0.0176018
-0.013104
0.0222828
-0.0196273
0.0223184
-0.0190557
0.0182551
-0.0116556
0.0169985
-0.0104416
0.0159828
-0.00869819
0.0156262
-0.00758345
0.0153774
-0.00698617
0.0152681
-0.00632767
0.0152134
-0.00602715
0.0150882
-0.00525482
-0.00471256
0.0294736
0.0379003
0.0246686
0.0326277
0.0219713
0.0229952
0.0196994
0.0166575
0.0178097
0.00929462
0.0164948
0.00344602
0.015875
-0.00171939
0.0178666
-0.0100649
0.0232888
-0.017826
0.0251012
-0.0205776
0.0193092
-0.0129001
0.0184371
-0.0109685
0.0173543
-0.00970161
0.0163322
-0.00810466
0.0158635
-0.00719633
0.0154806
-0.00663201
0.0152468
-0.0060708
0.0150697
-0.00580761
0.0147815
-0.00509908
-0.00457128
0.0307071
0.035038
0.0289199
0.0349515
0.0242939
0.0271179
0.0215567
0.0178526
0.0191663
0.00959998
0.0175247
0.00327212
0.0198061
-0.00448199
0.0242457
-0.0149353
0.0257709
-0.0192091
0.0204603
-0.0143258
0.0198538
-0.0119328
0.01884
-0.0101923
0.0176956
-0.00896381
0.0165665
-0.0075127
0.0160032
-0.00666665
0.0154939
-0.00609978
0.0151846
-0.00559965
0.0149148
-0.00539011
0.0145213
-0.00475412
-0.00427422
0.0264918
0.0310064
0.0297984
0.0308874
0.0267999
0.028991
0.0228558
0.0212856
0.0195721
0.0123078
0.0201681
0.00207959
0.0260212
-0.0106084
0.0260605
-0.0146511
0.0224648
-0.0152579
0.0214385
-0.0122764
0.0205128
-0.0108587
0.019446
-0.00929074
0.0182282
-0.00816005
0.0169066
-0.00677718
0.016212
-0.00609392
0.0155508
-0.00550195
0.0151452
-0.0050344
0.0147941
-0.00485672
0.0143029
-0.00429158
-0.0038501
0.0292199
0.0231576
0.0262196
0.0322313
0.0254261
0.0291966
0.024481
0.0227775
0.0246167
0.0117399
0.02692
-0.000909126
0.0264667
-0.00994737
0.0265867
-0.0138416
0.023396
-0.0132111
0.0227253
-0.0109991
0.0214633
-0.00966693
0.0202979
-0.00836578
0.0189168
-0.00722895
0.0174606
-0.00597227
0.016588
-0.00536602
0.0157506
-0.00484007
0.0152357
-0.00439523
0.0148058
-0.00423683
0.0141949
-0.00373948
-0.00337314
0.0391088
0.0100476
0.0282599
0.0415737
0.0271676
0.0295279
0.0280519
0.0230908
0.0283517
0.0111921
0.0295629
-0.00205066
0.0285605
-0.00990839
0.0305823
-0.0174779
0.0255944
-0.0112465
0.0240034
-0.00948859
0.0224887
-0.00827241
0.0211224
-0.0072483
0.0196011
-0.0062166
0.0180309
-0.00511576
0.0170336
-0.00452534
0.0160808
-0.00411515
0.0154367
-0.00367866
0.0149007
-0.0035129
0.014193
-0.00313165
-0.00280765
0.0215381
0.00619282
0.0320981
0.0311304
0.0304423
0.0293843
0.0318469
0.0217617
0.0335582
0.00782193
0.0348548
-0.00515008
0.037598
-0.0143777
0.0304021
-0.00999457
0.0273217
-0.00870019
0.0251561
-0.00749899
0.0235071
-0.00662075
0.022075
-0.00581956
0.0204255
-0.00499032
0.0187642
-0.0041092
0.0176848
-0.00358439
0.0165508
-0.00325143
0.0157804
-0.00294814
0.015139
-0.00275387
0.0143209
-0.00248474
-0.00212542
0.0232953
0.000697863
0.0421329
0.0132586
0.0361821
0.0291074
0.0401853
0.015608
0.0451581
0.00109639
0.0456378
-0.00752366
0.0361773
-0.00807064
0.0321905
-0.00656561
0.0289712
-0.00604866
0.0264687
-0.00520401
0.024628
-0.00454616
0.023058
-0.0040575
0.0212474
-0.00350271
0.0194485
-0.00293977
0.0182941
-0.002571
0.0171175
-0.00230575
0.0162467
-0.00212672
0.0155206
-0.00194693
0.0145512
-0.00176069
-0.00142504
0.0168064
5.94919e-05
0.0268369
0.00268794
0.0408296
0.01687
0.049491
0.00799064
0.049793
0.000235814
0.051466
-0.0125947
0.0382332
-0.00601444
0.0334794
-0.00351309
0.0301087
-0.00313053
0.0274111
-0.00272599
0.0254581
-0.00233665
0.0238581
-0.00214005
0.0220573
-0.00184249
0.0203012
-0.00157647
0.019072
-0.00133428
0.0178652
-0.00119749
0.0168574
-0.0011174
0.0160049
-0.00103037
0.0148821
-0.000937449
-0.000739646
0.0166529
0.0207442
0.0424545
0.0559826
0.0595302
0.0473489
0.0393902
0.0341768
0.0308213
0.0281159
0.0262251
0.0246424
0.0228558
0.0210806
0.0198149
0.0185936
0.0175631
0.0166563
0.0154471
)
;

boundaryField
{
    inlet
    {
        type            calculated;
        value           nonuniform List<scalar> 
40
(
-0.0041999
-0.0041999
-0.0041999
-0.0041999
-0.0041999
-0.0041999
-0.0041999
-0.0041999
-0.0041999
-0.0041999
-0.0041999
-0.0041999
-0.0041999
-0.0041999
-0.0041999
-0.0041999
-0.0041999
-0.0041999
-0.0041999
-0.0041999
-0.0167996
-0.0167996
-0.0167996
-0.0167996
-0.0167996
-0.0167996
-0.0167996
-0.0167996
-0.0167996
-0.0167996
-0.0167996
-0.0167996
-0.0167996
-0.0167996
-0.0167996
-0.0167996
-0.0167996
-0.0167996
-0.0167996
-0.0167996
)
;
    }
    outlet
    {
        type            calculated;
        value           nonuniform List<scalar> 
20
(
0.00907583
0.0120779
0.0160386
0.0188996
0.0205173
0.0219332
0.0232094
0.0255002
0.0179324
0.0156851
0.014885
0.0145067
0.014192
0.0139113
0.0137619
0.0136933
0.0136921
0.0138352
0.0141155
0.01462
)
;
    }
    top
    {
        type            symmetryPlane;
        value           uniform 0;
    }
    bottom
    {
        type            symmetryPlane;
        value           uniform 0;
    }
    step
    {
        type            calculated;
        value           uniform 0;
    }
    defaultFaces
    {
        type            empty;
        value           nonuniform 0();
    }
}


// ************************************************************************* //
