/*--------------------------------*- C++ -*----------------------------------*\
  =========                 |
  \\      /  F ield         | OpenFOAM: The Open Source CFD Toolbox
   \\    /   O peration     | Website:  https://openfoam.org
    \\  /    A nd           | Version:  6.0
     \\/     M anipulation  |
\*---------------------------------------------------------------------------*/
FoamFile
{
    version     2.0;
    format      ascii;
    class       volScalarField;
    location    "2";
    object      T;
}
// * * * * * * * * * * * * * * * * * * * * * * * * * * * * * * * * * * * * * //

dimensions      [0 0 0 1 0 0 0];

internalField   nonuniform List<scalar> 
1200
(
1.00012
1.00036
1.0009
1.00208
1.00471
1.01057
1.02369
1.05341
1.12252
1.29017
1.74841
2.84648
2.75259
2.75181
2.72391
2.71498
2.69562
2.72939
2.84878
2.59195
1.00012
1.00036
1.0009
1.00208
1.00471
1.01057
1.02368
1.05339
1.12247
1.29007
1.74815
2.84588
2.75231
2.75171
2.72212
2.71233
2.69828
2.71172
2.83457
2.75982
1.00012
1.00036
1.0009
1.00208
1.00471
1.01056
1.02366
1.05335
1.12238
1.28985
1.74754
2.84464
2.75176
2.75107
2.72106
2.70563
2.70239
2.70679
2.83485
2.82772
1.00012
1.00036
1.0009
1.00208
1.0047
1.01054
1.02363
1.05328
1.12222
1.2895
1.74648
2.84263
2.75114
2.74973
2.71977
2.6989
2.70233
2.70431
2.85047
2.85616
1.00012
1.00036
1.00089
1.00208
1.00469
1.01052
1.02359
1.05318
1.12199
1.28898
1.74486
2.83971
2.75058
2.74764
2.71799
2.69336
2.70118
2.69991
2.87388
2.87672
1.00012
1.00036
1.00089
1.00207
1.00468
1.0105
1.02353
1.05305
1.12169
1.28826
1.74261
2.83579
2.75014
2.74482
2.71515
2.68858
2.69859
2.69674
2.8746
2.88838
1.00012
1.00036
1.00089
1.00206
1.00467
1.01046
1.02345
1.05288
1.12129
1.28732
1.73964
2.83072
2.7499
2.74125
2.71139
2.68425
2.69558
2.6918
2.86866
2.89345
1.00011
1.00036
1.00089
1.00205
1.00465
1.01042
1.02336
1.05266
1.12079
1.28613
1.73587
2.8244
2.74984
2.73702
2.70642
2.6801
2.69244
2.68771
2.86083
2.89239
1.00011
1.00035
1.00088
1.00204
1.00463
1.01037
1.02324
1.0524
1.12017
1.28466
1.73123
2.81668
2.74992
2.73219
2.70059
2.67558
2.68843
2.68355
2.84352
2.88896
1.00011
1.00035
1.00088
1.00203
1.0046
1.01031
1.0231
1.05208
1.11942
1.28286
1.72562
2.80743
2.75008
2.7259
2.69455
2.6719
2.68522
2.67836
2.83286
2.88179
1.00011
1.00035
1.00087
1.00202
1.00456
1.01023
1.02293
1.0517
1.11852
1.2807
1.71895
2.79658
2.74994
2.71915
2.68775
2.66608
2.68016
2.67405
2.81252
2.87401
1.00011
1.00035
1.00086
1.002
1.00452
1.01015
1.02273
1.05124
1.11745
1.27813
1.71111
2.78383
2.75006
2.70903
2.68158
2.6626
2.67627
2.66811
2.80088
2.86652
1.00011
1.00034
1.00085
1.00198
1.00448
1.01004
1.0225
1.05071
1.11619
1.2751
1.70195
2.76921
2.74912
2.6997
2.67523
2.65704
2.67036
2.66113
2.77797
2.84973
1.00011
1.00034
1.00084
1.00196
1.00442
1.00992
1.02222
1.05008
1.11471
1.27152
1.69129
2.75271
2.74461
2.69122
2.66561
2.65147
2.66527
2.65496
2.76518
2.83979
1.00011
1.00033
1.00083
1.00193
1.00436
1.00977
1.02189
1.04933
1.11296
1.26732
1.67887
2.73449
2.73611
2.6841
2.66062
2.64693
2.65813
2.64508
2.73918
2.81769
1.00011
1.00033
1.00082
1.00189
1.00428
1.0096
1.02151
1.04846
1.11091
1.26237
1.66452
2.71098
2.72656
2.67428
2.65128
2.64128
2.6521
2.63675
2.7241
2.80198
1.0001
1.00032
1.0008
1.00185
1.00419
1.0094
1.02106
1.04743
1.10849
1.2565
1.64794
2.68171
2.71516
2.66638
2.64655
2.63625
2.6433
2.62414
2.69307
2.76841
1.0001
1.00031
1.00078
1.00181
1.00409
1.00916
1.02052
1.0462
1.10561
1.24949
1.62846
2.64573
2.69981
2.65318
2.6407
2.63085
2.6342
2.61279
2.67279
2.741
1.0001
1.0003
1.00076
1.00175
1.00397
1.00889
1.01989
1.04475
1.10218
1.24105
1.60504
2.59742
2.68365
2.64662
2.64082
2.62732
2.62404
2.5947
2.63148
2.68338
1.00009
1.00029
1.00073
1.00169
1.00382
1.00856
1.01915
1.04304
1.09811
1.23094
1.57536
2.54608
2.65075
2.64559
2.63746
2.62217
2.61156
2.57824
2.60177
2.62817
1.00009
1.00026
1.00066
1.00152
1.00342
1.00765
1.01704
1.03815
1.08637
1.20105
1.48998
2.32565
2.57738
2.63767
2.62938
2.60661
2.57995
2.4965
2.43817
2.43798
1.00007
1.00021
1.00051
1.00117
1.00262
1.00579
1.01274
1.02807
1.06213
1.14076
1.32057
1.95911
2.36863
2.54121
2.56314
2.55243
2.52471
2.47289
2.34179
2.31574
1.00005
1.00015
1.00038
1.00087
1.00196
1.00435
1.00966
1.02146
1.04797
1.10883
1.25531
1.63351
2.42802
2.55932
2.55298
2.53623
2.48328
2.43631
2.34132
2.25276
1.00004
1.00012
1.0003
1.0007
1.00157
1.0035
1.0078
1.01738
1.03894
1.0884
1.20626
1.51035
2.30459
2.53105
2.54074
2.51873
2.47136
2.40603
2.33525
2.24395
1.00003
1.00009
1.00022
1.00051
1.00114
1.00253
1.00561
1.01243
1.02764
1.06195
1.14205
1.33366
1.93598
2.35591
2.46971
2.46208
2.4309
2.34902
2.28668
2.21597
1.00002
1.00006
1.00014
1.00033
1.00073
1.00163
1.0036
1.00796
1.01763
1.03929
1.08873
1.20546
1.51625
2.161
2.3738
2.39186
2.38158
2.33098
2.26316
2.20713
1.00001
1.00004
1.00009
1.00021
1.00047
1.00105
1.00231
1.00509
1.01123
1.02488
1.05553
1.12633
1.29739
1.79404
2.19677
2.30889
2.30933
2.2907
2.2316
2.18571
1.00001
1.00002
1.00005
1.00012
1.00028
1.00061
1.00136
1.003
1.00661
1.01462
1.03248
1.07305
1.16737
1.42082
1.97526
2.20148
2.22468
2.23634
2.20614
2.17725
1
1.00001
1.00003
1.00007
1.00015
1.00033
1.00072
1.00159
1.00349
1.00765
1.01683
1.03727
1.08352
1.19401
1.48728
2.0115
2.16611
2.17065
2.16148
2.13876
1
1.00001
1.00002
1.00004
1.00009
1.0002
1.00044
1.00097
1.00212
1.00464
1.01017
1.02238
1.0496
1.11175
1.26155
1.67811
2.02197
2.09678
2.089
2.07691
1
1
1.00001
1.00002
1.00005
1.00011
1.00023
1.00051
1.00112
1.00246
1.00539
1.01185
1.02613
1.05828
1.13162
1.32927
1.74533
1.9647
2.00268
2.00008
1
1
1
1.00001
1.00002
1.00005
1.00011
1.00024
1.00052
1.00114
1.00248
1.00541
1.01184
1.02604
1.05782
1.13247
1.3254
1.69951
1.89422
1.92589
1
1
1
1
1.00001
1.00002
1.00005
1.00011
1.00023
1.0005
1.00107
1.00232
1.00501
1.01087
1.02372
1.05215
1.11957
1.28435
1.63491
1.80133
1
1
1
1
1
1.00001
1.00002
1.00005
1.0001
1.00021
1.00043
1.0009
1.0019
1.00398
1.00837
1.01771
1.03791
1.0839
1.2029
1.46539
1
1
1
1
1
1
1.00001
1.00002
1.00005
1.0001
1.00021
1.00046
1.00098
1.00209
1.00447
1.00959
1.02064
1.04535
1.09569
1.29019
1
1
1
1
1
1
1.00001
1.00001
1.00003
1.00006
1.00013
1.00027
1.00059
1.00125
1.00267
1.0057
1.01198
1.02652
1.05256
1.1362
1
1
1
1
1
1
1
1.00001
1.00002
1.00003
1.00007
1.00016
1.00035
1.00076
1.00165
1.00359
1.00781
1.01711
1.03704
1.08797
1
1
1
1
1
1
1
1.00001
1.00001
1.00003
1.00006
1.00013
1.00028
1.00062
1.00137
1.00301
1.00664
1.01472
1.03238
1.0764
1
1
1
1
1
1
1
1
1.00001
1.00002
1.00005
1.0001
1.00022
1.00048
1.00105
1.00232
1.00511
1.01127
1.02501
1.05546
1
1
1
1
1
1
1
1
1.00001
1.00002
1.00004
1.0001
1.00021
1.00048
1.00106
1.00235
1.00522
1.0116
1.0259
1.05825
2.31298
2.32549
2.57428
2.59635
2.4897
2.35187
2.17588
2.10762
2.10992
2.14834
2.35224
2.52675
3.04454
3.46348
3.60977
3.6083
3.54918
3.55171
3.59261
3.69409
2.25753
2.32146
2.42052
2.38551
2.41164
2.3687
2.13613
2.02038
2.02411
2.05133
2.19131
2.39892
2.81067
2.92237
2.95614
2.92944
2.87649
2.85276
2.8719
3.11223
2.22223
2.23944
2.19869
2.2062
2.23825
2.24647
2.12646
2.00837
2.01076
2.01876
2.09835
2.33429
2.67748
2.65961
2.67008
2.66693
2.64128
2.55723
2.5403
2.64852
2.13576
2.11646
2.10026
2.11547
2.1713
2.19376
2.13566
2.01804
2.0096
2.01848
2.10575
2.30787
2.57936
2.59278
2.59499
2.56553
2.50274
2.44857
2.37179
2.38508
2.09296
2.06629
2.05017
2.06321
2.10487
2.15876
2.15079
2.07649
2.05202
2.0644
2.14763
2.27863
2.44458
2.58342
2.64037
2.60623
2.48314
2.38915
2.33714
2.29833
2.08458
2.04073
2.01438
2.0234
2.06261
2.15383
2.16963
2.13695
2.10303
2.11153
2.15096
2.25935
2.37758
2.46989
2.53375
2.53979
2.47321
2.30763
2.22426
2.19826
2.07246
2.02116
1.98918
1.9988
2.04017
2.15627
2.19781
2.18336
2.16542
2.15224
2.17213
2.24674
2.30698
2.3467
2.3927
2.38206
2.35942
2.24461
2.16083
2.05325
2.07191
2.01052
1.96627
1.9765
2.0197
2.1561
2.22859
2.23816
2.20474
2.1828
2.19707
2.2305
2.24748
2.25715
2.26126
2.20572
2.13499
2.07684
2.06606
1.9503
2.0563
1.98268
1.94059
1.95892
2.01344
2.16859
2.2528
2.26833
2.22374
2.20611
2.20067
2.19865
2.19753
2.19548
2.15625
2.03084
1.96884
1.87307
1.83034
1.72025
2.01581
1.95489
1.92953
1.95642
2.01813
2.17964
2.27391
2.27854
2.24169
2.21926
2.19962
2.17189
2.14872
2.12359
2.06383
1.93769
1.87635
1.77133
1.73403
1.63513
1.98488
1.94966
1.93192
1.95934
2.02769
2.18691
2.27887
2.27812
2.24545
2.22749
2.16946
2.12636
2.07583
2.03033
1.96507
1.85595
1.80249
1.70076
1.66585
1.58551
1.95361
1.94734
1.93673
1.95704
2.03469
2.18585
2.28903
2.27481
2.23099
2.19529
2.12959
2.06931
1.98892
1.94934
1.87752
1.77386
1.71317
1.62012
1.59444
1.53314
1.89475
1.91098
1.92468
1.95527
2.04732
2.19948
2.28565
2.24846
2.19552
2.14773
2.06441
1.99192
1.93274
1.90229
1.83063
1.72993
1.66291
1.56977
1.54608
1.49302
1.80981
1.85547
1.8962
1.95071
2.04979
2.23288
2.21423
2.18529
2.13819
2.09201
2.00932
1.9382
1.878
1.84819
1.78018
1.69228
1.62563
1.53425
1.5144
1.46985
1.7139
1.84986
1.89691
1.95146
2.01954
2.16837
2.14379
2.11454
2.057
2.01144
1.93013
1.86997
1.81661
1.78996
1.7244
1.64504
1.5822
1.4951
1.47928
1.44646
1.54962
1.83227
1.90719
1.92692
2.00585
2.0724
2.04869
2.03564
1.99755
1.93913
1.85925
1.80374
1.76229
1.74
1.67888
1.60179
1.54224
1.46085
1.44911
1.42492
1.58593
1.8148
1.94114
1.92829
1.97725
2.0217
2.00821
1.99731
1.9352
1.88015
1.81395
1.7568
1.71072
1.68529
1.6222
1.54661
1.49618
1.42784
1.42059
1.40342
1.51608
1.82743
2.02218
1.98362
2.00415
1.98566
1.96075
1.92092
1.87665
1.8323
1.75922
1.69639
1.6533
1.63102
1.57556
1.50352
1.45041
1.38951
1.38608
1.38107
1.41161
2.10665
2.16076
2.05802
1.98131
1.97531
1.96831
1.89694
1.85807
1.81776
1.74348
1.67349
1.62682
1.59976
1.5353
1.4601
1.40063
1.34634
1.34739
1.35453
1.44064
2.28052
2.26289
2.11359
2.06206
2.03968
2.00194
1.91755
1.87539
1.82925
1.74517
1.66128
1.60451
1.57381
1.50842
1.437
1.37833
1.32204
1.3214
1.32877
)
;

boundaryField
{
    inlet
    {
        type            fixedValue;
        value           uniform 1;
    }
    outlet
    {
        type            inletOutlet;
        inletValue      uniform 1;
        value           nonuniform List<scalar> 
20
(
3.6941
3.11221
2.64856
2.38508
2.29834
2.19818
2.05311
1.95038
1.72019
1.63515
1.58552
1.53315
1.49303
1.46986
1.44647
1.42494
1.40343
1.38107
1.35453
1.32877
)
;
    }
    top
    {
        type            symmetryPlane;
    }
    bottom
    {
        type            symmetryPlane;
    }
    step
    {
        type            zeroGradient;
    }
    defaultFaces
    {
        type            empty;
    }
}


// ************************************************************************* //
