/*--------------------------------*- C++ -*----------------------------------*\
  =========                 |
  \\      /  F ield         | OpenFOAM: The Open Source CFD Toolbox
   \\    /   O peration     | Website:  https://openfoam.org
    \\  /    A nd           | Version:  6.0
     \\/     M anipulation  |
\*---------------------------------------------------------------------------*/
FoamFile
{
    version     2.0;
    format      ascii;
    class       volScalarField;
    location    "2";
    object      T;
}
// * * * * * * * * * * * * * * * * * * * * * * * * * * * * * * * * * * * * * //

dimensions      [0 0 0 1 0 0 0];

internalField   nonuniform List<scalar> 
24000
(
0.885057
0.840177
0.819595
0.802178
0.795087
0.793221
0.79479
0.802875
0.829393
0.905706
1.12632
1.77239
2.24339
2.2774
2.28796
2.28201
2.27908
2.28594
2.48298
2.16891
0.885058
0.840175
0.819597
0.802176
0.795086
0.793216
0.794785
0.802866
0.829375
0.905663
1.12623
1.77249
2.24428
2.27864
2.29002
2.28392
2.2822
2.29039
2.48436
2.18032
0.88506
0.840171
0.819601
0.802171
0.795082
0.793204
0.794773
0.802847
0.829332
0.905558
1.12598
1.77222
2.245
2.27973
2.29194
2.28573
2.2853
2.29454
2.48924
2.18855
0.885064
0.840165
0.819608
0.802164
0.795078
0.793185
0.794754
0.802816
0.82926
0.905378
1.12553
1.77168
2.24537
2.28073
2.29372
2.28766
2.28799
2.29884
2.49416
2.19667
0.885069
0.840156
0.819617
0.802152
0.795071
0.793158
0.794727
0.802769
0.829152
0.905104
1.1248
1.77065
2.24524
2.28137
2.29511
2.28938
2.2903
2.30324
2.49929
2.20706
0.885078
0.840144
0.81963
0.802136
0.795063
0.793122
0.794689
0.802706
0.829003
0.904719
1.12373
1.76906
2.24426
2.28148
2.29601
2.29073
2.29232
2.30748
2.50441
2.21997
0.885089
0.840127
0.819645
0.802114
0.795053
0.793075
0.794641
0.802622
0.828804
0.904202
1.12227
1.76657
2.24229
2.28111
2.29635
2.29158
2.2939
2.31132
2.50901
2.23379
0.885104
0.840107
0.819665
0.802086
0.795042
0.793015
0.794579
0.802514
0.828549
0.903533
1.12035
1.76319
2.2392
2.28007
2.29594
2.29173
2.29482
2.31438
2.51338
2.24557
0.885123
0.840082
0.819687
0.802048
0.795029
0.792942
0.794503
0.802381
0.82823
0.902692
1.1179
1.75861
2.23493
2.27827
2.29481
2.29131
2.29516
2.31676
2.51721
2.25698
0.885147
0.840053
0.819714
0.802
0.795014
0.792854
0.794411
0.802219
0.827838
0.901656
1.11487
1.7527
2.2294
2.27574
2.29279
2.29016
2.29484
2.31848
2.52
2.26942
0.885176
0.840018
0.819745
0.801941
0.794999
0.79275
0.794301
0.802023
0.827365
0.900404
1.11119
1.74537
2.22273
2.2725
2.28997
2.28816
2.29369
2.31934
2.52128
2.28173
0.885213
0.839975
0.819779
0.80187
0.794984
0.792626
0.79417
0.801789
0.8268
0.898908
1.10679
1.73605
2.21499
2.26883
2.28652
2.28543
2.29178
2.31917
2.52154
2.29209
0.885258
0.839924
0.819818
0.801788
0.794969
0.79248
0.794015
0.801512
0.826132
0.897139
1.1016
1.72442
2.20594
2.26452
2.28227
2.28188
2.28892
2.31797
2.51989
2.30345
0.885312
0.83986
0.819863
0.801696
0.794955
0.792307
0.793832
0.801185
0.825347
0.895067
1.09553
1.71026
2.19534
2.25958
2.27717
2.27753
2.28528
2.31549
2.51664
2.31031
0.885378
0.839781
0.819915
0.801595
0.794941
0.792102
0.793614
0.800799
0.82443
0.892659
1.08848
1.69381
2.18256
2.25366
2.27097
2.27209
2.28066
2.3115
2.51128
2.31515
0.885457
0.839684
0.819977
0.801486
0.794923
0.791858
0.793355
0.800344
0.823362
0.889878
1.08034
1.67496
2.16753
2.24673
2.26421
2.26619
2.2754
2.30606
2.5036
2.31801
0.885548
0.839571
0.820052
0.801367
0.794882
0.791582
0.793045
0.799806
0.822122
0.886672
1.07094
1.65276
2.1505
2.23871
2.25588
2.25861
2.26824
2.29758
2.48814
2.31506
0.885559
0.839596
0.820002
0.801406
0.794658
0.79134
0.79272
0.799194
0.820693
0.882992
1.06003
1.62839
2.13035
2.2291
2.24788
2.25203
2.26247
2.29006
2.47365
2.30661
0.885487
0.839666
0.819933
0.801488
0.794426
0.791075
0.792358
0.798503
0.819062
0.878765
1.04737
1.6008
2.10576
2.21931
2.2382
2.24539
2.25511
2.27722
2.44692
2.28948
0.885406
0.839754
0.819857
0.801553
0.794122
0.790773
0.791953
0.79773
0.817206
0.873895
1.03256
1.56812
2.07936
2.21097
2.23766
2.24952
2.26371
2.2808
2.41947
2.23026
0.998032
0.99004
0.982931
0.97325
0.971049
0.971539
0.976583
0.992827
1.03652
1.14992
1.45311
2.31867
2.62388
2.63645
2.61928
2.62298
2.63249
2.66483
2.80935
2.58831
0.998032
0.990041
0.982931
0.973249
0.971046
0.971535
0.976576
0.992814
1.03649
1.14985
1.4529
2.31839
2.62432
2.63638
2.61958
2.62333
2.63256
2.66507
2.80781
2.61148
0.998032
0.990041
0.982929
0.973247
0.971039
0.971528
0.976563
0.992785
1.03642
1.14968
1.45245
2.31762
2.62437
2.63597
2.61957
2.62332
2.63232
2.66509
2.80442
2.61868
0.998032
0.990041
0.982927
0.973245
0.971028
0.971517
0.976542
0.992739
1.03632
1.14942
1.45171
2.31615
2.62386
2.63554
2.61955
2.6231
2.63227
2.66519
2.80015
2.62578
0.998031
0.990041
0.982924
0.973241
0.971012
0.971501
0.976513
0.992673
1.03616
1.14903
1.45063
2.31376
2.62266
2.6346
2.6192
2.62253
2.63197
2.66505
2.79484
2.63454
0.998031
0.990042
0.98292
0.973235
0.970992
0.97148
0.976473
0.992584
1.03594
1.14849
1.44912
2.31028
2.62071
2.63299
2.6184
2.62153
2.63122
2.66433
2.78887
2.64354
0.99803
0.990043
0.982914
0.973229
0.970965
0.971453
0.976422
0.992467
1.03566
1.14779
1.44712
2.30551
2.61794
2.63073
2.6173
2.61987
2.62959
2.66258
2.78239
2.65423
0.99803
0.990044
0.982907
0.973221
0.970931
0.971418
0.976357
0.99232
1.03531
1.14689
1.44456
2.29937
2.61421
2.62776
2.61594
2.61786
2.62751
2.66023
2.77529
2.65851
0.998029
0.990046
0.982898
0.973211
0.97089
0.971376
0.976277
0.992137
1.03487
1.14577
1.44137
2.29168
2.60948
2.62402
2.61409
2.61521
2.62469
2.65704
2.76717
2.66112
0.998028
0.990048
0.982887
0.9732
0.970841
0.971325
0.97618
0.991915
1.03433
1.14441
1.43747
2.28227
2.60372
2.6195
2.6118
2.61172
2.62136
2.65293
2.75887
2.66196
0.998027
0.99005
0.982874
0.973186
0.970782
0.971265
0.976064
0.991649
1.03368
1.14277
1.43279
2.27086
2.59687
2.61422
2.60882
2.60734
2.61738
2.6483
2.75058
2.66225
0.998026
0.990052
0.982857
0.973171
0.970713
0.971194
0.975927
0.991333
1.03291
1.14082
1.42726
2.25744
2.58878
2.60815
2.60498
2.60209
2.61261
2.64266
2.74155
2.66095
0.998025
0.990055
0.982839
0.973155
0.970632
0.971111
0.975766
0.990961
1.03201
1.13854
1.42079
2.24156
2.57956
2.60147
2.6
2.59638
2.60728
2.63624
2.73125
2.65839
0.998024
0.990058
0.982819
0.973136
0.970537
0.971014
0.975577
0.990526
1.03096
1.13588
1.41329
2.22308
2.56894
2.59431
2.59345
2.59017
2.60094
2.62794
2.72117
2.65436
0.998023
0.990062
0.982797
0.973116
0.970427
0.970901
0.975355
0.990017
1.02973
1.1328
1.40464
2.20225
2.5565
2.58685
2.58608
2.58353
2.5945
2.61962
2.70703
2.6456
0.998022
0.990068
0.982774
0.973096
0.970293
0.970764
0.975092
0.989421
1.02831
1.12924
1.39491
2.17869
2.54193
2.57884
2.57816
2.57528
2.58526
2.60678
2.69222
2.63606
0.998021
0.990082
0.982752
0.973071
0.970122
0.970588
0.974776
0.988728
1.02667
1.12515
1.38376
2.1528
2.52474
2.56961
2.56921
2.56719
2.57797
2.59573
2.67247
2.61634
0.998018
0.990097
0.982736
0.973027
0.969905
0.970368
0.974399
0.987928
1.02479
1.12043
1.37092
2.12274
2.50542
2.56002
2.55981
2.55774
2.5663
2.579
2.64989
2.59523
0.997983
0.9901
0.982709
0.972962
0.969649
0.97011
0.973966
0.987012
1.02264
1.11502
1.35606
2.08872
2.48295
2.54902
2.54929
2.54627
2.55401
2.56098
2.61456
2.55481
0.997941
0.990104
0.982679
0.972881
0.969353
0.969813
0.973469
0.985967
1.02019
1.10882
1.33917
2.04544
2.45925
2.53856
2.53929
2.53575
2.5388
2.53341
2.57758
2.49294
1.02501
1.03126
1.02875
1.02572
1.02575
1.0268
1.03385
1.05462
1.10764
1.2411
1.59548
2.58465
2.73839
2.73137
2.71802
2.68721
2.68823
2.70131
2.82165
2.7479
1.02501
1.03126
1.02875
1.02572
1.02575
1.0268
1.03385
1.0546
1.1076
1.24103
1.59526
2.58446
2.7384
2.73156
2.718
2.68802
2.68916
2.70242
2.82409
2.77131
1.02501
1.03126
1.02875
1.02571
1.02574
1.02679
1.03383
1.05457
1.10753
1.24086
1.5948
2.58376
2.73801
2.7312
2.71748
2.68846
2.68942
2.7022
2.8269
2.77954
1.02501
1.03126
1.02875
1.02571
1.02574
1.02678
1.03381
1.05452
1.10742
1.2406
1.59406
2.5823
2.73713
2.73023
2.71621
2.68852
2.68926
2.7019
2.8287
2.78533
1.02501
1.03125
1.02874
1.0257
1.02573
1.02677
1.03378
1.05445
1.10725
1.2402
1.59298
2.57977
2.73581
2.72886
2.71473
2.68827
2.68865
2.70149
2.83052
2.79286
1.02501
1.03125
1.02874
1.02569
1.02572
1.02675
1.03374
1.05436
1.10703
1.23967
1.59149
2.57603
2.73401
2.72701
2.71288
2.68761
2.68709
2.70075
2.83087
2.79779
1.025
1.03125
1.02874
1.02568
1.02571
1.02672
1.03368
1.05423
1.10674
1.23896
1.58954
2.57101
2.73165
2.7246
2.71046
2.68645
2.68483
2.69992
2.83204
2.80504
1.025
1.03125
1.02873
1.02566
1.02569
1.02669
1.03361
1.05408
1.10637
1.23806
1.58703
2.56462
2.72865
2.72157
2.70765
2.68356
2.68283
2.69889
2.83512
2.80907
1.025
1.03124
1.02872
1.02564
1.02567
1.02665
1.03352
1.05388
1.10592
1.23693
1.58389
2.55672
2.72504
2.71795
2.70423
2.67995
2.68024
2.69755
2.83642
2.80978
1.025
1.03124
1.02871
1.02562
1.02565
1.0266
1.03342
1.05364
1.10536
1.23556
1.58006
2.54716
2.72072
2.71381
2.70015
2.6758
2.67695
2.69575
2.83781
2.81012
1.02499
1.03123
1.0287
1.02559
1.02562
1.02654
1.0333
1.05336
1.10469
1.23391
1.57544
2.53607
2.71524
2.70891
2.69561
2.67101
2.67276
2.69324
2.83789
2.81012
1.02499
1.03123
1.02868
1.02556
1.02559
1.02648
1.03315
1.05302
1.10389
1.23195
1.56997
2.52296
2.70938
2.70339
2.69039
2.66546
2.66769
2.68966
2.83688
2.80969
1.02499
1.03122
1.02867
1.02552
1.02556
1.0264
1.03297
1.05263
1.10296
1.22964
1.5636
2.50743
2.7028
2.6973
2.68468
2.65948
2.66172
2.68429
2.83425
2.80857
1.02498
1.03121
1.02865
1.02548
1.02551
1.02631
1.03277
1.05216
1.10186
1.22696
1.55623
2.48951
2.69529
2.69052
2.67808
2.65276
2.65531
2.67829
2.83002
2.80581
1.02497
1.0312
1.02863
1.02543
1.02547
1.0262
1.03253
1.05162
1.1006
1.22387
1.54778
2.4691
2.68686
2.6829
2.6714
2.64638
2.64844
2.67013
2.82041
2.79929
1.02497
1.03119
1.02862
1.02537
1.02541
1.02608
1.03225
1.05099
1.09913
1.22031
1.53791
2.44665
2.67661
2.67421
2.66291
2.63666
2.63789
2.65837
2.81096
2.79054
1.02497
1.03118
1.02862
1.0253
1.02532
1.02591
1.03191
1.05025
1.09743
1.21624
1.52655
2.42152
2.665
2.66449
2.65562
2.63084
2.63056
2.64668
2.79113
2.77054
1.02497
1.03117
1.02866
1.0252
1.02516
1.02568
1.03151
1.0494
1.09549
1.21151
1.51374
2.39171
2.65354
2.65365
2.64355
2.6194
2.61769
2.63055
2.77472
2.74961
1.02496
1.03117
1.02866
1.02512
1.02496
1.02541
1.03104
1.04844
1.09328
1.2061
1.49895
2.35838
2.63815
2.64658
2.63727
2.61275
2.60487
2.61001
2.74166
2.70145
1.02496
1.03116
1.02865
1.02502
1.02473
1.0251
1.03051
1.04735
1.09078
1.19996
1.48204
2.31773
2.62223
2.63398
2.6243
2.59969
2.5885
2.5904
2.71158
2.65276
1.02129
1.03497
1.04151
1.04481
1.04756
1.05189
1.06285
1.08897
1.15093
1.30239
1.70501
2.79722
2.77479
2.77115
2.73391
2.71259
2.71444
2.73639
2.93869
2.9045
1.02129
1.03497
1.04151
1.04481
1.04756
1.05188
1.06284
1.08896
1.1509
1.30232
1.70484
2.79693
2.77465
2.771
2.73283
2.71241
2.71532
2.7411
2.94301
2.92276
1.02129
1.03497
1.04151
1.04481
1.04756
1.05188
1.06283
1.08893
1.15084
1.30218
1.70446
2.79618
2.77431
2.77047
2.73111
2.71157
2.71561
2.74827
2.95312
2.92791
1.02129
1.03497
1.04151
1.04481
1.04756
1.05187
1.06281
1.08888
1.15074
1.30195
1.70383
2.79481
2.77382
2.7696
2.72902
2.71025
2.7156
2.75674
2.96459
2.93205
1.02129
1.03497
1.0415
1.0448
1.04755
1.05186
1.06278
1.08882
1.15059
1.3016
1.70287
2.7927
2.77326
2.76843
2.72649
2.70842
2.71548
2.76639
2.97351
2.93698
1.02129
1.03497
1.0415
1.0448
1.04754
1.05184
1.06274
1.08873
1.15038
1.30113
1.70151
2.78978
2.77261
2.76691
2.72353
2.70609
2.71467
2.77666
2.98031
2.94153
1.02129
1.03497
1.04149
1.04479
1.04753
1.05181
1.06269
1.08861
1.15012
1.30049
1.69968
2.78599
2.77177
2.76499
2.72036
2.70309
2.71366
2.78586
2.98466
2.94516
1.02129
1.03496
1.04149
1.04478
1.04752
1.05178
1.06262
1.08846
1.14977
1.29968
1.6973
2.78127
2.77069
2.7626
2.71714
2.69998
2.71258
2.79483
2.98649
2.9485
1.02129
1.03496
1.04148
1.04477
1.0475
1.05175
1.06254
1.08828
1.14934
1.29866
1.6943
2.77552
2.76941
2.7597
2.7137
2.69671
2.71154
2.80203
2.98627
2.951
1.02129
1.03495
1.04147
1.04476
1.04748
1.0517
1.06243
1.08805
1.14881
1.2974
1.69058
2.76871
2.76727
2.75671
2.70996
2.69353
2.71028
2.80703
2.98468
2.9521
1.02129
1.03495
1.04146
1.04474
1.04746
1.05165
1.06231
1.08778
1.14818
1.29588
1.68609
2.7605
2.76392
2.75332
2.70653
2.68935
2.70796
2.80863
2.98016
2.9516
1.02129
1.03494
1.04145
1.04472
1.04743
1.05158
1.06217
1.08746
1.14743
1.29406
1.68085
2.74943
2.76017
2.74851
2.70305
2.68614
2.70544
2.80792
2.97609
2.94938
1.02129
1.03493
1.04143
1.0447
1.0474
1.05151
1.062
1.08708
1.14654
1.29191
1.67476
2.73625
2.7556
2.74242
2.69882
2.68078
2.70041
2.80375
2.96684
2.94318
1.02129
1.03493
1.04142
1.04468
1.04736
1.05142
1.06181
1.08663
1.1455
1.2894
1.66775
2.72113
2.7502
2.735
2.69406
2.67619
2.69593
2.79825
2.95969
2.93653
1.02128
1.03492
1.0414
1.04465
1.04732
1.05132
1.06158
1.08611
1.1443
1.2865
1.65971
2.7041
2.74385
2.7265
2.68832
2.67083
2.689
2.7864
2.94347
2.92179
1.02128
1.03491
1.04138
1.04463
1.04727
1.0512
1.06131
1.08551
1.14291
1.28318
1.65056
2.6847
2.73742
2.71729
2.67998
2.66253
2.68088
2.77497
2.93188
2.90918
1.02128
1.03491
1.04136
1.0446
1.0472
1.05105
1.06099
1.08481
1.14131
1.27935
1.64014
2.66193
2.73064
2.70874
2.67599
2.65728
2.67127
2.75834
2.90723
2.88237
1.02128
1.03491
1.04136
1.04456
1.04709
1.05087
1.06062
1.08402
1.13948
1.27495
1.62791
2.63547
2.72313
2.69521
2.66625
2.64976
2.66239
2.73979
2.88932
2.85587
1.02128
1.03491
1.04135
1.0445
1.04696
1.05065
1.0602
1.08311
1.13739
1.26992
1.61385
2.60541
2.71402
2.68684
2.66307
2.64109
2.64934
2.71391
2.85055
2.80916
1.02127
1.0349
1.04134
1.04444
1.04682
1.05041
1.05973
1.08209
1.13504
1.26423
1.59771
2.57168
2.70223
2.67125
2.65544
2.63426
2.63904
2.68996
2.82161
2.74862
1.01033
1.0214
1.03066
1.03784
1.04367
1.05081
1.0652
1.09592
1.16527
1.33099
1.77863
2.88896
2.7473
2.77681
2.74005
2.71966
2.74105
2.86995
3.06174
2.98255
1.01033
1.0214
1.03066
1.03784
1.04367
1.0508
1.06519
1.09591
1.16525
1.33094
1.77853
2.8886
2.74733
2.77668
2.73844
2.71898
2.74396
2.88772
3.06763
2.99768
1.01033
1.0214
1.03065
1.03784
1.04366
1.0508
1.06518
1.09589
1.1652
1.33084
1.77829
2.88785
2.74722
2.77628
2.73594
2.71809
2.74962
2.91181
3.0738
3.01269
1.01033
1.0214
1.03065
1.03784
1.04366
1.05079
1.06517
1.09585
1.16512
1.33066
1.77784
2.88666
2.747
2.77576
2.73319
2.71705
2.75532
2.93145
3.07846
3.02567
1.01033
1.0214
1.03065
1.03783
1.04366
1.05078
1.06514
1.0958
1.165
1.3304
1.77711
2.88491
2.74683
2.77516
2.73019
2.71569
2.76109
2.94599
3.07986
3.03653
1.01033
1.0214
1.03065
1.03783
1.04365
1.05077
1.06511
1.09572
1.16483
1.33002
1.77601
2.88256
2.7467
2.77439
2.72682
2.71386
2.76589
2.95429
3.08051
3.04545
1.01033
1.0214
1.03064
1.03783
1.04364
1.05075
1.06506
1.09562
1.1646
1.32951
1.77448
2.87957
2.74657
2.77351
2.72357
2.71186
2.76888
2.9579
3.08162
3.05365
1.01033
1.02139
1.03064
1.03782
1.04363
1.05072
1.06501
1.09549
1.16431
1.32884
1.77243
2.87584
2.74644
2.77253
2.72041
2.70987
2.76967
2.95674
3.08147
3.05937
1.01033
1.02139
1.03063
1.03781
1.04362
1.05069
1.06493
1.09533
1.16394
1.32798
1.76976
2.87134
2.74611
2.77136
2.71702
2.7078
2.76884
2.95374
3.08058
3.0629
1.01033
1.02139
1.03063
1.03781
1.04361
1.05065
1.06484
1.09513
1.16348
1.32691
1.76642
2.86603
2.74551
2.7698
2.71331
2.70532
2.76635
2.94386
3.07872
3.06359
1.01033
1.02138
1.03063
1.0378
1.04359
1.0506
1.06473
1.09488
1.16292
1.32561
1.76234
2.85986
2.74462
2.76788
2.7091
2.70195
2.76016
2.93486
3.07415
3.06326
1.01033
1.02138
1.03062
1.03778
1.04357
1.05055
1.06461
1.0946
1.16226
1.32404
1.75746
2.85262
2.74444
2.76374
2.70535
2.69899
2.75437
2.91893
3.06995
3.06188
1.01033
1.02138
1.03061
1.03777
1.04354
1.05048
1.06445
1.09425
1.16147
1.32218
1.75175
2.84418
2.7446
2.75786
2.70114
2.69378
2.7463
2.90334
3.05977
3.05688
1.01033
1.02138
1.03061
1.03775
1.04351
1.05041
1.06428
1.09386
1.16054
1.32
1.74513
2.83451
2.74486
2.75128
2.69712
2.69064
2.73815
2.88351
3.0514
3.05027
1.01033
1.02138
1.0306
1.03773
1.04348
1.05032
1.06408
1.09339
1.15947
1.31746
1.73755
2.82356
2.74477
2.74388
2.69201
2.68435
2.72836
2.86229
3.03194
3.03397
1.01033
1.02138
1.03058
1.03772
1.04345
1.05022
1.06384
1.09285
1.15823
1.31455
1.72891
2.81124
2.74456
2.73663
2.68722
2.68047
2.71856
2.83753
3.01752
3.01976
1.01033
1.02138
1.03057
1.0377
1.0434
1.0501
1.06356
1.09223
1.1568
1.31118
1.71907
2.79731
2.74411
2.72835
2.67809
2.67347
2.70702
2.81016
2.98667
2.98773
1.01033
1.02138
1.03056
1.03768
1.04334
1.04995
1.06323
1.09151
1.15516
1.30732
1.7078
2.78173
2.74253
2.72224
2.67295
2.66896
2.69581
2.77921
2.96406
2.95982
1.01033
1.02138
1.03055
1.03766
1.04326
1.04978
1.06286
1.09069
1.15329
1.30288
1.69488
2.76387
2.74026
2.71291
2.66382
2.66004
2.68354
2.74774
2.91506
2.90035
1.01032
1.02138
1.03054
1.03763
1.04317
1.04959
1.06244
1.08976
1.15118
1.29785
1.67997
2.74392
2.73458
2.70845
2.65781
2.65266
2.66842
2.71889
2.88023
2.84266
1.00361
1.00935
1.01646
1.02333
1.02958
1.03758
1.05363
1.08739
1.16237
1.33853
1.82297
2.94323
2.67489
2.76071
2.75165
2.73199
2.82115
3.09451
3.15703
3.12059
1.00361
1.00935
1.01646
1.02333
1.02957
1.03758
1.05363
1.08738
1.16235
1.3385
1.82294
2.94267
2.67571
2.76083
2.74926
2.73214
2.82726
3.10098
3.16378
3.13246
1.00361
1.00935
1.01646
1.02333
1.02957
1.03758
1.05362
1.08736
1.16232
1.33844
1.8228
2.94174
2.67712
2.76041
2.74559
2.73275
2.83759
3.10439
3.17192
3.15083
1.00361
1.00935
1.01646
1.02333
1.02957
1.03757
1.05361
1.08734
1.16226
1.33833
1.8225
2.94037
2.67938
2.75964
2.74172
2.73416
2.84682
3.10257
3.17895
3.16398
1.00361
1.00935
1.01645
1.02333
1.02957
1.03757
1.05359
1.0873
1.16217
1.33815
1.82199
2.93838
2.68288
2.75823
2.73759
2.73584
2.85252
3.09754
3.18662
3.17346
1.00361
1.00935
1.01645
1.02333
1.02957
1.03755
1.05357
1.08724
1.16205
1.33788
1.82122
2.93573
2.6877
2.75627
2.73358
2.73622
2.85472
3.08253
3.19253
3.17763
1.00361
1.00934
1.01645
1.02333
1.02956
1.03754
1.05353
1.08716
1.16187
1.33749
1.82014
2.93232
2.69389
2.75424
2.72952
2.73515
2.85161
3.07137
3.19648
3.17846
1.00361
1.00934
1.01645
1.02332
1.02956
1.03752
1.05349
1.08706
1.16164
1.33696
1.81867
2.92826
2.69972
2.75348
2.72494
2.73306
2.84548
3.04693
3.19859
3.17728
1.00362
1.00934
1.01645
1.02332
1.02955
1.0375
1.05343
1.08693
1.16134
1.33627
1.81672
2.92412
2.70384
2.75413
2.72034
2.72946
2.83501
3.0315
3.19817
3.17338
1.00362
1.00934
1.01645
1.02332
1.02954
1.03746
1.05335
1.08676
1.16096
1.33539
1.81426
2.91972
2.70709
2.7554
2.71578
2.72483
2.82404
3.00017
3.19595
3.1684
1.00362
1.00934
1.01645
1.02331
1.02953
1.03743
1.05327
1.08656
1.1605
1.3343
1.81123
2.91482
2.70988
2.75657
2.71055
2.71819
2.81192
2.9804
3.18406
3.15494
1.00362
1.00934
1.01645
1.0233
1.02951
1.03738
1.05316
1.08632
1.15993
1.333
1.8073
2.90938
2.7122
2.75738
2.70557
2.71206
2.79775
2.94926
3.17269
3.14242
1.00362
1.00934
1.01645
1.02329
1.0295
1.03733
1.05304
1.08604
1.15926
1.33145
1.80221
2.90346
2.71413
2.75753
2.70009
2.70495
2.78526
2.92318
3.14766
3.12323
1.00362
1.00934
1.01644
1.02328
1.02948
1.03727
1.05289
1.0857
1.15847
1.32962
1.79626
2.89678
2.71554
2.75706
2.69446
2.69849
2.76816
2.89464
3.13138
3.10758
1.00362
1.00934
1.01644
1.02327
1.02946
1.0372
1.05272
1.08531
1.15755
1.32749
1.78939
2.88936
2.71615
2.7559
2.68872
2.69086
2.75775
2.86528
3.09439
3.08672
1.00362
1.00934
1.01644
1.02325
1.02944
1.03712
1.05253
1.08485
1.15647
1.32502
1.78157
2.88078
2.71629
2.75373
2.68365
2.68528
2.74074
2.8395
3.07052
3.05674
1.00362
1.00934
1.01643
1.02324
1.02941
1.03703
1.0523
1.08432
1.15524
1.32217
1.77264
2.87101
2.71603
2.75039
2.67787
2.6771
2.72804
2.80739
3.01969
3.01833
1.00363
1.00934
1.01642
1.02323
1.02938
1.03692
1.05204
1.08371
1.15382
1.31887
1.76242
2.85951
2.71611
2.74363
2.67462
2.67144
2.71096
2.78004
2.98819
2.97596
1.00363
1.00933
1.01642
1.02322
1.02935
1.0368
1.05173
1.08301
1.15219
1.31507
1.75071
2.84592
2.71635
2.73558
2.67218
2.66356
2.69511
2.74508
2.92331
2.91375
1.00364
1.00932
1.01641
1.02321
1.02931
1.03666
1.05139
1.08221
1.15033
1.3107
1.73725
2.82958
2.71591
2.7233
2.67042
2.65782
2.67798
2.71856
2.88201
2.84209
1.00077
1.00311
1.00642
1.01134
1.01676
1.02486
1.0413
1.0763
1.1546
1.34071
1.84239
3.04571
2.57492
2.7531
2.75395
2.75709
2.90598
3.17422
3.28941
3.21106
1.00077
1.00311
1.00642
1.01134
1.01676
1.02486
1.0413
1.0763
1.15459
1.34069
1.84244
3.04472
2.57585
2.75393
2.7534
2.75652
2.90804
3.17116
3.29076
3.21068
1.00077
1.00311
1.00642
1.01134
1.01676
1.02485
1.04129
1.07629
1.15458
1.34066
1.84247
3.04292
2.57717
2.75477
2.753
2.75611
2.91163
3.16448
3.29373
3.21115
1.00077
1.00311
1.00642
1.01134
1.01676
1.02485
1.04129
1.07628
1.15454
1.34059
1.84243
3.04018
2.57917
2.75535
2.75297
2.75629
2.91289
3.14789
3.29442
3.20759
1.00077
1.00311
1.00642
1.01134
1.01676
1.02485
1.04127
1.07625
1.15449
1.34047
1.84229
3.03637
2.58226
2.75434
2.75385
2.75875
2.90866
3.13067
3.29434
3.19726
1.00077
1.00311
1.00642
1.01134
1.01676
1.02484
1.04126
1.07621
1.1544
1.34028
1.84198
3.03156
2.58616
2.75226
2.75728
2.76159
2.89326
3.09954
3.29136
3.18903
1.00077
1.0031
1.00642
1.01133
1.01675
1.02483
1.04123
1.07616
1.15428
1.33999
1.84143
3.02574
2.59073
2.75091
2.75975
2.76194
2.87309
3.0778
3.28533
3.16763
1.00077
1.0031
1.00642
1.01133
1.01675
1.02482
1.0412
1.07608
1.15411
1.33957
1.8406
3.01889
2.59595
2.7503
2.76022
2.7606
2.85599
3.04041
3.26581
3.14961
1.00077
1.0031
1.00642
1.01133
1.01674
1.0248
1.04116
1.07598
1.15388
1.33901
1.83943
3.01094
2.602
2.75055
2.75795
2.75832
2.83872
3.01825
3.24725
3.12421
1.00077
1.0031
1.00642
1.01133
1.01674
1.02477
1.0411
1.07585
1.15358
1.33827
1.83788
3.0019
2.60873
2.75136
2.75298
2.75539
2.82278
2.9789
3.21957
3.10979
1.00077
1.0031
1.00642
1.01133
1.01673
1.02475
1.04103
1.07569
1.15321
1.33734
1.8359
2.99175
2.61602
2.75272
2.74558
2.75173
2.80779
2.95081
3.18309
3.07467
1.00077
1.00311
1.00642
1.01132
1.01672
1.02471
1.04095
1.0755
1.15276
1.33619
1.83343
2.98055
2.62349
2.75466
2.73646
2.74539
2.79676
2.91433
3.15683
3.05049
1.00077
1.00311
1.00642
1.01132
1.01671
1.02467
1.04085
1.07526
1.15221
1.3348
1.83046
2.9681
2.63151
2.75647
2.72811
2.73669
2.78222
2.88682
3.11821
3.01248
1.00077
1.00311
1.00641
1.01131
1.01669
1.02463
1.04073
1.07498
1.15155
1.33314
1.82693
2.95448
2.63972
2.7573
2.71994
2.72821
2.77007
2.85544
3.08399
2.98169
1.00078
1.00311
1.00641
1.01131
1.01668
1.02458
1.0406
1.07465
1.15079
1.3312
1.82277
2.93932
2.64793
2.75722
2.7115
2.7177
2.75659
2.82992
3.03628
2.94494
1.00078
1.00311
1.00641
1.0113
1.01666
1.02451
1.04044
1.07427
1.14989
1.32898
1.81768
2.92842
2.65798
2.75375
2.70426
2.7093
2.74268
2.80242
3.00055
2.90072
1.00078
1.00311
1.0064
1.0113
1.01665
1.02444
1.04025
1.07383
1.14886
1.32643
1.8116
2.9188
2.67077
2.74795
2.695
2.69893
2.73071
2.77547
2.94824
2.85925
1.00078
1.00311
1.0064
1.01129
1.01663
1.02436
1.04003
1.07331
1.14765
1.32346
1.80453
2.90891
2.67952
2.74536
2.68757
2.6898
2.71262
2.75032
2.908
2.80008
1.00078
1.0031
1.0064
1.01129
1.01661
1.02427
1.03978
1.07272
1.14626
1.32005
1.79567
2.89861
2.68521
2.74146
2.68051
2.67989
2.69767
2.71745
2.84539
2.74707
1.00078
1.0031
1.00639
1.01129
1.01658
1.02416
1.0395
1.07205
1.14466
1.31626
1.78311
2.88585
2.68973
2.73985
2.67254
2.66908
2.68153
2.69515
2.79848
2.65787
1.00019
1.0007
1.00192
1.00445
1.00859
1.01625
1.03234
1.06748
1.1475
1.34126
1.85421
3.13132
2.46713
2.73303
2.77212
2.78761
2.94019
3.1821
3.2853
3.12638
1.00019
1.0007
1.00192
1.00445
1.00859
1.01625
1.03234
1.06748
1.1475
1.34126
1.85432
3.13017
2.46819
2.73455
2.7725
2.78721
2.93871
3.17577
3.27897
3.10899
1.00019
1.0007
1.00192
1.00445
1.00859
1.01624
1.03233
1.06748
1.1475
1.34125
1.85449
3.12808
2.47008
2.73651
2.77318
2.78656
2.93657
3.16562
3.26824
3.07706
1.00019
1.0007
1.00192
1.00445
1.00859
1.01624
1.03233
1.06747
1.14748
1.34122
1.85466
3.12499
2.47326
2.7371
2.77567
2.78533
2.93089
3.1446
3.24504
3.03716
1.00019
1.0007
1.00192
1.00445
1.00859
1.01624
1.03232
1.06745
1.14745
1.34115
1.85478
3.12085
2.4778
2.73668
2.78029
2.78582
2.91511
3.12085
3.22172
2.99966
1.00019
1.0007
1.00192
1.00445
1.00859
1.01624
1.03231
1.06743
1.1474
1.34103
1.8548
3.11574
2.48346
2.73675
2.78351
2.78568
2.89485
3.08539
3.18074
2.96561
1.00019
1.0007
1.00192
1.00445
1.00859
1.01623
1.0323
1.06739
1.14732
1.34082
1.85467
3.10971
2.49014
2.73766
2.78457
2.78436
2.87202
3.05625
3.15294
2.92543
1.00019
1.0007
1.00192
1.00445
1.00859
1.01622
1.03227
1.06734
1.14719
1.34051
1.85431
3.10276
2.49782
2.73904
2.78435
2.78089
2.85282
3.01707
3.09885
2.89003
1.00019
1.0007
1.00192
1.00445
1.00858
1.01621
1.03224
1.06726
1.14702
1.34007
1.85369
3.0949
2.50642
2.7405
2.78345
2.77739
2.83374
2.98394
3.0691
2.8556
1.00019
1.0007
1.00192
1.00445
1.00858
1.01619
1.0322
1.06716
1.14679
1.33948
1.85275
3.08608
2.51587
2.74219
2.78135
2.77151
2.81688
2.94427
3.02273
2.82948
1.00019
1.0007
1.00191
1.00445
1.00857
1.01617
1.03215
1.06704
1.1465
1.33871
1.85145
3.07632
2.52609
2.74384
2.77747
2.76402
2.79968
2.91479
2.98222
2.78633
1.00019
1.0007
1.00191
1.00445
1.00856
1.01614
1.03208
1.06688
1.14613
1.33775
1.84974
3.06562
2.53687
2.74485
2.77215
2.75611
2.78695
2.87806
2.94312
2.76484
1.00019
1.0007
1.00191
1.00444
1.00855
1.01611
1.032
1.06669
1.14567
1.33656
1.84758
3.05382
2.54838
2.74689
2.76393
2.74778
2.77214
2.85626
2.90556
2.72839
1.00019
1.0007
1.00191
1.00444
1.00854
1.01607
1.0319
1.06645
1.14513
1.33514
1.84489
3.04115
2.5599
2.7498
2.75393
2.74111
2.7604
2.82479
2.86699
2.7014
1.00019
1.0007
1.00191
1.00444
1.00852
1.01602
1.03178
1.06618
1.14448
1.33345
1.84164
3.02729
2.57181
2.75186
2.74112
2.73108
2.74642
2.80379
2.8318
2.67112
1.00019
1.0007
1.00191
1.00443
1.00851
1.01597
1.03165
1.06585
1.14372
1.33146
1.83775
3.01227
2.58394
2.75318
2.73154
2.72414
2.73517
2.77074
2.79256
2.63512
1.00019
1.00069
1.0019
1.00443
1.00849
1.01591
1.03149
1.06547
1.14282
1.32914
1.83312
2.99599
2.59596
2.75351
2.72057
2.71157
2.72153
2.74961
2.75812
2.60451
1.00019
1.00069
1.0019
1.00442
1.00846
1.01583
1.0313
1.06503
1.14177
1.32642
1.82759
2.97839
2.60741
2.75281
2.7127
2.70333
2.70694
2.71527
2.71626
2.5562
1.00019
1.00069
1.0019
1.00441
1.00844
1.01575
1.03109
1.06452
1.14056
1.32324
1.82102
2.95878
2.61984
2.75132
2.70458
2.68951
2.69277
2.69269
2.67742
2.50936
1.00019
1.00069
1.0019
1.00441
1.00841
1.01565
1.03084
1.06393
1.13915
1.31954
1.81318
2.9365
2.62968
2.74955
2.69973
2.68119
2.67323
2.65945
2.62866
2.43359
1.00007
1.00024
1.00075
1.0021
1.00522
1.01218
1.02769
1.06264
1.14361
1.34286
1.86125
3.19195
2.37134
2.71471
2.80114
2.82023
2.94688
3.15448
3.1088
2.81357
1.00007
1.00024
1.00075
1.0021
1.00522
1.01218
1.02769
1.06264
1.14361
1.34287
1.86142
3.19066
2.37229
2.71682
2.80174
2.81908
2.94401
3.14615
3.09409
2.79648
1.00007
1.00024
1.00075
1.0021
1.00522
1.01218
1.02769
1.06264
1.14362
1.34288
1.8617
3.18836
2.37451
2.71903
2.80206
2.81636
2.93922
3.13305
3.07102
2.7689
1.00007
1.00024
1.00075
1.0021
1.00522
1.01218
1.02769
1.06264
1.14361
1.34288
1.86203
3.1851
2.37818
2.7211
2.80387
2.81264
2.92936
3.10477
3.03392
2.74127
1.00007
1.00024
1.00075
1.0021
1.00522
1.01218
1.02769
1.06263
1.1436
1.34284
1.86237
3.18085
2.38348
2.723
2.80632
2.80983
2.91103
3.06701
2.9936
2.71606
1.00007
1.00024
1.00075
1.0021
1.00522
1.01218
1.02768
1.06262
1.14357
1.34275
1.86265
3.17563
2.39041
2.72542
2.80718
2.80605
2.8918
3.02542
2.94773
2.69273
1.00007
1.00024
1.00075
1.0021
1.00521
1.01217
1.02767
1.06259
1.14351
1.3426
1.86285
3.16948
2.39872
2.72792
2.80671
2.80175
2.87061
2.98606
2.91666
2.66959
1.00007
1.00024
1.00075
1.0021
1.00521
1.01216
1.02765
1.06255
1.14342
1.34236
1.86288
3.16252
2.40807
2.73125
2.80525
2.79544
2.853
2.94968
2.8734
2.65106
1.00007
1.00024
1.00075
1.0021
1.00521
1.01215
1.02763
1.06249
1.14329
1.34201
1.86269
3.15478
2.41841
2.73522
2.80172
2.78801
2.83338
2.91755
2.84992
2.63103
1.00007
1.00024
1.00075
1.00209
1.0052
1.01214
1.02759
1.06241
1.14311
1.34152
1.86224
3.14621
2.42975
2.73912
2.79746
2.7779
2.81657
2.88361
2.81467
2.61587
1.00007
1.00024
1.00074
1.00209
1.00519
1.01212
1.02755
1.06231
1.14287
1.34087
1.86148
3.13678
2.44199
2.74315
2.79327
2.76899
2.79741
2.85809
2.78904
2.59208
1.00006
1.00024
1.00074
1.00209
1.00518
1.01209
1.02749
1.06218
1.14256
1.34005
1.86036
3.12648
2.45503
2.74569
2.78785
2.75855
2.78597
2.82935
2.76371
2.58006
1.00006
1.00023
1.00074
1.00208
1.00517
1.01206
1.02742
1.06201
1.14217
1.33901
1.85885
3.11514
2.46906
2.74898
2.78177
2.74753
2.76638
2.80631
2.73753
2.55581
1.00006
1.00023
1.00074
1.00208
1.00515
1.01203
1.02733
1.06181
1.1417
1.33775
1.85685
3.10304
2.48345
2.75055
2.77575
2.73598
2.75253
2.77585
2.70865
2.54151
1.00006
1.00023
1.00074
1.00207
1.00514
1.01198
1.02723
1.06156
1.14112
1.33623
1.85433
3.0899
2.49826
2.75079
2.76812
2.72553
2.73247
2.75291
2.68281
2.51556
1.00006
1.00023
1.00073
1.00206
1.00511
1.01193
1.0271
1.06127
1.14044
1.33442
1.85121
3.07556
2.51394
2.75126
2.75926
2.71725
2.71881
2.72037
2.65503
2.49327
1.00006
1.00023
1.00073
1.00205
1.00509
1.01187
1.02695
1.06093
1.13963
1.33228
1.84733
3.0605
2.52872
2.75192
2.74629
2.71054
2.70145
2.70026
2.62705
2.46771
1.00006
1.00023
1.00072
1.00204
1.00506
1.01179
1.02678
1.06052
1.13868
1.32974
1.84264
3.04363
2.54519
2.75297
2.73629
2.70499
2.68751
2.66883
2.59191
2.42874
1.00006
1.00023
1.00072
1.00203
1.00502
1.01171
1.02658
1.06005
1.13755
1.32677
1.83685
3.02635
2.55875
2.7522
2.72825
2.69625
2.67531
2.65246
2.55739
2.3867
1.00006
1.00022
1.00071
1.00201
1.00498
1.01161
1.02635
1.0595
1.13625
1.32327
1.82988
3.00597
2.57578
2.75296
2.71911
2.69193
2.66043
2.6198
2.51286
2.31906
1.00007
1.00022
1.00063
1.00169
1.00438
1.01084
1.02586
1.06059
1.14209
1.34466
1.86452
3.22555
2.30983
2.70586
2.80569
2.84212
2.95463
3.03539
2.86422
2.60357
1.00007
1.00022
1.00063
1.00169
1.00438
1.01084
1.02586
1.06059
1.1421
1.34468
1.86473
3.22415
2.31071
2.70803
2.80757
2.8396
2.95072
3.02959
2.85194
2.59444
1.00007
1.00022
1.00063
1.00169
1.00438
1.01084
1.02586
1.06059
1.14211
1.3447
1.86507
3.22171
2.31313
2.70964
2.8101
2.83352
2.94209
3.01929
2.83521
2.58271
1.00007
1.00022
1.00063
1.00169
1.00438
1.01084
1.02586
1.06059