/*--------------------------------*- C++ -*----------------------------------*\
  =========                 |
  \\      /  F ield         | OpenFOAM: The Open Source CFD Toolbox
   \\    /   O peration     | Website:  https://openfoam.org
    \\  /    A nd           | Version:  6.0
     \\/     M anipulation  |
\*---------------------------------------------------------------------------*/
FoamFile
{
    version     2.0;
    format      ascii;
    class       volVectorField;
    location    "2";
    object      U;
}
// * * * * * * * * * * * * * * * * * * * * * * * * * * * * * * * * * * * * * //

dimensions      [0 1 -1 0 0 0 0];

internalField   nonuniform List<vector> 
1200
(
(2.9999 1.93854e-08 0)
(2.9997 1.18646e-07 0)
(2.99926 3.88219e-07 0)
(2.99828 1.02944e-06 0)
(2.99611 2.48809e-06 0)
(2.99127 5.7492e-06 0)
(2.98038 1.29948e-05 0)
(2.95552 2.91126e-05 0)
(2.89674 6.53174e-05 0)
(2.74747 0.00014851 0)
(2.31154 0.000350066 0)
(0.954591 0.00101235 0)
(-0.074176 0.00432155 0)
(0.0943975 0.00970619 0)
(0.351575 0.0176228 0)
(0.481563 0.0254318 0)
(0.463586 0.0270288 0)
(0.378144 0.0140303 0)
(0.18812 0.0232935 0)
(0.11408 -0.083893 0)
(2.9999 5.93254e-08 0)
(2.9997 3.63014e-07 0)
(2.99926 1.18785e-06 0)
(2.99828 3.14987e-06 0)
(2.99611 7.61322e-06 0)
(2.99127 1.75939e-05 0)
(2.98039 3.97835e-05 0)
(2.95554 8.92326e-05 0)
(2.89678 0.000200808 0)
(2.74757 0.000460095 0)
(2.31181 0.00110528 0)
(0.955625 0.00327569 0)
(-0.0726615 0.0142132 0)
(0.0998189 0.0293483 0)
(0.362016 0.0490477 0)
(0.489659 0.0639177 0)
(0.466087 0.0626757 0)
(0.391627 0.0351879 0)
(0.190049 0.050265 0)
(0.0584868 -0.0106152 0)
(2.9999 1.02685e-07 0)
(2.9997 6.28336e-07 0)
(2.99926 2.05646e-06 0)
(2.99828 5.45429e-06 0)
(2.99611 1.3187e-05 0)
(2.99128 3.04925e-05 0)
(2.98041 6.90303e-05 0)
(2.95557 0.000155179 0)
(2.89686 0.00035075 0)
(2.74777 0.000811016 0)
(2.31241 0.00198778 0)
(0.958394 0.00605388 0)
(-0.0682016 0.0265126 0)
(0.107864 0.0512568 0)
(0.37379 0.0815029 0)
(0.497283 0.101816 0)
(0.465492 0.103355 0)
(0.395295 0.068359 0)
(0.183165 0.0873954 0)
(0.017035 0.0634905 0)
(2.99991 1.51188e-07 0)
(2.9997 9.25344e-07 0)
(2.99926 3.02959e-06 0)
(2.99828 8.03777e-06 0)
(2.99612 1.9442e-05 0)
(2.99129 4.49942e-05 0)
(2.98043 0.000102015 0)
(2.95563 0.000229912 0)
(2.897 0.000521862 0)
(2.7481 0.00121553 0)
(2.31346 0.00302121 0)
(0.963301 0.00936182 0)
(-0.0604859 0.0403703 0)
(0.118272 0.0740732 0)
(0.386051 0.112563 0)
(0.504882 0.136381 0)
(0.463568 0.143095 0)
(0.394404 0.108221 0)
(0.178728 0.122909 0)
(-0.00715197 0.11583 0)
(2.99991 2.05677e-07 0)
(2.9997 1.25942e-06 0)
(2.99926 4.12589e-06 0)
(2.99829 1.09518e-05 0)
(2.99613 2.65067e-05 0)
(2.99131 6.14032e-05 0)
(2.98047 0.000139435 0)
(2.95571 0.000314995 0)
(2.89719 0.000717562 0)
(2.74859 0.00168087 0)
(2.31503 0.00421929 0)
(0.970584 0.0131896 0)
(-0.0494017 0.0553844 0)
(0.130802 0.0977079 0)
(0.398598 0.142761 0)
(0.512276 0.169329 0)
(0.461803 0.180652 0)
(0.391036 0.152091 0)
(0.181638 0.154116 0)
(-0.0175207 0.153109 0)
(2.99991 2.66608e-07 0)
(2.9997 1.63376e-06 0)
(2.99926 5.35754e-06 0)
(2.99829 1.42335e-05 0)
(2.99614 3.448e-05 0)
(2.99133 7.99627e-05 0)
(2.98052 0.000181856 0)
(2.95582 0.000411679 0)
(2.89745 0.000940533 0)
(2.74926 0.00221257 0)
(2.3172 0.00559224 0)
(0.980438 0.0175324 0)
(-0.0348532 0.0714134 0)
(0.145291 0.122161 0)
(0.411334 0.172503 0)
(0.5194 0.201311 0)
(0.461145 0.216531 0)
(0.38617 0.197927 0)
(0.191838 0.184558 0)
(-0.0177761 0.188913 0)
(2.99991 3.34908e-07 0)
(2.9997 2.05397e-06 0)
(2.99927 6.74261e-06 0)
(2.9983 1.79311e-05 0)
(2.99615 4.34796e-05 0)
(2.99136 0.00010094 0)
(2.98058 0.000229855 0)
(2.95597 0.000521171 0)
(2.89779 0.00119322 0)
(2.75013 0.00281542 0)
(2.32005 0.00714835 0)
(0.993015 0.0223869 0)
(-0.0167872 0.0883371 0)
(0.161594 0.147351 0)
(0.424121 0.20193 0)
(0.526236 0.232388 0)
(0.46195 0.25071 0)
(0.38076 0.2415 0)
(0.202588 0.217669 0)
(-0.0109154 0.227821 0)
(2.99991 4.11912e-07 0)
(2.99971 2.52773e-06 0)
(2.99927 8.30447e-06 0)
(2.9983 2.21025e-05 0)
(2.99616 5.3636e-05 0)
(2.99139 0.000124619 0)
(2.98066 0.000284038 0)
(2.95615 0.000644749 0)
(2.89822 0.00147831 0)
(2.75123 0.00349505 0)
(2.32366 0.00889872 0)
(1.00844 0.0277637 0)
(0.00482585 0.106097 0)
(0.179584 0.173243 0)
(0.436848 0.231112 0)
(0.532687 0.262626 0)
(0.463587 0.283308 0)
(0.375338 0.280962 0)
(0.212039 0.254098 0)
(3.10837e-05 0.269864 0)
(2.99991 4.9891e-07 0)
(2.99971 3.06281e-06 0)
(2.99927 1.0068e-05 0)
(2.99831 2.68114e-05 0)
(2.99618 6.50993e-05 0)
(2.99143 0.000151338 0)
(2.98075 0.000345154 0)
(2.95636 0.000784056 0)
(2.89874 0.0017994 0)
(2.7526 0.00425951 0)
(2.32809 0.0108608 0)
(1.02681 0.0336928 0)
(0.0300084 0.124687 0)
(0.199143 0.199854 0)
(0.449406 0.260114 0)
(0.538709 0.292145 0)
(0.465744 0.31468 0)
(0.37051 0.317733 0)
(0.220662 0.293942 0)
(0.0117763 0.313847 0)
(2.99991 5.97434e-07 0)
(2.99971 3.66863e-06 0)
(2.99928 1.20639e-05 0)
(2.99832 3.21393e-05 0)
(2.99621 7.80658e-05 0)
(2.99148 0.000181551 0)
(2.98087 0.000414228 0)
(2.95663 0.000941398 0)
(2.89938 0.00216165 0)
(2.75425 0.00512044 0)
(2.33342 0.0130606 0)
(1.04824 0.0402264 0)
(0.0587854 0.144143 0)
(0.220154 0.227193 0)
(0.46173 0.289042 0)
(0.544292 0.321145 0)
(0.468266 0.345222 0)
(0.366845 0.353209 0)
(0.228257 0.336427 0)
(0.0243247 0.35944 0)
(2.99991 7.09564e-07 0)
(2.99971 4.35786e-06 0)
(2.99928 1.43336e-05 0)
(2.99833 3.81962e-05 0)
(2.99623 9.28025e-05 0)
(2.99154 0.00021588 0)
(2.98101 0.000492686 0)
(2.95695 0.00112001 0)
(2.90013 0.00257241 0)
(2.75623 0.00609452 0)
(2.33975 0.0155364 0)
(1.07282 0.0474385 0)
(0.0911676 0.164526 0)
(0.24252 0.255363 0)
(0.47377 0.317912 0)
(0.549464 0.349663 0)
(0.471242 0.375133 0)
(0.364827 0.388177 0)
(0.235862 0.381284 0)
(0.0363724 0.406653 0)
(2.99991 8.38064e-07 0)
(2.99971 5.14743e-06 0)
(2.99929 1.69327e-05 0)
(2.99835 4.51302e-05 0)
(2.99626 0.000109672 0)
(2.99162 0.000255175 0)
(2.98117 0.000582473 0)
(2.95732 0.0013243 0)
(2.90103 0.00304163 0)
(2.75857 0.00720459 0)
(2.34717 0.0183428 0)
(1.10064 0.055466 0)
(0.127124 0.185999 0)
(0.266085 0.284343 0)
(0.48534 0.346694 0)
(0.554269 0.377708 0)
(0.474793 0.404514 0)
(0.364982 0.423162 0)
(0.243675 0.428358 0)
(0.0485874 0.456067 0)
(2.99991 9.86546e-07 0)
(2.99972 6.05939e-06 0)
(2.9993 1.99332e-05 0)
(2.99837 5.31336e-05 0)
(2.9963 0.000129143 0)
(2.9917 0.000300531 0)
(2.98136 0.000686101 0)
(2.95777 0.00155998 0)
(2.9021 0.00358238 0)
(2.76133 0.00848125 0)
(2.35581 0.021554 0)
(1.13184 0.0645022 0)
(0.16661 0.208742 0)
(0.290722 0.314211 0)
(0.496406 0.375332 0)
(0.558754 0.40516 0)
(0.479162 0.433317 0)
(0.367847 0.458388 0)
(0.252678 0.477156 0)
(0.0605374 0.508299 0)
(2.99991 1.15945e-06 0)
(2.99972 7.12087e-06 0)
(2.9993 2.34241e-05 0)
(2.99839 6.2443e-05 0)
(2.99635 0.000151793 0)
(2.9918 0.000353306 0)
(2.98159 0.000806703 0)
(2.95829 0.00183424 0)
(2.90334 0.00421119 0)
(2.76457 0.00996293 0)
(2.36582 0.0252621 0)
(1.16656 0.0747524 0)
(0.209584 0.232868 0)
(0.316213 0.345285 0)
(0.50668 0.403532 0)
(0.562926 0.431702 0)
(0.484607 0.461396 0)
(0.373796 0.494171 0)
(0.263293 0.527712 0)
(0.0728059 0.564636 0)
(2.99991 1.36187e-06 0)
(2.99972 8.36303e-06 0)
(2.99931 2.75077e-05 0)
(2.99841 7.33346e-05 0)
(2.9964 0.000178308 0)
(2.99192 0.000415143 0)
(2.98186 0.000948175 0)
(2.9589 0.00215629 0)
(2.90481 0.00495018 0)
(2.76835 0.0117028 0)
(2.37739 0.0296082 0)
(1.20489 0.0865557 0)
(0.255899 0.258638 0)
(0.342205 0.377814 0)
(0.516059 0.430976 0)
(0.566927 0.456962 0)
(0.491583 0.488548 0)
(0.383503 0.530713 0)
(0.276606 0.580261 0)
(0.0859285 0.626373 0)
(2.99991 1.59872e-06 0)
(2.99973 9.81615e-06 0)
(2.99933 3.22852e-05 0)
(2.99844 8.60858e-05 0)
(2.99646 0.000209397 0)
(2.99206 0.000487807 0)
(2.98217 0.00111486 0)
(2.95963 0.00253679 0)
(2.90653 0.00582547 0)
(2.7728 0.0137664 0)
(2.39077 0.0347496 0)
(1.24715 0.100343 0)
(0.30525 0.286992 0)
(0.368156 0.41203 0)
(0.524215 0.456276 0)
(0.570867 0.480198 0)
(0.500599 0.514577 0)
(0.39749 0.568458 0)
(0.293399 0.635098 0)
(0.100844 0.695566 0)
(2.99992 1.87297e-06 0)
(2.99973 1.1499e-05 0)
(2.99934 3.78221e-05 0)
(2.99847 0.000100892 0)
(2.99653 0.000245609 0)
(2.99222 0.000572822 0)
(2.98254 0.00131094 0)
(2.96048 0.00298714 0)
(2.90856 0.00686759 0)
(2.77802 0.0162383 0)
(2.4063 0.0409163 0)
(1.2939 0.116903 0)
(0.357451 0.319752 0)
(0.392938 0.448016 0)
(0.530651 0.47702 0)
(0.575322 0.500296 0)
(0.512558 0.539575 0)
(0.416551 0.607859 0)
(0.315196 0.692027 0)
(0.11916 0.775448 0)
(2.99992 2.18223e-06 0)
(2.99974 1.3398e-05 0)
(2.99936 4.40818e-05 0)
(2.9985 0.00011769 0)
(2.99662 0.000286918 0)
(2.99241 0.000670518 0)
(2.98298 0.00153833 0)
(2.96148 0.00351498 0)
(2.91096 0.00810383 0)
(2.7842 0.01921 0)
(2.42453 0.0484581 0)
(1.34641 0.137647 0)
(0.412227 0.360396 0)
(0.414503 0.48251 0)
(0.534226 0.491369 0)
(0.58122 0.515255 0)
(0.528565 0.564855 0)
(0.440981 0.647975 0)
(0.344015 0.751956 0)
(0.14293 0.870876 0)
(2.99992 2.51264e-06 0)
(2.99975 1.54277e-05 0)
(2.99937 5.07818e-05 0)
(2.99855 0.000135726 0)
(2.99672 0.000331519 0)
(2.99264 0.000776862 0)
(2.98349 0.00178853 0)
(2.96267 0.0041038 0)
(2.91382 0.00950614 0)
(2.7916 0.0226558 0)
(2.4464 0.0574887 0)
(1.40813 0.163846 0)
(0.468695 0.418282 0)
(0.429537 0.50386 0)
(0.533088 0.502409 0)
(0.589755 0.525754 0)
(0.549158 0.589857 0)
(0.47167 0.688094 0)
(0.383131 0.818514 0)
(0.174082 0.988207 0)
(2.99992 2.84554e-06 0)
(2.99976 1.74753e-05 0)
(2.9994 5.75567e-05 0)
(2.9986 0.000154021 0)
(2.99683 0.000376909 0)
(2.9929 0.000885454 0)
(2.98409 0.0020449 0)
(2.96406 0.00470928 0)
(2.9172 0.0109555 0)
(2.80047 0.0262502 0)
(2.47323 0.0670821 0)
(1.48819 0.191655 0)
(0.52798 0.485313 0)
(0.435539 0.509758 0)
(0.532762 0.50924 0)
(0.600559 0.532153 0)
(0.575011 0.611659 0)
(0.510161 0.727555 0)
(0.436051 0.890315 0)
(0.215726 1.13129 0)
(2.99993 3.35083e-06 0)
(2.99978 2.05803e-05 0)
(2.99946 6.78192e-05 0)
(2.99874 0.000181743 0)
(2.99716 0.000445787 0)
(2.99364 0.00105057 0)
(2.98579 0.00243542 0)
(2.96805 0.00563139 0)
(2.92694 0.0131443 0)
(2.82643 0.031518 0)
(2.55324 0.0801424 0)
(1.74946 0.226671 0)
(0.761958 0.61128 0)
(0.500973 0.559506 0)
(0.563942 0.543225 0)
(0.656012 0.55924 0)
(0.697322 0.647841 0)
(0.711058 0.788619 0)
(0.773115 0.975336 0)
(0.687472 1.2563 0)
(2.99995 3.62534e-06 0)
(2.99983 2.23049e-05 0)
(2.99957 7.35387e-05 0)
(2.99902 0.000196301 0)
(2.9978 0.000477433 0)
(2.99511 0.00111092 0)
(2.98919 0.00253263 0)
(2.97604 0.00573497 0)
(2.94635 0.0130422 0)
(2.87674 0.0302205 0)
(2.69885 0.0732292 0)
(2.20534 0.194376 0)
(1.11094 0.549784 0)
(0.627588 0.587642 0)
(0.642725 0.601353 0)
(0.735519 0.609821 0)
(0.823709 0.665122 0)
(0.882784 0.776119 0)
(1.00007 0.914093 0)
(1.05967 1.06215 0)
(2.99996 2.79254e-06 0)
(2.99987 1.71951e-05 0)
(2.99969 5.66395e-05 0)
(2.99928 0.000150362 0)
(2.99838 0.000361941 0)
(2.99638 0.000829542 0)
(2.99196 0.00185392 0)
(2.98209 0.00409427 0)
(2.95974 0.00902759 0)
(2.90755 0.0201226 0)
(2.77749 0.046459 0)
(2.41293 0.118062 0)
(1.47579 0.321826 0)
(0.768565 0.561324 0)
(0.74567 0.640205 0)
(0.816145 0.667602 0)
(0.92951 0.688759 0)
(1.02141 0.753683 0)
(1.14468 0.845959 0)
(1.24413 0.917333 0)
(2.99997 2.05033e-06 0)
(2.9999 1.25957e-05 0)
(2.99975 4.14198e-05 0)
(2.99942 0.000110184 0)
(2.9987 0.000266796 0)
(2.9971 0.00061731 0)
(2.99354 0.0013973 0)
(2.98557 0.00313428 0)
(2.96753 0.00703114 0)
(2.9256 0.0159351 0)
(2.82252 0.0371376 0)
(2.54068 0.0922061 0)
(1.73932 0.254167 0)
(0.939311 0.616233 0)
(0.836907 0.682728 0)
(0.86547 0.717892 0)
(0.972889 0.728146 0)
(1.10269 0.753395 0)
(1.23193 0.804097 0)
(1.33634 0.843988 0)
(2.99998 2.0561e-06 0)
(2.99993 1.26416e-05 0)
(2.99982 4.16475e-05 0)
(2.99958 0.000111131 0)
(2.99905 0.000270244 0)
(2.99789 0.000628599 0)
(2.99531 0.00143128 0)
(2.9896 0.00322955 0)
(2.97679 0.00727971 0)
(2.94756 0.0165256 0)
(2.87807 0.038267 0)
(2.69739 0.0926818 0)
(2.18297 0.244981 0)
(1.28557 0.646355 0)
(0.963632 0.732692 0)
(0.94963 0.778176 0)
(1.01962 0.794588 0)
(1.14259 0.789671 0)
(1.27885 0.800192 0)
(1.38642 0.814908 0)
(2.99998 1.66822e-06 0)
(2.99995 1.02625e-05 0)
(2.99988 3.38145e-05 0)
(2.99973 9.01242e-05 0)
(2.99939 0.000218617 0)
(2.99865 0.000506648 0)
(2.99701 0.00114808 0)
(2.99337 0.00257487 0)
(2.98529 0.00575811 0)
(2.96706 0.0129261 0)
(2.92484 0.0294138 0)
(2.82085 0.0691954 0)
(2.52934 0.176664 0)
(1.8051 0.47416 0)
(1.20612 0.757043 0)
(1.09776 0.817114 0)
(1.10018 0.846473 0)
(1.17965 0.840055 0)
(1.31093 0.823022 0)
(1.41932 0.81485 0)
(2.99999 1.14271e-06 0)
(2.99997 7.02525e-06 0)
(2.99992 2.31237e-05 0)
(2.99983 6.15478e-05 0)
(2.99961 0.000149049 0)
(2.99913 0.00034472 0)
(2.99807 0.000779225 0)
(2.99574 0.00174223 0)
(2.99059 0.00387974 0)
(2.9791 0.00865179 0)
(2.95303 0.0194547 0)
(2.89151 0.0446958 0)
(2.73277 0.108365 0)
(2.29474 0.287317 0)
(1.54363 0.694465 0)
(1.26415 0.811002 0)
(1.21695 0.858611 0)
(1.23694 0.871782 0)
(1.33226 0.855176 0)
(1.43926 0.830032 0)
(2.99999 8.12564e-07 0)
(2.99998 4.99581e-06 0)
(2.99996 1.64458e-05 0)
(2.9999 4.37761e-05 0)
(2.99977 0.000106011 0)
(2.99949 0.000245154 0)
(2.99887 0.000553957 0)
(2.99751 0.00123752 0)
(2.9945 0.00275097 0)
(2.98781 0.00611219 0)
(2.97282 0.0136388 0)
(2.93834 0.0308119 0)
(2.85454 0.0717642 0)
(2.62337 0.181208 0)
(2.05253 0.470922 0)
(1.49242 0.802904 0)
(1.35823 0.870753 0)
(1.33539 0.894987 0)
(1.37946 0.889709 0)
(1.45933 0.859927 0)
(3 4.61725e-07 0)
(2.99999 2.8401e-06 0)
(2.99998 9.35553e-06 0)
(2.99994 2.49276e-05 0)
(2.99988 6.04304e-05 0)
(2.99972 0.000139885 0)
(2.9994 0.000316366 0)
(2.99867 0.000707263 0)
(2.99709 0.00157283 0)
(2.99362 0.00349309 0)
(2.98593 0.00777553 0)
(2.96871 0.0174402 0)
(2.929 0.0398538 0)
(2.82986 0.0956711 0)
(2.55036 0.253271 0)
(1.93384 0.620953 0)
(1.56382 0.811582 0)
(1.4702 0.868744 0)
(1.45968 0.895025 0)
(1.49885 0.885637 0)
(3 2.52637e-07 0)
(2.99999 1.55868e-06 0)
(2.99999 5.15074e-06 0)
(2.99997 1.37401e-05 0)
(2.99992 3.32644e-05 0)
(2.99983 7.67139e-05 0)
(2.99963 0.000172512 0)
(2.99918 0.000382894 0)
(2.99821 0.000844317 0)
(2.99608 0.00185685 0)
(2.9914 0.00408446 0)
(2.98103 0.00901574 0)
(2.95768 0.0200883 0)
(2.90321 0.0457829 0)
(2.76411 0.111298 0)
(2.3978 0.289426 0)
(1.8241 0.666536 0)
(1.61361 0.801263 0)
(1.56561 0.867914 0)
(1.56065 0.896461 0)
(3 1.75329e-07 0)
(3 1.07968e-06 0)
(2.99999 3.55905e-06 0)
(2.99998 9.46941e-06 0)
(2.99996 2.28781e-05 0)
(2.99991 5.26962e-05 0)
(2.9998 0.000118447 0)
(2.99957 0.000262912 0)
(2.99906 0.000579898 0)
(2.99794 0.00127537 0)
(2.99548 0.00280297 0)
(2.99005 0.00616866 0)
(2.97798 0.0136382 0)
(2.95054 0.0304897 0)
(2.88493 0.0700722 0)
(2.7071 0.173403 0)
(2.283 0.435953 0)
(1.85432 0.743067 0)
(1.7288 0.849 0)
(1.68849 0.903284 0)
(3 9.55501e-08 0)
(3 5.86982e-07 0)
(3 1.93011e-06 0)
(2.99999 5.13222e-06 0)
(2.99998 1.24127e-05 0)
(2.99996 2.86538e-05 0)
(2.99991 6.45859e-05 0)
(2.9998 0.00014379 0)
(2.99956 0.000318102 0)
(2.99905 0.000701563 0)
(2.99792 0.00154556 0)
(2.99547 0.00340648 0)
(2.99008 0.00752662 0)
(2.97811 0.0167318 0)
(2.95089 0.0377315 0)
(2.88457 0.0884024 0)
(2.69995 0.225147 0)
(2.3042 0.525524 0)
(1.96321 0.785499 0)
(1.85231 0.88491 0)
(3 4.54896e-08 0)
(3 2.798e-07 0)
(3 9.21454e-07 0)
(3 2.45303e-06 0)
(2.99999 5.9347e-06 0)
(2.99998 1.36894e-05 0)
(2.99996 3.08021e-05 0)
(2.99991 6.84035e-05 0)
(2.9998 0.000150873 0)
(2.99957 0.000331667 0)
(2.99908 0.000728199 0)
(2.99802 0.00159907 0)
(2.99573 0.00351648 0)
(2.99076 0.00775887 0)
(2.97982 0.0172382 0)
(2.95515 0.0389111 0)
(2.89511 0.0917073 0)
(2.73231 0.23221 0)
(2.39004 0.527349 0)
(2.08396 0.79179 0)
(3 2.21679e-08 0)
(3 1.37119e-07 0)
(3 4.53765e-07 0)
(3 1.20661e-06 0)
(3 2.89953e-06 0)
(2.99999 6.61509e-06 0)
(2.99998 1.46799e-05 0)
(2.99996 3.20968e-05 0)
(2.99991 6.96312e-05 0)
(2.99982 0.000150468 0)
(2.99961 0.000324595 0)
(2.99919 0.000699988 0)
(2.99829 0.00151051 0)
(2.99642 0.00326539 0)
(2.99247 0.00708428 0)
(2.98406 0.0154847 0)
(2.96573 0.0344071 0)
(2.92219 0.0801143 0)
(2.81064 0.198765 0)
(2.55978 0.450442 0)
(3 9.99262e-09 0)
(3 6.1804e-08 0)
(3 2.0419e-07 0)
(3 5.40162e-07 0)
(3 1.28678e-06 0)
(3 2.90059e-06 0)
(2.99999 6.34007e-06 0)
(2.99998 1.36135e-05 0)
(2.99996 2.89194e-05 0)
(2.99991 6.10131e-05 0)
(2.99981 0.000128107 0)
(2.9996 0.000268001 0)
(2.99916 0.000559091 0)
(2.99819 0.00116412 0)
(2.99613 0.00242284 0)
(2.99169 0.00505188 0)
(2.98206 0.0106075 0)
(2.96072 0.0226578 0)
(2.91107 0.0514146 0)
(2.77377 0.119435 0)
(3 4.02137e-09 0)
(3 2.4689e-08 0)
(3 8.09937e-08 0)
(3 2.14138e-07 0)
(3 5.12739e-07 0)
(3 1.16624e-06 0)
(2.99999 2.57814e-06 0)
(2.99999 5.60584e-06 0)
(2.99998 1.20686e-05 0)
(2.99995 2.58234e-05 0)
(2.99989 5.50431e-05 0)
(2.99976 0.000117045 0)
(2.99949 0.000248543 0)
(2.9989 0.000527451 0)
(2.99765 0.00111958 0)
(2.99497 0.00237913 0)
(2.98924 0.00507139 0)
(2.97694 0.0108685 0)
(2.95014 0.023655 0)
(2.88021 0.0526828 0)
(3 2.03886e-09 0)
(3 1.25739e-08 0)
(3 4.14721e-08 0)
(3 1.10077e-07 0)
(3 2.64224e-07 0)
(3 6.01916e-07 0)
(3 1.33202e-06 0)
(2.99999 2.8984e-06 0)
(2.99999 6.24186e-06 0)
(2.99997 1.33511e-05 0)
(2.99994 2.84186e-05 0)
(2.99986 6.0255e-05 0)
(2.9997 0.000127317 0)
(2.99936 0.000268127 0)
(2.9986 0.000562816 0)
(2.99697 0.00117729 0)
(2.9934 0.00245544 0)
(2.98557 0.00510374 0)
(2.96818 0.0106134 0)
(2.92218 0.0222597 0)
(3 9.62207e-10 0)
(3 6.01238e-09 0)
(3 2.00156e-08 0)
(3 5.27255e-08 0)
(3 1.23976e-07 0)
(3 2.74646e-07 0)
(3 5.89798e-07 0)
(3 1.24777e-06 0)
(2.99999 2.6247e-06 0)
(2.99998 5.51713e-06 0)
(2.99995 1.16161e-05 0)
(2.99989 2.45138e-05 0)
(2.99977 5.18385e-05 0)
(2.99948 0.000109778 0)
(2.99886 0.00023268 0)
(2.99749 0.000493586 0)
(2.99446 0.00104848 0)
(2.98772 0.00223441 0)
(2.9726 0.00479413 0)
(2.93286 0.0104246 0)
(3 5.01419e-10 0)
(3 3.05403e-09 0)
(3 9.87097e-09 0)
(3 2.54659e-08 0)
(3 5.92437e-08 0)
(3 1.30928e-07 0)
(3 2.82003e-07 0)
(3 6.00054e-07 0)
(2.99999 1.27098e-06 0)
(2.99998 2.69165e-06 0)
(2.99996 5.71388e-06 0)
(2.99992 1.21726e-05 0)
(2.99982 2.60248e-05 0)
(2.9996 5.57955e-05 0)
(2.99911 0.000119812 0)
(2.99805 0.000257468 0)
(2.99571 0.000553626 0)
(2.99054 0.00119333 0)
(2.97903 0.00258743 0)
(2.95001 0.00568154 0)
(3 1.45411e-10 0)
(3 8.76464e-10 0)
(3 2.81444e-09 0)
(3 7.33971e-09 0)
(3 1.74425e-08 0)
(3 3.94068e-08 0)
(3 8.60361e-08 0)
(3 1.82583e-07 0)
(2.99999 3.77158e-07 0)
(2.99998 7.58051e-07 0)
(2.99996 1.48067e-06 0)
(2.99992 2.8051e-06 0)
(2.99982 5.13675e-06 0)
(2.99961 9.03196e-06 0)
(2.99913 1.50323e-05 0)
(2.99807 2.29163e-05 0)
(2.99571 2.91503e-05 0)
(2.99043 1.96666e-05 0)
(2.97855 -5.06639e-05 0)
(2.94802 -0.000304692 0)
(1.29653 1.1503 0)
(1.48852 0.938103 0)
(1.52762 0.488219 0)
(1.45522 -0.0156467 0)
(1.52805 -0.0826955 0)
(1.48903 -0.043278 0)
(1.46063 -0.0282962 0)
(1.42161 -0.0263557 0)
(1.36006 -0.0376133 0)
(1.24651 -0.0815958 0)
(1.09468 -0.210449 0)
(0.855794 -0.230804 0)
(0.745977 -0.105349 0)
(0.901967 -0.0162395 0)
(1.10821 0.0139396 0)
(1.26254 0.0131436 0)
(1.36228 0.00595394 0)
(1.43625 0.0258168 0)
(1.5157 0.0491659 0)
(1.56928 0.0710896 0)
(1.47258 0.85289 0)
(1.59907 0.43586 0)
(1.61488 0.0972199 0)
(1.67052 -0.0876732 0)
(1.72771 -0.0996223 0)
(1.71409 -0.0672253 0)
(1.68379 -0.059564 0)
(1.64044 -0.0701103 0)
(1.57053 -0.0997373 0)
(1.44937 -0.156066 0)
(1.36694 -0.281174 0)
(1.24163 -0.279565 0)
(1.22717 -0.0556354 0)
(1.328 0.0447626 0)
(1.45866 0.0585241 0)
(1.56865 0.0358945 0)
(1.64757 0.0193124 0)
(1.70249 0.0369344 0)
(1.75135 0.0653289 0)
(1.77561 0.0837583 0)
(1.54788 0.716145 0)
(1.70233 0.389513 0)
(1.83485 0.245936 0)
(1.90537 0.195003 0)
(1.93136 0.111711 0)
(1.90771 0.0114394 0)
(1.87087 -0.0760112 0)
(1.82535 -0.134965 0)
(1.76231 -0.178245 0)
(1.66182 -0.227741 0)
(1.58786 -0.295564 0)
(1.50804 -0.275553 0)
(1.52375 -0.0563078 0)
(1.63938 -0.0189107 0)
(1.72187 -0.0117004 0)
(1.80032 -0.0167123 0)
(1.86728 -0.00826972 0)
(1.9104 0.00624696 0)
(1.93614 0.0325996 0)
(1.95935 0.0552912 0)
(1.59978 0.721342 0)
(1.75397 0.525965 0)
(1.87908 0.339143 0)
(1.95842 0.197429 0)
(1.98637 0.0846187 0)
(1.98009 -0.0387555 0)
(1.95989 -0.136671 0)
(1.9283 -0.203565 0)
(1.87518 -0.251719 0)
(1.78905 -0.313277 0)
(1.73651 -0.358963 0)
(1.71983 -0.313668 0)
(1.74936 -0.0814305 0)
(1.83717 0.0258557 0)
(1.92271 0.0590109 0)
(1.98577 0.0933256 0)
(2.03555 0.11626 0)
(2.06322 0.119081 0)
(2.07868 0.125014 0)
(2.09992 0.130563 0)
(1.62847 0.735837 0)
(1.77355 0.571335 0)
(1.89615 0.391432 0)
(1.98985 0.230616 0)
(2.03222 0.125747 0)
(2.0305 0.00928621 0)
(2.016 -0.103717 0)
(1.98863 -0.203632 0)
(1.94096 -0.301606 0)
(1.87368 -0.407176 0)
(1.85136 -0.433616 0)
(1.88507 -0.394139 0)
(1.9389 -0.246948 0)
(1.99596 -0.0904565 0)
(2.06601 0.0269015 0)
(2.12714 0.117997 0)
(2.15871 0.152491 0)
(2.17857 0.157477 0)
(2.18867 0.165026 0)
(2.21017 0.171948 0)
(1.64704 0.74567 0)
(1.78219 0.60723 0)
(1.90294 0.44915 0)
(2.00385 0.298807 0)
(2.05564 0.174615 0)
(2.05752 0.0387985 0)
(2.04598 -0.0992483 0)
(2.02092 -0.230022 0)
(1.97857 -0.361592 0)
(1.94084 -0.4817 0)
(1.94819 -0.506552 0)
(1.99787 -0.502073 0)
(2.06591 -0.462509 0)
(2.13683 -0.356899 0)
(2.19979 -0.169956 0)
(2.24412 -0.00387488 0)
(2.26671 0.124987 0)
(2.28125 0.184719 0)
(2.29258 0.232866 0)
(2.31116 0.267607 0)
(1.65798 0.754139 0)
(1.78466 0.637815 0)
(1.90192 0.498854 0)
(2.00543 0.356466 0)
(2.06254 0.218044 0)
(2.06778 0.0625019 0)
(2.06007 -0.0966209 0)
(2.03785 -0.248827 0)
(2.00395 -0.396332 0)
(1.98907 -0.509914 0)
(2.01644 -0.5589 0)
(2.07362 -0.593988 0)
(2.14853 -0.589743 0)
(2.23097 -0.513514 0)
(2.30527 -0.349212 0)
(2.36079 -0.159114 0)
(2.38912 0.0519671 0)
(2.40327 0.224872 0)
(2.3991 0.335118 0)
(2.41156 0.382608 0)
(1.66997 0.767519 0)
(1.7868 0.665062 0)
(1.89771 0.541594 0)
(2.00007 0.406154 0)
(2.05839 0.259704 0)
(2.06576 0.0887668 0)
(2.06137 -0.0891611 0)
(2.04247 -0.260292 0)
(2.02076 -0.419059 0)
(2.0244 -0.529772 0)
(2.06265 -0.602841 0)
(2.12459 -0.650007 0)
(2.208 -0.639464 0)
(2.30842 -0.552938 0)
(2.39733 -0.412814 0)
(2.45877 -0.266344 0)
(2.50004 -0.0964037 0)
(2.51725 0.0975205 0)
(2.50447 0.292875 0)
(2.54567 0.483493 0)
(1.68364 0.785618 0)
(1.78959 0.692045 0)
(1.89236 0.577749 0)
(1.9908 0.445886 0)
(2.04731 0.294018 0)
(2.05464 0.114231 0)
(2.05244 -0.0765898 0)
(2.03812 -0.262576 0)
(2.02971 -0.433786 0)
(2.04651 -0.559607 0)
(2.09087 -0.649165 0)
(2.16321 -0.679046 0)
(2.25953 -0.637459 0)
(2.36921 -0.53734 0)
(2.46121 -0.448393 0)
(2.52683 -0.362371 0)
(2.57388 -0.266409 0)
(2.607 -0.164105 0)
(2.62943 -0.00909417 0)
(2.65971 0.204457 0)
(1.68927 0.823988 0)
(1.79095 0.723701 0)
(1.88662 0.609426 0)
(1.97984 0.47558 0)
(2.0324 0.316106 0)
(2.03768 0.131095 0)
(2.03566 -0.0673074 0)
(2.02598 -0.270136 0)
(2.02788 -0.459775 0)
(2.05489 -0.602806 0)
(2.11176 -0.671705 0)
(2.19751 -0.659576 0)
(2.30924 -0.585657 0)
(2.42176 -0.498141 0)
(2.50427 -0.441848 0)
(2.56874 -0.398733 0)
(2.61754 -0.355322 0)
(2.65563 -0.310299 0)
(2.68336 -0.244391 0)
(2.70268 -0.174259 0)
(1.7241 0.866078 0)
(1.8004 0.74653 0)
(1.88422 0.624995 0)
(1.96772 0.492119 0)
(2.0141 0.320073 0)
(2.01716 0.128816 0)
(2.01442 -0.0764812 0)
(2.00808 -0.311714 0)
(2.01988 -0.515039 0)
(2.06425 -0.626287 0)
(2.1366 -0.636499 0)
(2.23126 -0.589204 0)
(2.35403 -0.515936 0)
(2.45721 -0.462821 0)
(2.53446 -0.425321 0)
(2.5965 -0.398007 0)
(2.6458 -0.374451 0)
(2.68727 -0.350187 0)
(2.71908 -0.31254 0)
(2.73806 -0.266903 0)
(1.77644 0.891633 0)
(1.81184 0.785917 0)
(1.88498 0.636071 0)
(1.95662 0.496047 0)
(1.99295 0.298031 0)
(1.99469 0.0910337 0)
(1.98985 -0.139778 0)
(1.98913 -0.407556 0)
(2.023 -0.56866 0)
(2.08612 -0.600858 0)
(2.16584 -0.574 0)
(2.28047 -0.509444 0)
(2.39093 -0.468701 0)
(2.48639 -0.433254 0)
(2.5592 -0.408825 0)
(2.6192 -0.387752 0)
(2.66797 -0.370362 0)
(2.71143 -0.352318 0)
(2.74677 -0.324224 0)
(2.76734 -0.286624 0)
(1.8467 0.885884 0)
(1.83162 0.822598 0)
(1.87874 0.683269 0)
(1.93909 0.506055 0)
(1.96523 0.271488 0)
(1.96888 0.027504 0)
(1.96406 -0.261561 0)
(1.98438 -0.479731 0)
(2.04207 -0.552666 0)
(2.11542 -0.551022 0)
(2.2184 -0.501887 0)
(2.3215 -0.462068 0)
(2.42352 -0.432259 0)
(2.51332 -0.403148 0)
(2.5821 -0.384507 0)
(2.64007 -0.368409 0)
(2.68802 -0.355834 0)
(2.73287 -0.342355 0)
(2.77112 -0.320314 0)
(2.79286 -0.288318 0)
(1.94559 0.824978 0)
(1.86872 0.811141 0)
(1.88035 0.720621 0)
(1.91243 0.534892 0)
(1.93132 0.277731 0)
(1.93774 -0.0326491 0)
(1.94667 -0.311675 0)
(1.99058 -0.444936 0)
(2.06815 -0.484548 0)
(2.16474 -0.475153 0)
(2.26353 -0.44226 0)
(2.35847 -0.412626 0)
(2.45425 -0.387838 0)
(2.53887 -0.36431 0)
(2.60369 -0.348376 0)
(2.65939 -0.33523 0)
(2.70615 -0.325752 0)
(2.75184 -0.316648 0)
(2.79265 -0.300391 0)
(2.81549 -0.275114 0)
(2.06165 0.782355 0)
(1.91618 0.791072 0)
(1.89105 0.715659 0)
(1.89426 0.527141 0)
(1.90111 0.261795 0)
(1.90719 -0.0314267 0)
(1.93603 -0.236691 0)
(2.00577 -0.360848 0)
(2.10378 -0.39824 0)
(2.20828 -0.391291 0)
(2.3038 -0.372963 0)
(2.39284 -0.353418 0)
(2.48266 -0.335247 0)
(2.56243 -0.318622 0)
(2.62367 -0.306304 0)
(2.67714 -0.296418 0)
(2.72245 -0.288987 0)
(2.76847 -0.281796 0)
(2.81126 -0.269906 0)
(2.83514 -0.249546 0)
(2.19249 0.705895 0)
(1.97316 0.77148 0)
(1.90446 0.675476 0)
(1.87981 0.4832 0)
(1.87676 0.231848 0)
(1.89029 -0.0195968 0)
(1.93665 -0.204954 0)
(2.02837 -0.299568 0)
(2.13988 -0.322491 0)
(2.2455 -0.316419 0)
(2.33711 -0.30571 0)
(2.42202 -0.292442 0)
(2.50745 -0.277225 0)
(2.58313 -0.264658 0)
(2.64112 -0.256242 0)
(2.69276 -0.250958 0)
(2.73733 -0.2471 0)
(2.78351 -0.242531 0)
(2.82796 -0.23525 0)
(2.85298 -0.217714 0)
(2.33337 0.486826 0)
(1.99685 0.737795 0)
(1.9109 0.580032 0)
(1.87333 0.378974 0)
(1.86685 0.139927 0)
(1.89026 -0.0719017 0)
(1.95577 -0.199679 0)
(2.05587 -0.23621 0)
(2.17677 -0.24724 0)
(2.27854 -0.244747 0)
(2.36586 -0.237803 0)
(2.44745 -0.228596 0)
(2.52944 -0.215998 0)
(2.60116 -0.205432 0)
(2.65605 -0.198693 0)
(2.7057 -0.195758 0)
(2.74975 -0.194998 0)
(2.79612 -0.19423 0)
(2.84262 -0.191973 0)
(2.86916 -0.180288 0)
(2.46549 0.286737 0)
(2.04658 0.667251 0)
(1.91971 0.461722 0)
(1.87912 0.248372 0)
(1.87301 0.0456771 0)
(1.9047 -0.0940924 0)
(1.98112 -0.152025 0)
(2.09222 -0.162115 0)
(2.20355 -0.174497 0)
(2.30174 -0.175377 0)
(2.38671 -0.170617 0)
(2.46691 -0.163973 0)
(2.54735 -0.15495 0)
(2.61694 -0.146107 0)
(2.66955 -0.138421 0)
(2.7172 -0.133947 0)
(2.76031 -0.133172 0)
(2.80662 -0.133907 0)
(2.85448 -0.135345 0)
(2.88257 -0.13175 0)
(2.62029 0.0758928 0)
(1.98121 0.476188 0)
(1.80667 0.296239 0)
(1.81647 0.147687 0)
(1.83913 0.0279193 0)
(1.89654 -0.0384826 0)
(1.99474 -0.0614184 0)
(2.10831 -0.0750445 0)
(2.21622 -0.0886999 0)
(2.31463 -0.0908933 0)
(2.39991 -0.0855263 0)
(2.48045 -0.0778675 0)
(2.56089 -0.070003 0)
(2.62989 -0.0637121 0)
(2.6815 -0.0578685 0)
(2.72742 -0.054332 0)
(2.76932 -0.0543211 0)
(2.81526 -0.0563631 0)
(2.86382 -0.0610653 0)
(2.8935 -0.0649402 0)
(2.61583 0.00281016 0)
(1.88063 0.141069 0)
(1.64806 0.16406 0)
(1.70222 0.138035 0)
(1.75087 0.113709 0)
(1.82318 0.100745 0)
(1.93167 0.0916572 0)
(2.05594 0.0777583 0)
(2.17841 0.0646012 0)
(2.29167 0.0610446 0)
(2.38865 0.0675569 0)
(2.4767 0.0798959 0)
(2.56139 0.0938331 0)
(2.63267 0.105419 0)
(2.68579 0.114257 0)
(2.73237 0.11816 0)
(2.77494 0.116901 0)
(2.82133 0.111387 0)
(2.87033 0.101559 0)
(2.90102 0.0889421 0)
)
;

boundaryField
{
    inlet
    {
        type            fixedValue;
        value           uniform (3 0 0);
    }
    outlet
    {
        type            inletOutlet;
        inletValue      uniform (3 0 0);
        value           nonuniform List<vector> 
20
(
(1.56928 0.0710896 0)
(1.77561 0.0837583 0)
(1.95935 0.0552912 0)
(2.09992 0.130563 0)
(2.21017 0.171948 0)
(2.31116 0.267607 0)
(2.41156 0.382608 0)
(2.54567 0.483493 0)
(2.65971 0.204457 0)
(2.70268 -0.174259 0)
(2.73806 -0.266903 0)
(2.76734 -0.286624 0)
(2.79286 -0.288318 0)
(2.81549 -0.275114 0)
(2.83514 -0.249546 0)
(2.85298 -0.217714 0)
(2.86916 -0.180288 0)
(2.88257 -0.13175 0)
(2.8935 -0.0649402 0)
(2.90102 0.0889421 0)
)
;
    }
    top
    {
        type            symmetryPlane;
    }
    bottom
    {
        type            symmetryPlane;
    }
    step
    {
        type            slip;
    }
    defaultFaces
    {
        type            empty;
    }
}


// ************************************************************************* //
