/*--------------------------------*- C++ -*----------------------------------*\
  =========                 |
  \\      /  F ield         | OpenFOAM: The Open Source CFD Toolbox
   \\    /   O peration     | Website:  https://openfoam.org
    \\  /    A nd           | Version:  6.0
     \\/     M anipulation  |
\*---------------------------------------------------------------------------*/
FoamFile
{
    version     2.0;
    format      ascii;
    class       volScalarField;
    location    "4";
    object      p;
}
// * * * * * * * * * * * * * * * * * * * * * * * * * * * * * * * * * * * * * //

dimensions      [1 -1 -2 0 0 0 0];

internalField   nonuniform List<scalar> 
2700
(
1
1
1
1
1.00001
1.00002
1.00005
1.00011
1.00025
1.00053
1.00116
1.00253
1.0055
1.01197
1.02608
1.05702
1.12545
1.27985
1.64344
2.57344
5.32395
23.5146
20.4258
16.9706
14.886
13.8273
13.5267
13.5909
13.8406
13.8908
1
1
1
1
1.00001
1.00002
1.00005
1.00011
1.00025
1.00053
1.00116
1.00253
1.0055
1.01197
1.02609
1.05703
1.12547
1.27991
1.6436
2.57395
5.32649
23.5072
20.4182
16.962
14.8763
13.8129
13.523
13.5932
13.8427
13.8908
1
1
1
1
1.00001
1.00002
1.00005
1.00011
1.00025
1.00053
1.00116
1.00253
1.0055
1.01197
1.0261
1.05705
1.12552
1.28002
1.64388
2.57482
5.33164
23.4916
20.4019
16.9427
14.8537
13.7817
13.512
13.5908
13.8425
13.8882
1
1
1
1
1.00001
1.00002
1.00005
1.00011
1.00025
1.00053
1.00116
1.00253
1.0055
1.01198
1.02611
1.05708
1.12559
1.28018
1.64426
2.57603
5.33932
23.4677
20.3767
16.913
14.8191
13.739
13.4953
13.583
13.8394
13.8821
1
1
1
1
1.00001
1.00002
1.00005
1.00011
1.00025
1.00054
1.00116
1.00253
1.00551
1.01199
1.02613
1.05712
1.12568
1.28038
1.64475
2.57754
5.34939
23.4352
20.3427
16.8732
14.7738
13.6878
13.4746
13.5696
13.8313
13.8718
1
1
1
1
1.00001
1.00002
1.00005
1.00011
1.00025
1.00054
1.00116
1.00253
1.00551
1.012
1.02615
1.05717
1.12578
1.28061
1.64533
2.57934
5.36173
23.3937
20.2996
16.8236
14.7187
13.6296
13.4501
13.5514
13.8175
13.8571
1
1
1
1
1.00001
1.00002
1.00005
1.00011
1.00025
1.00054
1.00117
1.00254
1.00552
1.01201
1.02617
1.05722
1.1259
1.28089
1.64599
2.58141
5.37618
23.343
20.2474
16.7644
14.6543
13.5649
13.4213
13.5282
13.7978
13.8371
1
1
1
1
1.00001
1.00002
1.00005
1.00011
1.00025
1.00054
1.00117
1.00254
1.00552
1.01202
1.0262
1.05728
1.12603
1.28119
1.64673
2.58373
5.39259
23.2829
20.1856
16.6958
14.5811
13.4946
13.3878
13.4994
13.772
13.8108
1
1
1
1
1.00001
1.00002
1.00005
1.00011
1.00025
1.00054
1.00117
1.00254
1.00553
1.01203
1.02623
1.05735
1.12618
1.28152
1.64754
2.58627
5.4108
23.213
20.1145
16.6179
14.4998
13.4194
13.3491
13.4649
13.7394
13.7779
1
1
1
1
1.00001
1.00002
1.00005
1.00011
1.00025
1.00054
1.00117
1.00254
1.00553
1.01205
1.02626
1.05742
1.12633
1.28188
1.64841
2.58902
5.43064
23.1331
20.0333
16.5317
14.4101
13.3402
13.3043
13.4244
13.7001
13.7377
1
1
1
1
1.00001
1.00002
1.00005
1.00011
1.00025
1.00054
1.00117
1.00255
1.00554
1.01206
1.0263
1.05749
1.1265
1.28227
1.64934
2.59195
5.4519
23.043
19.9422
16.4366
14.3128
13.258
13.2512
13.3786
13.6534
13.6902
1
1
1
1
1.00001
1.00002
1.00005
1.00011
1.00025
1.00054
1.00117
1.00255
1.00555
1.01208
1.02633
1.05757
1.12667
1.28267
1.65031
2.59502
5.47437
22.9424
19.8408
16.3341
14.2066
13.1752
13.1871
13.3301
13.5977
13.6345
1
1
1
1
1.00001
1.00002
1.00005
1.00011
1.00025
1.00054
1.00117
1.00255
1.00556
1.0121
1.02637
1.05765
1.12685
1.28308
1.65132
2.59822
5.49783
22.831
19.7286
16.2244
14.0918
13.0897
13.1151
13.2791
13.5306
13.571
1
1
1
1
1.00001
1.00002
1.00005
1.00011
1.00025
1.00054
1.00118
1.00256
1.00556
1.01211
1.02641
1.05773
1.12704
1.28351
1.65235
2.60149
5.52197
22.7085
19.6063
16.1057
13.9709
12.9998
13.0378
13.2219
13.4532
13.4985
1
1
1
1
1.00001
1.00002
1.00005
1.00011
1.00025
1.00054
1.00118
1.00256
1.00557
1.01213
1.02644
1.05782
1.12723
1.28394
1.65339
2.60479
5.54649
22.5746
19.4738
15.9778
13.844
12.9052
12.9549
13.1566
13.367
13.4177
1
1
1
1
1.00001
1.00002
1.00005
1.00011
1.00025
1.00054
1.00118
1.00257
1.00558
1.01215
1.02648
1.0579
1.12741
1.28436
1.65442
2.60809
5.57104
22.4289
19.3312
15.8407
13.7108
12.8066
12.8664
13.0826
13.271
13.3267
1
1
1
1
1.00001
1.00002
1.00005
1.00011
1.00025
1.00054
1.00118
1.00257
1.00559
1.01216
1.02652
1.05798
1.12759
1.28478
1.65542
2.61131
5.59526
22.271
19.1786
15.6947
13.5718
12.7031
12.7719
12.9994
13.1657
13.2261
1
1
1
1
1.00001
1.00002
1.00005
1.00011
1.00025
1.00054
1.00118
1.00257
1.00559
1.01218
1.02655
1.05805
1.12776
1.28517
1.65638
2.6144
5.6188
22.1008
19.0156
15.5402
13.4272
12.5955
12.6713
12.9062
13.0493
13.113
1
1
1
1
1.00001
1.00002
1.00005
1.00011
1.00025
1.00054
1.00118
1.00257
1.0056
1.01219
1.02658
1.05812
1.12792
1.28553
1.65726
2.61728
5.64124
21.9177
18.8421
15.3773
13.2774
12.483
12.5643
12.8024
12.9219
12.9878
1
1
1
1
1.00001
1.00002
1.00005
1.00012
1.00025
1.00054
1.00118
1.00258
1.00561
1.01221
1.02661
1.05819
1.12806
1.28585
1.65805
2.61989
5.66217
21.7215
18.6579
15.2063
13.1234
12.3662
12.4504
12.6867
12.7813
12.8466
1
1
1
1
1.00001
1.00002
1.00005
1.00012
1.00025
1.00055
1.00119
1.00258
1.00561
1.01222
1.02663
1.05824
1.12817
1.28612
1.6587
2.62213
5.68113
21.5116
18.463
15.0275
12.9655
12.2444
12.3294
12.5582
12.6274
12.6888
1
1
1
1
1.00001
1.00002
1.00005
1.00012
1.00025
1.00055
1.00119
1.00258
1.00562
1.01222
1.02665
1.05827
1.12826
1.28632
1.6592
2.6239
5.69764
21.2876
18.2572
14.842
12.8055
12.1181
12.2008
12.4149
12.4572
12.5087
1
1
1
1
1.00001
1.00002
1.00005
1.00012
1.00025
1.00055
1.00119
1.00258
1.00562
1.01223
1.02666
1.0583
1.12831
1.28644
1.65949
2.62511
5.71117
21.049
18.0404
14.6502
12.6442
11.9868
12.0641
12.255
12.2702
12.3039
1
1
1
1
1.00001
1.00002
1.00005
1.00012
1.00025
1.00055
1.00119
1.00258
1.00562
1.01223
1.02666
1.0583
1.12831
1.28646
1.65955
2.62565
5.72114
20.7949
17.8126
14.4543
12.484
11.8508
11.9187
12.0742
12.0622
12.0653
1
1
1
1
1.00001
1.00002
1.00005
1.00012
1.00025
1.00055
1.00119
1.00258
1.00561
1.01222
1.02665
1.05828
1.12827
1.28637
1.65934
2.62544
5.72684
20.5246
17.5735
14.2558
12.3268
11.7102
11.765
11.8692
11.8295
11.7862
1
1
1
1
1.00001
1.00002
1.00005
1.00012
1.00025
1.00054
1.00119
1.00258
1.00561
1.01221
1.02663
1.05823
1.12817
1.28614
1.65882
2.62439
5.72763
20.2368
17.3246
14.0584
12.1755
11.5652
11.6029
11.6388
11.559
11.4491
1
1
1
1
1.00001
1.00002
1.00005
1.00011
1.00025
1.00054
1.00118
1.00257
1.0056
1.0122
1.02659
1.05815
1.12799
1.28576
1.65793
2.62232
5.72259
19.9301
17.066
13.8659
12.0325
11.4162
11.4238
11.3917
11.2348
11.0371
1
1
1
1
1.00001
1.00002
1.00005
1.00011
1.00025
1.00054
1.00118
1.00257
1.00559
1.01217
1.02654
1.05803
1.12773
1.28517
1.65655
2.61884
5.71057
19.603
16.8028
13.6851
11.8998
11.269
11.2251
11.114
10.8405
10.5169
1
1
1
1
1.00001
1.00002
1.00005
1.00011
1.00025
1.00054
1.00118
1.00256
1.00557
1.01214
1.02646
1.05787
1.12737
1.28436
1.65462
2.61373
5.69018
19.2492
16.5425
13.5224
11.7779
11.1179
11.0004
10.7937
10.378
9.8435
1
1
1
1
1.00001
1.00002
1.00005
1.00011
1.00025
1.00054
1.00117
1.00255
1.00555
1.01209
1.02637
1.05766
1.1269
1.28329
1.65202
2.60667
5.66108
18.8597
16.3066
13.3848
11.6639
10.952
10.7356
10.4176
9.82593
8.90132
1
1
1
1
1.00001
1.00002
1.00005
1.00011
1.00025
1.00053
1.00116
1.00252
1.00549
1.01196
1.02607
1.05701
1.12545
1.27991
1.64367
2.58293
5.56309
17.7453
15.8362
13.1095
11.4162
10.5289
10.0626
9.50005
8.441
6.09472
1
1
1
1
1.00001
1.00002
1.00005
1.00011
1.00024
1.00052
1.00113
1.00247
1.00536
1.01168
1.02546
1.05567
1.12247
1.27312
1.62732
2.53865
5.39547
16.2819
14.8541
12.3648
10.7736
9.84436
9.25351
8.55816
7.54188
5.46016
1
1
1
1
1.00001
1.00002
1.00005
1.00011
1.00023
1.0005
1.0011
1.00239
1.00519
1.01131
1.02465
1.0539
1.11856
1.26427
1.60618
2.48116
5.16689
14.7032
13.6952
11.5998
10.1124
9.18018
8.52514
7.82694
6.98041
5.49414
1
1
1
1
1.00001
1.00002
1.00005
1.0001
1.00022
1.00048
1.00104
1.00226
1.00493
1.01073
1.02341
1.05118
1.11256
1.25069
1.57384
2.39468
4.85866
13.0297
12.4138
10.9472
9.57838
8.6806
8.02163
7.36879
6.6564
5.594
1
1
1
1
1.00001
1.00002
1.00004
1.00009
1.0002
1.00044
1.00095
1.00206
1.00449
1.00979
1.02136
1.04671
1.10268
1.22835
1.5208
2.25482
4.39779
11.1299
10.9688
10.3376
9.18766
8.34526
7.71015
7.12149
6.50635
5.64989
1
1
1
1
1.00001
1.00002
1.00004
1.00008
1.00017
1.00037
1.00082
1.00178
1.00387
1.00845
1.01845
1.04037
1.08875
1.19709
1.44752
2.06625
3.8257
9.37584
10.1488
9.87189
9.18003
8.30537
7.59867
7.00224
6.42701
5.66252
1
1
1
1
1.00001
1.00001
1.00003
1.00006
1.00012
1.00027
1.00059
1.00128
1.0028
1.00609
1.01327
1.02897
1.06346
1.13999
1.3136
1.72598
2.80748
5.83582
9.97971
9.75012
9.16011
8.32548
7.59628
6.98095
6.40926
5.6905
1
1
1
1
1
1.00001
1.00002
1.00004
1.00009
1.0002
1.00043
1.00093
1.00201
1.00437
1.0095
1.02066
1.04502
1.0986
1.21823
1.49425
2.17677
4.04877
9.26122
9.3198
9.06087
8.40728
7.58639
6.93691
6.37274
5.68864
1
1
1
1
1
1.00001
1.00001
1.00003
1.00007
1.00015
1.00033
1.00073
1.00158
1.00345
1.0075
1.01635
1.03569
1.07821
1.17295
1.38987
1.91649
3.35587
7.58794
8.8696
8.74656
8.33483
7.55401
6.87725
6.29885
5.67352
1
1
1
1
1
1
1.00001
1.00002
1.00005
1.0001
1.00021
1.00046
1.00101
1.00218
1.00473
1.01025
1.02226
1.04844
1.10595
1.23433
1.53062
2.26668
4.1592
8.17912
8.16676
8.02475
7.56904
6.89062
6.27951
5.6397
1
1
1
1
1
1
1.00001
1.00001
1.00003
1.00007
1.00015
1.00032
1.00069
1.00149
1.00323
1.00703
1.01528
1.03327
1.07272
1.16024
1.35929
1.83687
3.0966
6.58133
7.61534
7.56921
7.40654
6.96837
6.29427
5.64172
1
1
1
1
1
1
1
1.00001
1.00002
1.00004
1.00008
1.00018
1.00039
1.00084
1.00181
1.00392
1.00848
1.01837
1.03988
1.08692
1.19111
1.42812
1.99809
3.3964
6.44984
7.26877
7.18463
6.91629
6.35065
5.66722
1
1
1
1
1
1
1
1
1.00001
1.00002
1.00005
1.0001
1.00021
1.00045
1.00098
1.00211
1.00455
1.00983
1.02123
1.04594
1.09987
1.21925
1.4916
2.14639
3.7977
6.77333
6.79403
6.70638
6.39139
5.74759
1
1
1
1
1
1
1
1
1.00001
1.00001
1.00003
1.00006
1.00013
1.00028
1.00061
1.00132
1.00286
1.0062
1.01345
1.02923
1.06373
1.13992
1.31188
1.7181
2.75464
5.47195
6.28399
6.27485
6.20309
5.91408
1
1
1
1
1
1
1
1
1
1.00001
1.00001
1.00003
1.00007
1.00015
1.00031
1.00068
1.00147
1.00317
1.00685
1.01482
1.0321
1.06976
1.15266
1.33902
1.7761
2.82748
5.16079
5.84032
5.82434
5.73511
1
1
1
1
1
1
1
1
1
1
1.00001
1.00001
1.00003
1.00007
1.00015
1.00032
1.00069
1.00148
1.00318
1.00684
1.01474
1.03181
1.06885
1.14998
1.33121
1.75012
2.75081
4.86713
5.43429
5.38957
1
1
1
1
1
1
1
1
1
1
1
1.00001
1.00001
1.00003
1.00007
1.00014
1.00031
1.00067
1.00144
1.00309
1.00665
1.0143
1.03079
1.06651
1.14457
1.31835
1.71785
2.66588
4.60376
4.94863
1
1
1
1
1
1
1
1
1
1
1
1
1.00001
1.00001
1.00003
1.00007
1.00015
1.00031
1.00068
1.00146
1.00314
1.00677
1.01459
1.03152
1.06828
1.14894
1.32938
1.74716
2.7361
3.98534
1
1
1
1
1
1
1
1
1
1
1
1
1
1.00001
1.00001
1.00002
1.00005
1.0001
1.00022
1.00046
1.00099
1.00209
1.00444
1.0094
1.01993
1.04226
1.0898
1.19129
1.40732
1.85837
1
1
1
1
1
1
1
1
1
1
1
1
1
1
1
1.00001
1.00002
1.00005
1.0001
1.00022
1.00047
1.00102
1.00218
1.00468
1.01003
1.02155
1.0464
1.10037
1.21923
1.48695
1
1
1
1
1
1
1
1
1
1
1
1
1
1
1
1
1.00001
1.00002
1.00004
1.0001
1.00021
1.00044
1.00094
1.00202
1.00431
1.00923
1.01975
1.04236
1.09121
1.19761
1
1
1
1
1
1
1
1
1
1
1
1
1
1
1
1
1.00001
1.00002
1.00003
1.00007
1.00016
1.00034
1.00073
1.00158
1.00343
1.00742
1.0161
1.03497
1.07627
1.16761
1
1
1
1
1
1
1
1
1
1
1
1
1
1
1
1
1.00001
1.00001
1.00003
1.00006
1.00013
1.00028
1.00062
1.00135
1.00293
1.00636
1.01384
1.03014
1.06587
1.14496
1
1
1
1
1
1
1
1
1
1
1
1
1
1
1
1
1
1.00001
1.00002
1.00005
1.0001
1.00023
1.00049
1.00105
1.00228
1.00494
1.01073
1.02332
1.05082
1.11146
1
1
1
1
1
1
1
1
1
1
1
1
1
1
1
1
1
1.00001
1.00001
1.00003
1.00007
1.00014
1.0003
1.00065
1.00139
1.00301
1.00655
1.01429
1.03124
1.06856
1
1
1
1
1
1
1
1
1
1
1
1
1
1
1
1
1
1
1.00001
1.00002
1.00005
1.0001
1.00022
1.00048
1.00105
1.00232
1.0051
1.0112
1.02456
1.0539
1
1
1
1
1
1
1
1
1
1
1
1
1
1
1
1
1
1
1.00001
1.00001
1.00003
1.00007
1.00015
1.00032
1.00069
1.0015
1.00327
1.00712
1.01551
1.03381
1
1
1
1
1
1
1
1
1
1
1
1
1
1
1
1
1
1
1.00001
1.00001
1.00003
1.00005
1.00012
1.00026
1.00056
1.00123
1.00268
1.00584
1.01276
1.02794
1
1
1
1
1
1
1
1
1
1
1
1
1
1
1
1
1
1
1
1.00001
1.00002
1.00004
1.00009
1.00019
1.00041
1.00088
1.00191
1.00413
1.00894
1.01944
1
1
1
1
1
1
1
1
1
1
1
1
1
1
1
1
1
1
1
1.00001
1.00002
1.00004
1.00009
1.00019
1.0004
1.00088
1.0019
1.00413
1.00896
1.01949
2.46819
1.58816
1.37425
1.38317
1.54715
1.69167
1.69386
1.70079
1.71803
1.75487
1.82935
1.87767
1.9752
2.17879
2.63102
4.0162
7.49224
7.14159
6.59727
6.09607
5.66925
5.29307
4.95062
4.6529
4.39282
4.15318
3.92796
3.74979
3.59038
3.45728
2.72128
1.8375
1.63667
1.65027
1.63157
1.64203
1.66424
1.69361
1.72621
1.76273
1.82306
1.87778
1.98721
2.21093
2.70108
3.97602
7.42744
7.13885
6.57398
6.07012
5.62793
5.26611
4.94513
4.65655
4.37749
4.13846
3.92852
3.72892
3.56754
3.45438
3.30888
2.49413
2.21472
1.80302
1.65278
1.65786
1.6767
1.71653
1.73812
1.76639
1.82329
1.89763
2.01027
2.24057
2.73918
4.0001
7.26336
7.07225
6.58903
6.04979
5.6067
5.21646
4.8964
4.61439
4.35089
4.09787
3.87905
3.68943
3.53102
3.42803
4.22811
3.01763
2.30774
1.89739
1.72848
1.70619
1.70799
1.71522
1.73189
1.76577
1.82231
1.90387
2.0252
2.27296
2.80285
4.06607
7.05902
6.9551
6.64376
6.10438
5.63224
5.20668
4.84576
4.53902
4.28462
4.0486
3.83609
3.64623
3.49739
3.39409
4.3935
3.31229
2.53628
2.14101
1.92621
1.80452
1.74923
1.75105
1.75878
1.7788
1.8221
1.90993
2.03708
2.29476
2.83928
4.09187
6.90394
6.85978
6.68483
6.27446
5.70141
5.21143
4.83847
4.51604
4.21825
3.99683
3.81168
3.62806
3.4855
3.39275
4.52519
3.60567
2.87642
2.36819
2.04193
1.85954
1.77369
1.77495
1.78104
1.79789
1.83551
1.91259
2.04275
2.30491
2.85238
4.09202
6.7687
6.74011
6.62411
6.33567
5.78147
5.26346
4.85173
4.51249
4.20276
3.96364
3.7744
3.59958
3.46667
3.39061
4.67165
3.85564
3.12121
2.5647
2.19332
1.97214
1.83971
1.83981
1.84306
1.854
1.88113
1.94047
2.06343
2.31604
2.84674
4.02787
6.53635
6.51512
6.43733
6.2425
5.82976
5.30825
4.88428
4.53909
4.22357
3.94524
3.73261
3.56586
3.44694
3.39037
4.76192
4.02663
3.31991
2.75043
2.34408
2.08504
1.91841
1.88842
1.89072
1.89979
1.9241
1.97946
2.09657
2.33856
2.84548
3.95155
6.28069
6.26774
6.21837
6.08447
5.78744
5.35663
4.91534
4.55109
4.22976
3.91428
3.68916
3.53281
3.43239
3.38547
4.79611
4.13285
3.47484
2.91479
2.49003
2.20631
2.0144
1.96314
1.96581
1.9755
1.99998
2.05403
2.16654
2.39665
2.87054
3.87887
5.99138
6.00699
5.99361
5.94109
5.79198
5.39615
4.9372
4.54239
4.20574
3.89021
3.66637
3.51372
3.41529
3.37353
4.7982
4.19662
3.59324
3.0584
2.6296
2.33126
2.12062
2.05358
2.05611
2.06568
2.09048
2.14574
2.26073
2.49485
2.89785
3.73146
5.47914
5.83209
5.82304
5.78869
5.69424
5.44633
4.96301
4.50889
4.16859
3.88415
3.66544
3.50347
3.39529
3.36369
4.80266
4.23784
3.68433
3.18275
2.76224
2.45915
2.23652
2.1692
2.17257
2.18434
2.21384
2.27892
2.41462
2.69333
3.02967
3.60879
4.71722
5.6514
5.63996
5.603
5.51129
5.32722
5.04778
4.50775
4.14793
3.87773
3.67353
3.49343
3.37275
3.3488
4.81476
4.27157
3.75971
3.29274
2.8881
2.58885
2.36027
2.31099
2.31467
2.32738
2.35869
2.42693
2.56869
2.85972
3.10313
3.51907
4.25145
5.36512
5.37721
5.35857
5.30326
5.17818
4.91967
4.51833
4.13594
3.87491
3.68262
3.50791
3.36593
3.33433
4.84525
4.31072
3.83129
3.39757
3.01246
2.72356
2.50008
2.47785
2.48143
2.49351
2.52288
2.58609
2.71595
2.97979
3.20674
3.49557
4.08009
4.60496
5.2066
5.19097
5.14092
5.02974
4.83129
4.49337
4.12731
3.87932
3.69449
3.5212
3.37427
3.31186
4.91143
4.36024
3.90176
3.49965
3.13865
2.86967
2.65542
2.62893
2.63129
2.6406
2.6651
2.72084
2.83963
3.08304
3.31076
3.49452
3.80134
4.16285
4.64505
4.86994
4.85614
4.80672
4.68272
4.41763
4.12273
3.89057
3.71224
3.55438
3.38886
3.3001
5.01485
4.42671
3.98039
3.60793
3.27347
3.02225
2.80142
2.74813
2.74981
2.75765
2.78069
2.8361
2.96155
3.22762
3.42248
3.54001
3.74067
3.89725
4.12068
4.41469
4.53688
4.52576
4.48
4.3583
4.10509
3.89546
3.73953
3.56804
3.40446
3.30703
4.99136
4.50968
4.08291
3.73254
3.41742
3.16756
2.93678
2.87437
2.87667
2.88649
2.91317
2.97619
3.11784
3.41245
3.5353
3.59907
3.69493
3.74557
3.81724
3.99182
4.07009
4.23865
4.2371
4.21027
4.10469
3.86592
3.77531
3.61017
3.43473
3.31495
4.89822
4.66315
4.24028
3.88299
3.56389
3.30245
3.062
3.01307
3.01637
3.02935
3.06449
3.14736
3.32609
3.59633
3.64153
3.62206
3.6005
3.61588
3.62948
3.66277
3.79332
3.88434
4.01645
4.06177
4.04408
3.86552
3.75312
3.68387
3.50281
3.32807
4.70027
4.63322
4.44891
4.07306
3.71274
3.42557
3.1879
3.16991
3.17465
3.19269
3.24075
3.35618
3.60982
3.73924
3.73462
3.70202
3.56493
3.39978
3.40704
3.42923
3.47293
3.53175
3.73683
3.87842
3.86279
3.82845
3.76282
3.68406
3.5308
3.36665
4.31881
4.53536
4.46617
4.27688
3.88786
3.54468
3.33804
3.33938
3.34803
3.37335
3.43546
3.59153
3.92321
3.91363
3.86063
3.72801
3.44294
3.21713
3.21959
3.23286
3.26157
3.32638
3.46886
3.72764
3.76683
3.77135
3.75062
3.69285
3.57661
3.42252
3.54239
4.51067
4.46473
4.33624
4.06047
3.67918
3.56302
3.57045
3.59689
3.668
3.86039
4.36458
4.34187
4.18613
3.92387
3.66848
3.34281
3.12274
3.06703
3.07173
3.08923
3.13422
3.2354
3.44967
3.63626
3.63663
3.6353
3.60822
3.52844
3.41497
1.96432
4.46985
4.45482
4.38487
4.2153
3.86962
3.87551
3.92224
4.03811
4.28157
4.82107
4.76186
4.53129
4.30898
3.96399
3.61501
3.2755
3.04446
2.93484
2.93626
2.94486
2.9704
3.03074
3.16072
3.42654
3.5395
3.54294
3.53449
3.50038
3.42855
1.82495
4.28646
4.43045
4.40319
4.32346
4.15105
4.1647
4.2409
4.47212
5.0386
5.01696
4.94966
4.6877
4.42321
3.98499
3.58845
3.24058
2.98706
2.84675
2.81448
2.81821
2.83229
2.86822
2.94793
3.1142
3.41048
3.44352
3.4636
3.48394
3.55012
1.69507
3.83451
4.37513
4.39723
4.38423
4.35181
4.3753
4.47935
4.7689
5.28421
5.25691
5.16166
4.94106
4.55487
4.00062
3.56682
3.21819
2.94665
2.79605
2.70656
2.70837
2.71666
2.73967
2.79338
2.9093
3.15108
3.29904
3.33981
3.4285
3.5547
1.50387
3.0518
4.25016
4.3828
4.4083
4.4616
4.58861
4.89239
5.53072
5.52716
5.49722
5.39915
5.15822
4.61167
4.00562
3.55494
3.20489
2.91485
2.75878
2.6231
2.61567
2.619
2.63197
2.66575
2.74231
2.90434
3.11351
3.22141
3.33074
3.58267
1.28985
2.12761
3.96231
4.34604
4.43149
4.60681
4.97417
5.76506
6.04398
6.0308
5.96473
5.77028
5.26041
4.54396
3.98348
3.54217
3.19446
2.89018
2.72516
2.57405
2.52668
2.52921
2.53995
2.56824
2.63046
2.75815
3.01803
3.13494
3.30866
3.62155
1.22298
1.86059
3.38962
4.25994
4.46122
4.88106
5.76355
6.71896
6.71309
6.67009
6.48907
5.94834
5.18765
4.52558
3.97318
3.5341
3.18897
2.87116
2.69287
2.54221
2.45094
2.45283
2.46123
2.48362
2.53576
2.64978
2.88848
3.02462
3.25752
3.68422
1.13541
1.4987
2.32977
4.06405
4.51265
5.45575
7.48183
7.68432
7.62318
7.39775
6.73586
5.91473
5.17271
4.52586
3.96951
3.52926
3.18436
2.85462
2.66236
2.51643
2.39186
2.39271
2.39841
2.41622
2.45773
2.54476
2.7256
2.91243
3.2884
3.99525
1.11205
1.4063
2.09548
3.63412
4.61879
6.6801
8.39604
8.37393
8.24313
7.72543
6.71777
5.90698
5.18515
4.52898
3.96654
3.52833
3.18264
2.84602
2.64341
2.49724
2.35347
2.33882
2.34202
2.35361
2.38376
2.45445
2.60993
2.92675
3.35375
4.15438
1.07645
1.26926
1.70156
2.69938
4.83862
9.29392
9.30124
9.18752
8.69363
7.70372
6.74672
5.93269
5.20059
4.5362
3.97759
3.53957
3.18684
2.84302
2.63561
2.48872
2.33729
2.30819
2.31048
2.31901
2.34097
2.39
2.49378
2.71796
3.17963
4.07653
1.0766
1.27014
1.70749
2.74149
5.23975
10.4129
10.2288
9.65523
8.72215
7.72403
6.79346
5.98017
5.24312
4.57362
4.01104
3.56958
3.21212
2.86229
2.64931
2.49937
2.34202
2.30541
2.3073
2.31472
2.33459
2.37994
2.47655
2.6804
3.11466
4.03416
)
;

boundaryField
{
    inlet
    {
        type            fixedValue;
        value           uniform 1;
    }
    outlet
    {
        type            waveTransmissive;
        gamma           1.4;
        fieldInf        1;
        lInf            3;
        value           nonuniform List<scalar> 
30
(
3.39842
3.40239
3.39676
3.38177
3.38309
3.37548
3.36701
3.35481
3.34639
3.33873
3.32928
3.31585
3.29648
3.28617
3.27882
3.27992
3.29109
3.31594
3.35891
3.39558
3.44961
3.48947
3.49162
3.52308
3.5826
3.7553
3.93859
3.9866
3.99814
3.98001
)
;
    }
    top
    {
        type            symmetryPlane;
    }
    bottom
    {
        type            symmetryPlane;
    }
    step
    {
        type            zeroGradient;
    }
    defaultFaces
    {
        type            empty;
    }
}


// ************************************************************************* //
