/*--------------------------------*- C++ -*----------------------------------*\
  =========                 |
  \\      /  F ield         | OpenFOAM: The Open Source CFD Toolbox
   \\    /   O peration     | Website:  https://openfoam.org
    \\  /    A nd           | Version:  6.0
     \\/     M anipulation  |
\*---------------------------------------------------------------------------*/
FoamFile
{
    version     2.0;
    format      ascii;
    class       surfaceScalarField;
    location    "4";
    object      phi;
}
// * * * * * * * * * * * * * * * * * * * * * * * * * * * * * * * * * * * * * //

dimensions      [1 0 -1 0 0 0 0];

internalField   nonuniform List<scalar> 
5280
(
0.00279994
-4.98112e-14
0.00279994
-3.04251e-13
0.00279994
-9.93116e-13
0.00279994
-2.6209e-12
0.00279994
-6.29347e-12
0.00279994
-1.4436e-11
0.00279994
-3.23702e-11
0.00279994
-7.17804e-11
0.00279994
-1.58343e-10
0.00279994
-3.48541e-10
0.00279994
-7.66842e-10
0.00279994
-1.68829e-09
0.00279995
-3.72385e-09
0.00279995
-8.24429e-09
0.00279997
-1.83869e-08
0.00280002
-4.16167e-08
0.00280012
-9.70308e-08
0.00280037
-2.39685e-07
0.00280104
-6.55322e-07
0.00280322
-2.27955e-06
0.0028138
-1.00938e-05
0.00270071
0.000105536
0.00249987
0.000198501
0.0022346
0.000264351
0.00189086
0.000343348
0.00138827
0.000502432
0.000899967
0.000488295
0.000533897
0.000366057
0.000260581
0.000273333
0.000260494
0.00279994
-9.79181e-14
0.00279994
-5.98174e-13
0.00279994
-1.95251e-12
0.00279994
-5.15139e-12
0.00279994
-1.23633e-11
0.00279994
-2.83375e-11
0.00279994
-6.34777e-11
0.00279994
-1.40585e-10
0.00279994
-3.09654e-10
0.00279994
-6.80384e-10
0.00279994
-1.49377e-09
0.00279994
-3.28044e-09
0.00279994
-7.21384e-09
0.00279995
-1.59122e-08
0.00279997
-3.53257e-08
0.00280001
-7.94753e-08
0.0028001
-1.8374e-07
0.00280032
-4.47844e-07
0.00280088
-1.19377e-06
0.00280251
-4.01333e-06
0.00281298
-2.00751e-05
0.00268747
0.000223493
0.00247988
0.000403758
0.00220746
0.000535858
0.00185926
0.000691155
0.00141833
0.000943208
0.000990064
0.000916553
0.0005873
0.000768799
0.000275027
0.000585648
0.000535437
0.00279994
-1.43248e-13
0.00279994
-8.75227e-13
0.00279994
-2.85683e-12
0.00279994
-7.53522e-12
0.00279994
-1.80751e-11
0.00279994
-4.13976e-11
0.00279994
-9.26422e-11
0.00279994
-2.04932e-10
0.00279994
-4.50759e-10
0.00279994
-9.88855e-10
0.00279994
-2.16713e-09
0.00279994
-4.74962e-09
0.00279994
-1.0421e-08
0.00279995
-2.29278e-08
0.00279997
-5.07511e-08
0.0028
-1.13784e-07
0.00280009
-2.61926e-07
0.00280028
-6.34656e-07
0.00280079
-1.67577e-06
0.00280226
-5.58988e-06
0.00281222
-2.95507e-05
0.00267625
0.000351949
0.00246164
0.000616045
0.00218584
0.000810745
0.00184174
0.00103486
0.00143714
0.00134765
0.00104333
0.00131035
0.000650834
0.00116129
0.000300084
0.000936456
0.000835386
0.00279994
-1.85335e-13
0.00279994
-1.1325e-12
0.00279994
-3.69657e-12
0.00279994
-9.74797e-12
0.00279994
-2.33729e-11
0.00279994
-5.34983e-11
0.00279994
-1.19628e-10
0.00279994
-2.64377e-10
0.00279994
-5.80887e-10
0.00279994
-1.2728e-09
0.00279994
-2.78575e-09
0.00279994
-6.0967e-09
0.00279994
-1.33559e-08
0.00279995
-2.93355e-08
0.00279997
-6.4815e-08
0.0028
-1.45014e-07
0.00280007
-3.33007e-07
0.00280025
-8.04357e-07
0.00280071
-2.11369e-06
0.00280205
-7.03126e-06
0.00281155
-3.8563e-05
0.00266651
0.000489517
0.00244545
0.000834802
0.00216799
0.0010873
0.00183104
0.00137143
0.00145144
0.0017271
0.00107662
0.00168517
0.00069945
0.00153844
0.00032921
0.00130676
0.00116439
0.00279994
-2.24065e-13
0.00279994
-1.36928e-12
0.00279994
-4.4694e-12
0.00279994
-1.1784e-11
0.00279994
-2.82461e-11
0.00279994
-6.46242e-11
0.00279994
-1.44426e-10
0.00279994
-3.18972e-10
0.00279994
-7.00324e-10
0.00279994
-1.53326e-09
0.00279994
-3.35289e-09
0.00279994
-7.33114e-09
0.00279994
-1.60445e-08
0.00279995
-3.52045e-08
0.00279996
-7.76971e-08
0.00279999
-1.73629e-07
0.00280006
-3.98182e-07
0.00280023
-9.60153e-07
0.00280065
-2.51665e-06
0.00280188
-8.36343e-06
0.00281091
-4.71028e-05
0.00265776
0.000635266
0.00243109
0.00105918
0.00215262
0.00136487
0.0018231
0.00170057
0.00146374
0.0020863
0.00110471
0.00204421
0.000732868
0.00191026
0.000352153
0.00168757
0.00151632
0.00279994
-2.59454e-13
0.00279994
-1.58563e-12
0.00279994
-5.17555e-12
0.00279994
-1.36444e-11
0.00279994
-3.2699e-11
0.00279994
-7.47911e-11
0.00279994
-1.67088e-10
0.00279994
-3.6887e-10
0.00279994
-8.09505e-10
0.00279994
-1.77142e-09
0.00279994
-3.87166e-09
0.00279994
-8.46082e-09
0.00279994
-1.85064e-08
0.00279995
-4.05831e-08
0.00279996
-8.95146e-08
0.00279999
-1.99913e-07
0.00280005
-4.58149e-07
0.00280021
-1.10383e-06
0.0028006
-2.88973e-06
0.00280174
-9.60148e-06
0.00281028
-5.51545e-05
0.00264981
0.000788408
0.00241817
0.00128856
0.00213962
0.00164253
0.00181754
0.00202227
0.00147435
0.00242935
0.00112451
0.00239405
0.000759209
0.00227553
0.000372388
0.00207444
0.00188843
0.00279994
-2.91505e-13
0.00279994
-1.78155e-12
0.00279994
-5.81502e-12
0.00279994
-1.53294e-11
0.00279994
-3.67329e-11
0.00279994
-8.40042e-11
0.00279994
-1.87634e-10
0.00279994
-4.14131e-10
0.00279994
-9.08597e-10
0.00279994
-1.9877e-09
0.00279994
-4.34311e-09
0.00279994
-9.48817e-09
0.00279994
-2.07469e-08
0.00279995
-4.54813e-08
0.00279996
-1.00283e-07
0.00279999
-2.23876e-07
0.00280004
-5.1284e-07
0.00280018
-1.23486e-06
0.00280055
-3.22952e-06
0.00280157
-1.07246e-05
0.00280965
-6.27565e-05
0.00264308
0.000947765
0.00240568
0.00152371
0.00212854
0.0019188
0.00181301
0.00233744
0.00148413
0.00275807
0.00114246
0.00273576
0.000777255
0.0026407
0.000386035
0.00246579
0.00227418
0.00279994
-3.20142e-13
0.00279994
-1.95658e-12
0.00279994
-6.38631e-12
0.00279994
-1.6835e-11
0.00279994
-4.03391e-11
0.00279994
-9.2246e-11
0.00279994
-2.06028e-10
0.00279994
-4.54694e-10
0.00279994
-9.97504e-10
0.00279994
-2.18201e-09
0.00279994
-4.76723e-09
0.00279994
-1.04138e-08
0.00279994
-2.27692e-08
0.00279995
-4.99108e-08
0.00279996
-1.10043e-07
0.00279998
-2.45654e-07
0.00280004
-5.62709e-07
0.00280016
-1.35489e-06
0.0028005
-3.54331e-06
0.00280145
-1.17677e-05
0.00280895
-6.97838e-05
0.0026359
0.00111371
0.00239586
0.00176154
0.00211794
0.00219584
0.0018094
0.00264563
0.00149367
0.00307365
0.00115364
0.00307579
0.000793384
0.00300092
0.000398395
0.0028609
0.00267227
0.00279994
-3.45164e-13
0.00279994
-2.1095e-12
0.00279994
-6.88544e-12
0.00279994
-1.81508e-11
0.00279994
-4.34925e-11
0.00279994
-9.94585e-11
0.00279994
-2.22141e-10
0.00279994
-4.90265e-10
0.00279994
-1.07557e-09
0.00279994
-2.35283e-09
0.00279994
-5.14057e-09
0.00279994
-1.12297e-08
0.00279994
-2.45535e-08
0.00279995
-5.38232e-08
0.00279996
-1.18671e-07
0.00279998
-2.64914e-07
0.00280003
-6.06816e-07
0.00280014
-1.46095e-06
0.00280044
-3.81965e-06
0.00280125
-1.26788e-05
0.00280824
-7.62983e-05
0.00263068
0.0012843
0.00238377
0.00200628
0.00211117
0.00246759
0.0018061
0.00295032
0.00150347
0.00337614
0.00116472
0.00341457
0.000800845
0.00336475
0.000406631
0.00325526
0.0030786
0.00279994
-3.66265e-13
0.00279994
-2.23843e-12
0.00279994
-7.30624e-12
0.00279994
-1.92606e-11
0.00279994
-4.61542e-11
0.00279994
-1.05554e-10
0.00279994
-2.35778e-10
0.00279994
-5.20423e-10
0.00279994
-1.14188e-09
0.00279994
-2.49823e-09
0.00279994
-5.45907e-09
0.00279994
-1.19273e-08
0.00279994
-2.6083e-08
0.00279994
-5.71857e-08
0.00279995
-1.26107e-07
0.00279997
-2.81569e-07
0.00280001
-6.45101e-07
0.00280011
-1.55345e-06
0.00280038
-4.06259e-06
0.00280109
-1.34826e-05
0.00280739
-8.21298e-05
0.00262413
0.00146073
0.00237563
0.00225264
0.00210134
0.00274104
0.00180384
0.00324751
0.00151436
0.0036655
0.00116972
0.0037592
0.000813304
0.00372112
0.000414637
0.00365406
0.00349293
0.00279994
-3.83009e-13
0.00279994
-2.34069e-12
0.00279994
-7.64002e-12
0.00279994
-2.01414e-11
0.00279994
-4.82693e-11
0.00279994
-1.10405e-10
0.00279994
-2.46655e-10
0.00279994
-5.44536e-10
0.00279994
-1.19504e-09
0.00279994
-2.61513e-09
0.00279994
-5.71587e-09
0.00279994
-1.24914e-08
0.00279994
-2.73238e-08
0.00279994
-5.99218e-08
0.00279995
-1.32178e-07
0.00279997
-2.95209e-07
0.0028
-6.76571e-07
0.00280009
-1.62979e-06
0.00280031
-4.26412e-06
0.00280089
-1.41492e-05
0.00280644
-8.72173e-05
0.00261872
0.00164177
0.00236476
0.00250449
0.00209824
0.00300676
0.00179866
0.00354664
0.001528
0.00393604
0.00116968
0.00411753
0.00082668
0.00406405
0.000420628
0.00406024
0.00391326
0.00279994
-3.9485e-13
0.00279994
-2.41297e-12
0.00279994
-7.87592e-12
0.00279994
-2.07646e-11
0.00279994
-4.97689e-11
0.00279994
-1.13855e-10
0.00279994
-2.54419e-10
0.00279994
-5.61816e-10
0.00279994
-1.2333e-09
0.00279994
-2.69966e-09
0.00279994
-5.90241e-09
0.00279994
-1.2903e-08
0.00279994
-2.82326e-08
0.00279994
-6.19337e-08
0.00279995
-1.36656e-07
0.00279996
-3.053e-07
0.00279999
-6.99899e-07
0.00280005
-1.6864e-06
0.00280022
-4.41312e-06
0.00280063
-1.46379e-05
0.00280536
-9.14998e-05
0.00261358
0.00182704
0.0023551
0.0027609
0.00209141
0.00326961
0.00179564
0.0038422
0.00152362
0.00420794
0.00118456
0.00445655
0.00085085
0.00439772
0.000427346
0.00448387
0.00434032
0.00279994
-4.01161e-13
0.00279994
-2.45142e-12
0.00279994
-8.00142e-12
0.00279994
-2.10973e-11
0.00279994
-5.05743e-11
0.00279994
-1.15724e-10
0.00279994
-2.58671e-10
0.00279994
-5.71399e-10
0.00279994
-1.2548e-09
0.00279994
-2.7478e-09
0.00279994
-6.01009e-09
0.00279994
-1.31439e-08
0.00279994
-2.87718e-08
0.00279994
-6.31433e-08
0.00279994
-1.39386e-07
0.00279995
-3.11537e-07
0.00279997
-7.14534e-07
0.00280001
-1.72252e-06
0.00280013
-4.51037e-06
0.00280037
-1.49608e-05
0.00280403
-9.47087e-05
0.00260623
0.00201849
0.00235006
0.00301508
0.00207933
0.00353949
0.00179468
0.00412653
0.00152033
0.00448223
0.00119472
0.00478212
0.000847051
0.00474536
0.0004306
0.00490045
0.00477063
0.00279994
-4.01205e-13
0.00279994
-2.45155e-12
0.00279994
-8.00183e-12
0.00279994
-2.11006e-11
0.00279994
-5.05928e-11
0.00279994
-1.15801e-10
0.00279994
-2.5894e-10
0.00279994
-5.72241e-10
0.00279994
-1.25725e-09
0.00279994
-2.75454e-09
0.00279994
-6.02798e-09
0.00279994
-1.319e-08
0.00279994
-2.88881e-08
0.00279994
-6.34327e-08
0.00279994
-1.401e-07
0.00279994
-3.13305e-07
0.00279995
-7.18997e-07
0.00279997
-1.73426e-06
0.00280003
-4.54395e-06
0.00280006
-1.5074e-05
0.00280253
-9.67413e-05
0.00259999
0.00221486
0.00234301
0.0032701
0.00207188
0.0038098
0.00179295
0.00440514
0.00151834
0.00475678
0.00120231
0.00509812
0.000849567
0.00509807
0.000434584
0.00531553
0.00520493
0.00279994
-3.94147e-13
0.00279994
-2.40824e-12
0.00279994
-7.86046e-12
0.00279994
-2.07307e-11
0.00279994
-4.97193e-11
0.00279994
-1.13846e-10
0.00279994
-2.54691e-10
0.00279994
-5.63166e-10
0.00279994
-1.23807e-09
0.00279994
-2.71428e-09
0.00279994
-5.94384e-09
0.00279994
-1.30147e-08
0.00279994
-2.85239e-08
0.00279994
-6.2676e-08
0.00279994
-1.38525e-07
0.00279994
-3.1e-07
0.00279993
-7.11923e-07
0.00279992
-1.71844e-06
0.0027999
-4.50606e-06
0.00279971
-1.49579e-05
0.00280085
-9.74445e-05
0.00259332
0.0024164
0.0023372
0.00352433
0.00206515
0.00408104
0.00179108
0.00467885
0.00151961
0.00502819
0.00120828
0.00540943
0.000850298
0.00545603
0.000437691
0.00572823
0.00564234
0.00279994
-3.79047e-13
0.00279994
-2.31574e-12
0.00279994
-7.55856e-12
0.00279994
-1.99382e-11
0.00279994
-4.78355e-11
0.00279994
-1.09588e-10
0.00279994
-2.45321e-10
0.00279994
-5.42845e-10
0.00279994
-1.19435e-09
0.00279994
-2.62065e-09
0.00279994
-5.74382e-09
0.00279994
-1.25879e-08
0.00279994
-2.76131e-08
0.00279994
-6.0729e-08
0.00279993
-1.34342e-07
0.00279992
-3.0091e-07
0.00279991
-6.91686e-07
0.00279987
-1.67113e-06
0.00279977
-4.38628e-06
0.00279932
-1.45829e-05
0.00279898
-9.66918e-05
0.0025872
0.00262239
0.00233003
0.00377963
0.00205991
0.0043504
0.00179184
0.00494656
0.00152162
0.00529835
0.00121794
0.00571308
0.000854975
0.00581895
0.00044308
0.00614024
0.00608514
0.00279994
-3.54865e-13
0.00279994
-2.16772e-12
0.00279994
-7.07542e-12
0.00279994
-1.86684e-11
0.00279994
-4.48106e-11
0.00279994
-1.02729e-10
0.00279994
-2.30164e-10
0.00279994
-5.0981e-10
0.00279994
-1.12288e-09
0.00279994
-2.46663e-09
0.00279994
-5.41256e-09
0.00279994
-1.18759e-08
0.00279994
-2.60821e-08
0.00279993
-5.74295e-08
0.00279993
-1.27192e-07
0.00279991
-2.85225e-07
0.00279988
-6.56394e-07
0.0027998
-1.58766e-06
0.00279961
-4.1716e-06
0.00279887
-1.39097e-05
0.00279695
-9.43749e-05
0.00258157
0.00283217
0.00232248
0.0040369
0.00205542
0.00461668
0.00179274
0.00520889
0.0015269
0.0055641
0.00122487
0.00601507
0.000860771
0.00618301
0.000447986
0.00655312
0.00653287
0.00279994
-3.20472e-13
0.00279994
-1.95724e-12
0.00279994
-6.38845e-12
0.00279994
-1.68619e-11
0.00279994
-4.05024e-11
0.00279994
-9.29439e-11
0.00279994
-2.08497e-10
0.00279994
-4.62472e-10
0.00279994
-1.02019e-09
0.00279994
-2.24467e-09
0.00279994
-4.93367e-09
0.00279994
-1.08433e-08
0.00279993
-2.38541e-08
0.00279993
-5.2611e-08
0.00279992
-1.16712e-07
0.0027999
-2.62152e-07
0.00279985
-6.04277e-07
0.00279973
-1.46392e-06
0.00279943
-3.85204e-06
0.00279837
-1.29134e-05
0.00279468
-9.03011e-05
0.0025754
0.00304603
0.00231559
0.00429492
0.00205146
0.00488004
0.00179579
0.00546418
0.00153296
0.00582684
0.00123825
0.00630973
0.000868822
0.00655239
0.000456431
0.00696557
0.00698907
0.00279994
-2.74637e-13
0.00279994
-1.6768e-12
0.00279994
-5.47311e-12
0.00279994
-1.44541e-11
0.00279994
-3.47562e-11
0.00279994
-7.98798e-11
0.00279994
-1.79533e-10
0.00279994
-3.99096e-10
0.00279994
-8.82469e-10
0.00279994
-1.94647e-09
0.00279994
-4.28908e-09
0.00279994
-9.45061e-09
0.00279993
-2.08429e-08
0.00279993
-4.60849e-08
0.00279991
-1.02487e-07
0.00279988
-2.30755e-07
0.00279981
-5.33174e-07
0.00279965
-1.2946e-06
0.00279923
-3.41301e-06
0.0027978
-1.15498e-05
0.00279219
-8.43163e-05
0.00256965
0.00326332
0.00230799
0.00455482
0.00204729
0.00513997
0.00180024
0.00571086
0.00154298
0.00608399
0.00124859
0.00660406
0.0008806
0.00692033
0.000464441
0.00738176
0.00745329
0.00279994
-2.16035e-13
0.00279994
-1.3183e-12
0.00279994
-4.30296e-12
0.00279994
-1.13751e-11
0.00279994
-2.74048e-11
0.00279994
-6.31549e-11
0.00279994
-1.42419e-10
0.00279994
-3.17804e-10
0.00279994
-7.05619e-10
0.00279994
-1.56307e-09
0.00279994
-3.45926e-09
0.00279993
-7.65539e-09
0.00279993
-1.69564e-08
0.00279992
-3.76504e-08
0.00279991
-8.40771e-08
0.00279987
-1.90069e-07
0.00279978
-4.40899e-07
0.00279956
-1.07455e-06
0.002799
-2.84128e-06
0.00279718
-9.78266e-06
0.00278942
-7.62107e-05
0.00256312
0.00348455
0.00230107
0.00481512
0.00204464
0.00539561
0.00180647
0.00594862
0.0015543
0.00633604
0.00126775
0.00689053
0.000893873
0.00729416
0.000477866
0.00779777
0.00793094
0.00279994
-1.43255e-13
0.00279994
-8.73106e-13
0.00279994
-2.84987e-12
0.00279994
-7.55087e-12
0.00279994
-1.82701e-11
0.00279994
-4.23606e-11
0.00279994
-9.62415e-11
0.00279994
-2.16572e-10
0.00279994
-4.85182e-10
0.00279994
-1.0847e-09
0.00279994
-2.42286e-09
0.00279993
-5.41096e-09
0.00279993
-1.20926e-08
0.00279992
-2.70848e-08
0.0027999
-6.09947e-08
0.00279985
-1.39012e-07
0.00279973
-3.25009e-07
0.00279946
-7.97962e-07
0.00279875
-2.12194e-06
0.00279649
-7.57004e-06
0.00278638
-6.57772e-05
0.00255655
0.00370947
0.00229212
0.0050778
0.00204191
0.00564502
0.00181574
0.00617438
0.00157077
0.00658086
0.00128475
0.00717644
0.000913048
0.00766578
0.000490803
0.00822
0.00842153
0.00279994
-5.48429e-14
0.00279994
-3.32347e-13
0.00279994
-1.08483e-12
0.00279994
-2.90465e-12
0.00279994
-7.16756e-12
0.00279994
-1.70719e-11
0.00279994
-4.00411e-11
0.00279994
-9.32614e-11
0.00279994
-2.16408e-10
0.00279994
-5.00842e-10
0.00279994
-1.15652e-09
0.00279993
-2.66558e-09
0.00279993
-6.13663e-09
0.00279991
-1.41336e-08
0.00279989
-3.26741e-08
0.00279982
-7.63205e-08
0.00279968
-1.82646e-07
0.00279935
-4.58269e-07
0.00279847
-1.23937e-06
0.00279573
-4.87231e-06
0.00278309
-5.28294e-05
0.00254951
0.00393827
0.00228396
0.00534162
0.0020401
0.00588805
0.00182695
0.00638706
0.00159059
0.00681705
0.00131288
0.00745402
0.000933762
0.00804481
0.00051186
0.00864187
0.00893318
0.00279994
5.0605e-14
0.00279994
3.12527e-13
0.00279994
1.02006e-12
0.00279994
2.6374e-12
0.00279994
6.08118e-12
0.00279994
1.31236e-11
0.00279994
2.71157e-11
0.00279994
5.42262e-11
0.00279994
1.05409e-10
0.00279994
1.99105e-10
0.00279994
3.63701e-10
0.00279993
6.35445e-10
0.00279992
1.03763e-09
0.00279991
1.49869e-09
0.00279988
1.58312e-09
0.0027998
-3.40414e-10
0.00279963
-9.96029e-09
0.00279922
-4.7189e-08
0.00279817
-1.82138e-07
0.00279496
-1.70903e-06
0.00277947
-3.70629e-05
0.00254003
0.00417307
0.00227306
0.00560683
0.00203939
0.00612085
0.00184288
0.00658306
0.00161658
0.00704313
0.00134248
0.00772795
0.000962325
0.00842485
0.000531395
0.00907274
0.00946436
0.00279994
1.74278e-13
0.00279994
1.06882e-12
0.00279994
3.48867e-12
0.00279994
9.13813e-12
0.00279994
2.1626e-11
0.00279994
4.85654e-11
0.00279994
1.05975e-10
0.00279994
2.27487e-10
0.00279994
4.83599e-10
0.00279994
1.02185e-09
0.00279993
2.15073e-09
0.00279993
4.51511e-09
0.00279992
9.46565e-09
0.0027999
1.98489e-08
0.00279986
4.17527e-08
0.00279978
8.86206e-08
0.00279957
1.91817e-07
0.0027991
4.3162e-07
0.00279788
1.04183e-06
0.00279422
1.90532e-06
0.00277563
-1.82262e-05
0.00253094
0.00441321
0.00226108
0.00587491
0.00203897
0.00634203
0.00186183
0.00675963
0.00164988
0.00725483
0.00138831
0.00798931
0.00100211
0.0088109
0.000564332
0.00951042
0.0100285
0.00279994
3.17263e-13
0.00279994
1.9431e-12
0.00279994
6.34251e-12
0.00279994
1.66555e-11
0.00279994
3.96115e-11
0.00279994
8.96018e-11
0.00279994
1.97359e-10
0.00279994
4.28442e-10
0.00279994
9.22575e-10
0.00279994
1.97735e-09
0.00279993
4.22645e-09
0.00279993
9.02002e-09
0.00279992
1.92424e-08
0.0027999
4.10977e-08
0.00279985
8.81419e-08
0.00279975
1.90985e-07
0.00279952
4.22991e-07
0.00279897
9.77693e-07
0.00279758
2.43204e-06
0.00279348
5.96292e-06
0.00277135
4.12547e-06
0.00251477
0.00466532
0.00224653
0.00614132
0.00204208
0.00654548
0.00188745
0.00691363
0.00169102
0.00745092
0.00144003
0.00824002
0.00106502
0.00918573
0.000599685
0.00997564
0.0106279
0.00279994
4.8013e-13
0.00279994
2.93859e-12
0.00279994
9.59211e-12
0.00279994
2.52216e-11
0.00279994
6.01344e-11
0.00279994
1.3652e-10
0.00279994
3.02104e-10
0.00279994
6.59456e-10
0.00279994
1.42888e-09
0.00279994
3.08338e-09
0.00279993
6.63842e-09
0.00279993
1.4276e-08
0.00279992
3.06976e-08
0.00279989
6.61061e-08
0.00279984
1.42996e-07
0.00279971
3.12635e-07
0.00279944
6.99212e-07
0.00279878
1.6343e-06
0.00279709
4.11791e-06
0.00279208
1.09312e-05
0.00276498
3.1411e-05
0.00249753
0.00492839
0.00222756
0.0064094
0.00204588
0.00672607
0.00191799
0.00704079
0.00174321
0.00762532
0.00148745
0.00849544
0.00114326
0.00952969
0.000649252
0.0104695
0.0112769
0.00279994
6.61178e-13
0.00279994
4.04465e-12
0.00279994
1.32028e-11
0.00279994
3.4749e-11
0.00279994
8.30039e-11
0.00279994
1.88948e-10
0.00279994
4.19563e-10
0.00279994
9.19615e-10
0.00279994
2.00187e-09
0.00279994
4.34203e-09
0.00279993
9.4002e-09
0.00279993
2.03354e-08
0.00279991
4.40044e-08
0.00279988
9.54025e-08
0.00279982
2.07868e-07
0.00279967
4.58074e-07
0.00279934
1.03376e-06
0.00279852
2.44301e-06
0.00279638
6.24956e-06
0.00278983
1.74486e-05
0.00275732
6.40569e-05
0.00246746
0.00521389
0.00220715
0.00666774
0.00205778
0.00687424
0.0019575
0.00714024
0.00181947
0.00776287
0.00157226
0.00874226
0.00122236
0.00987927
0.000700071
0.0109917
0.0119767
0.00279994
8.54902e-13
0.00279994
5.22749e-12
0.00279994
1.70638e-11
0.00279994
4.49449e-11
0.00279994
1.07516e-10
0.00279994
2.4527e-10
0.00279994
5.4613e-10
0.00279994
1.20097e-09
0.00279994
2.62417e-09
0.00279994
5.71544e-09
0.00279993
1.24294e-08
0.00279993
2.7019e-08
0.00279991
5.877e-08
0.00279988
1.28117e-07
0.0027998
2.80791e-07
0.00279964
6.22684e-07
0.00279925
1.41505e-06
0.00279832
3.37095e-06
0.00279585
8.70824e-06
0.00278825
2.5003e-05
0.00274912
0.000103279
0.00241824
0.00554041
0.00218053
0.00690337
0.00207444
0.00697901
0.00200379
0.00720997
0.00187931
0.00788675
0.00163139
0.0089897
0.00126626
0.0102441
0.000768345
0.0114894
0.0127448
0.00279994
1.05117e-12
0.00279994
6.42723e-12
0.00279994
2.09833e-11
0.00279994
5.53011e-11
0.00279994
1.32433e-10
0.00279994
3.02597e-10
0.00279994
6.75181e-10
0.00279994
1.48851e-09
0.00279994
3.26193e-09
0.00279994
7.12776e-09
0.00279993
1.55571e-08
0.00279993
3.3953e-08
0.00279991
7.4177e-08
0.00279987
1.62489e-07
0.0027998
3.58047e-07
0.00279962
7.98867e-07
0.0027992
1.82846e-06
0.00279817
4.39502e-06
0.00279535
1.14989e-05
0.00278648
3.38396e-05
0.00274422
0.000145558
0.00233789
0.00594232
0.00215947
0.00707953
0.00210753
0.0070295
0.00206185
0.0072546
0.00193883
0.00800904
0.00168076
0.00924725
0.00132458
0.0105998
0.000842946
0.0119709
0.0135875
0.00279994
1.24852e-12
0.00279994
7.60858e-12
0.00279994
2.4776e-11
0.00279994
6.52439e-11
0.00279994
1.56271e-10
0.00279994
3.57328e-10
0.00279994
7.98191e-10
0.00279994
1.76212e-09
0.00279994
3.86766e-09
0.00279994
8.46633e-09
0.00279993
1.85146e-08
0.00279993
4.04938e-08
0.00279991
8.86736e-08
0.00279988
1.9475e-07
0.0027998
4.30422e-07
0.00279964
9.63875e-07
0.00279924
2.21719e-06
0.00279825
5.37223e-06
0.00279544
1.42747e-05
0.00278587
4.3363e-05
0.00274118
0.00019021
0.00216553
0.00651344
0.00215545
0.00708722
0.0021559
0.00702745
0.00213409
0.00727524
0.00201497
0.00812733
0.00177504
0.00948656
0.00143632
0.010938
0.000935514
0.0124713
0.0145226
0.0111998
1.76141e-12
0.0111998
1.08035e-11
0.0111998
3.53579e-11
0.0111998
9.32481e-11
0.0111998
2.2318e-10
0.0111998
5.0917e-10
0.0111998
1.13354e-09
0.0111998
2.49193e-09
0.0111997
5.44302e-09
0.0111997
1.18511e-08
0.0111997
2.57671e-08
0.0111997
5.6009e-08
0.0111997
1.21847e-07
0.0111996
2.65739e-07
0.0111994
5.82881e-07
0.0111991
1.29429e-06
0.0111983
2.94753e-06
0.0111965
7.04875e-06
0.0111922
1.83612e-05
0.0111815
5.38105e-05
0.01115
0.000220857
0.0120228
0.00562063
0.0111679
0.00793082
0.0103193
0.00786827
0.00961455
0.00797415
0.00919116
0.0085462
0.00903885
0.00963584
0.00924434
0.0107299
0.0104167
0.0112971
0.00936946
0.0155686
0.0111998
2.41073e-12
0.0111998
1.49017e-11
0.0111998
4.90859e-11
0.0111998
1.29804e-10
0.0111998
3.10868e-10
0.0111998
7.08772e-10
0.0111998
1.57561e-09
0.0111997
3.45688e-09
0.0111997
7.53293e-09
0.0111997
1.63587e-08
0.0111997
3.54684e-08
0.0111997
7.68699e-08
0.0111997
1.66715e-07
0.0111996
3.62422e-07
0.0111993
7.92216e-07
0.0111988
1.75243e-06
0.0111977
3.97331e-06
0.0111951
9.4487e-06
0.0111886
2.44271e-05
0.0111708
7.10644e-05
0.0110773
0.000312077
0.0106524
0.00602292
0.0103649
0.0082036
0.0101565
0.00806646
0.0100376
0.00808578
0.0101384
0.00844028
0.0105985
0.00917175
0.0115505
0.00977493
0.0127509
0.0100943
0.00826934
0.0138493
0.0111998
3.71511e-12
0.0111998
2.29594e-11
0.0111998
7.5616e-11
0.0111998
1.99952e-10
0.0111998
4.78872e-10
0.0111998
1.09186e-09
0.0111998
2.4274e-09
0.0111997
5.32616e-09
0.0111997
1.16075e-08
0.0111997
2.521e-08
0.0111997
5.46656e-08
0.0111997
1.18489e-07
0.0111996
2.57003e-07
0.0111994
5.58735e-07
0.0111989
1.22133e-06
0.0111978
2.70128e-06
0.0111955
6.12229e-06
0.01119
1.45493e-05
0.011176
3.75724e-05
0.0111373
0.00010887
0.0110056
0.000438526
0.0107447
0.00625589
0.0103635
0.0085642
0.0102738
0.00814055
0.0103426
0.00800639
0.010671
0.00810516
0.0113103
0.0085285
0.0122382
0.00884394
0.0132678
0.00906198
0.00774412
0.0137915
0.0111998
5.99937e-12
0.0111998
3.67918e-11
0.0111998
1.20397e-10
0.0111998
3.17428e-10
0.0111998
7.59331e-10
0.0111998
1.731e-09
0.0111997
3.84977e-09
0.0111997
8.45318e-09
0.0111997
1.84394e-08
0.0111997
4.00897e-08
0.0111997
8.70265e-08
0.0111996
1.88841e-07
0.0111994
4.10039e-07
0.0111991
8.92313e-07
0.0111983
1.95199e-06
0.0111965
4.31892e-06
0.0111924
9.785e-06
0.0111829
2.32226e-05
0.0111591
5.98429e-05
0.011092
0.000173978
0.0108682
0.000652838
0.0106879
0.00639886
0.0106315
0.00859342
0.0105205
0.00823399
0.0106757
0.00783929
0.0110583
0.00771483
0.0116906
0.00789099
0.0124386
0.00809279
0.0132836
0.00821486
0.00762813
0.0133979
0.0111998
8.68886e-12
0.0111998
5.37442e-11
0.0111998
1.77169e-10
0.0111998
4.68869e-10
0.0111998
1.12401e-09
0.0111997
2.56614e-09
0.0111997
5.71431e-09
0.0111997
1.25625e-08
0.0111997
2.74371e-08
0.0111997
5.97263e-08
0.0111997
1.29813e-07
0.0111996
2.82018e-07
0.0111993
6.13014e-07
0.0111988
1.3352e-06
0.0111977
2.92252e-06
0.0111951
6.46644e-06
0.0111895
1.46376e-05
0.0111765
3.4665e-05
0.0111442
8.90412e-05
0.0110555
0.000257965
0.0107591
0.00093315
0.00961839
0.00748755
0.0102992
0.0078692
0.0104213
0.00809058
0.0107801
0.00746814
0.0112269
0.00726128
0.0118219
0.00729205
0.0125139
0.00739734
0.0132451
0.00748119
0.00706804
0.0138038
0.0111998
1.38251e-11
0.0111998
8.22051e-11
0.0111998
2.61921e-10
0.0111998
6.82249e-10
0.0111998
1.62577e-09
0.0111997
3.71015e-09
0.0111997
8.28544e-09
0.0111997
1.83027e-08
0.0111997
4.02129e-08
0.0111997
8.81221e-08
0.0111996
1.9289e-07
0.0111994
4.22103e-07
0.0111991
9.2416e-07
0.0111982
2.02665e-06
0.0111963
4.46118e-06
0.0111921
9.90203e-06
0.0111827
2.23741e-05
0.0111615
5.24923e-05
0.0111109
0.000133034
0.0109612
0.000397967
0.0102343
0.00162485
0.010293
0.00732891
0.0109726
0.0072167
0.0114077
0.00765886
0.0112752
0.00759586
0.0116698
0.00686757
0.0120647
0.00689743
0.0126221
0.00683957
0.0132653
0.00683728
0.00647142
0.0138613
0.0111998
9.5875e-12
0.0111998
5.88052e-11
0.0111998
1.92515e-10
0.0111998
5.08445e-10
0.0111998
1.2202e-09
0.0111998
2.79459e-09
0.0111998
6.25174e-09
0.0111998
1.38214e-08
0.0111998
3.03787e-08
0.0111998
6.65851e-08
0.0111998
1.45769e-07
0.0111998
3.19012e-07
0.0111999
6.98323e-07
0.0112001
1.52996e-06
0.0112005
3.35827e-06
0.0112014
7.40008e-06
0.011204
1.64388e-05
0.011212
3.71441e-05
0.0112432
8.70927e-05
0.0113935
0.000221583
0.012163
0.000802802
0.0184044
0.000774621
0.0146261
0.0110443
0.0125983
0.00972051
0.0121311
0.00807363
0.012471
0.00653243
0.0126718
0.0066994
0.0130196
0.00649423
0.013469
0.00638858
0.00606086
0.0138807
0.0111998
6.08799e-12
0.0111998
3.83345e-11
0.0111998
1.28181e-10
0.0111998
3.41369e-10
0.0111998
8.20478e-10
0.0111998
1.87451e-09
0.0111998
4.1728e-09
0.0111998
9.16497e-09
0.0111998
1.99899e-08
0.0111998
4.3444e-08
0.0111998
9.42437e-08
0.0111999
2.04266e-07
0.0112002
4.42628e-07
0.0112007
9.59535e-07
0.0112019
2.08313e-06
0.0112045
4.53837e-06
0.0112105
9.96518e-06
0.0112245
2.22509e-05
0.0112583
5.14281e-05
0.01135
0.000127161
0.0117849
0.000366598
0.0114905
0.00104696
0.0130057
0.0095492
0.0154806
0.00728651
0.0146599
0.00892578
0.013338
0.007866
0.0132762
0.00677251
0.013469
0.00631047
0.0137413
0.00612092
0.00585439
0.0139497
0.0111998
7.31441e-12
0.0111998
4.37179e-11
0.0111998
1.39929e-10
0.0111998
3.65304e-10
0.0111998
8.71298e-10
0.0111998
1.98854e-09
0.0111998
4.43874e-09
0.0111998
9.79737e-09
0.0111997
2.15038e-08
0.0111997
4.70682e-08
0.0111997
1.02893e-07
0.0111997
2.2482e-07
0.0111997
4.91243e-07
0.0111996
1.07396e-06
0.0111993
2.35103e-06
0.0111987
5.16169e-06
0.0111974
1.1404e-05
0.0111944
2.55412e-05
0.0111875
5.89409e-05
0.0111704
0.000145511
0.0111114
0.000428045
0.0103688
0.00179165
0.013863
0.00607856
0.0140204
0.00714164
0.0152315
0.00773891
0.0136331
0.00948029
0.0137085
0.00671112
0.013786
0.00624137
0.0138974
0.0060178
0.00566052
0.014095
0.0111998
4.48177e-12
0.0111998
2.79547e-11
0.0111998
9.2783e-11
0.0111998
2.46322e-10
0.0111998
5.91361e-10
0.0111998
1.35092e-09
0.0111998
3.00872e-09
0.0111998
6.61387e-09
0.0111998
1.44413e-08
0.0111998
3.14238e-08
0.0111998
6.82563e-08
0.0111999
1.48129e-07
0.0112001
3.21338e-07
0.0112005
6.97047e-07
0.0112013
1.51258e-06
0.0112033
3.28587e-06
0.0112077
7.15653e-06
0.0112178
1.56764e-05
0.0112427
3.47718e-05
0.0113105
7.93064e-05
0.0115496
0.000192267
0.0127028
0.000638481
0.0175079
0.0012901
0.0151146
0.00954958
0.0151977
0.00767482
0.016799
0.00789759
0.0142069
0.00931553
0.0142259
0.00622766
0.0141925
0.00605236
0.00564874
0.0142064
0.0111998
3.9253e-12
0.0111998
2.37627e-11
0.0111998
7.69101e-11
0.0111998
2.01815e-10
0.0111998
4.82195e-10
0.0111998
1.10026e-09
0.0111998
2.45259e-09
0.0111998
5.40219e-09
0.0111998
1.18273e-08
0.0111998
2.58158e-08
0.0111998
5.62661e-08
0.0111998
1.2255e-07
0.0111999
2.66858e-07
0.0112
5.81132e-07
0.0112002
1.26601e-06
0.0112008
2.76062e-06
0.011202
6.03211e-06
0.0112046
1.32399e-05
0.0112105
2.93521e-05
0.0112241
6.65878e-05
0.0112585
0.000159862
0.0114396
0.000460583
0.0107542
0.00198382
0.0154601
0.00487507
0.0149357
0.00821562
0.0149189
0.00792601
0.0164235
0.00781859
0.0147493
0.00789873
0.0144753
0.00632445
0.00571705
0.0144075
0.0111998
2.39999e-12
0.0111998
1.47465e-11
0.0111998
4.83359e-11
0.0111998
1.27573e-10
0.0111998
3.05476e-10
0.0111998
6.97174e-10
0.0111998
1.5526e-09
0.0111998
3.41431e-09
0.0111998
7.45999e-09
0.0111998
1.62461e-08
0.0111998
3.53218e-08
0.0111998
7.67338e-08
0.0111999
1.66635e-07
0.0112002
3.61808e-07
0.0112007
7.85572e-07
0.0112017
1.70585e-06
0.0112041
3.70523e-06
0.0112095
8.0528e-06
0.0112216
1.75242e-05
0.0112507
3.82563e-05
0.0113277
8.43499e-05
0.0115983
0.000193138
0.0129483
0.000636084
0.016466
0.00137079
0.0163572
0.00835448
0.0169444
0.00734043
0.0169117
0.00784947
0.0158592
0.00894821
0.0150648
0.00711225
0.00601635
0.0147636
0.0111998
1.17792e-12
0.0111998
7.41791e-12
0.0111998
2.48059e-11
0.0111998
6.60397e-11
0.0111998
1.58561e-10
0.0111998
3.61615e-10
0.0111998
8.03028e-10
0.0111998
1.75849e-09
0.0111998
3.82237e-09
0.0111998
8.27574e-09
0.0111998
1.78788e-08
0.0111998
3.85768e-08
0.0111999
8.3172e-08
0.0112001
1.79225e-07
0.0112005
3.86057e-07
0.0112014
8.31369e-07
0.0112034
1.79025e-06
0.0112078
3.85644e-06
0.0112175
8.31775e-06
0.0112389
1.79993e-05
0.0112866
3.92691e-05
0.011398
8.74087e-05
0.0118307
0.000214393
0.0125306
0.000694418
0.0195866
0.00137733
0.0170701
0.00983518
0.017689
0.00721557
0.0188443
0.00778096
0.0161658
0.00978371
0.006673
0.015505
0.0111998
8.42553e-13
0.0111998
5.14488e-12
0.0111998
1.67724e-11
0.0111998
4.41422e-11
0.0111998
1.05528e-10
0.0111998
2.40574e-10
0.0111998
5.35251e-10
0.0111998
1.17597e-09
0.0111998
2.5669e-09
0.0111998
5.58437e-09
0.0111998
1.21284e-08
0.0111998
2.63192e-08
0.0111998
5.7091e-08
0.0111999
1.23821e-07
0.0112
2.68545e-07
0.0112002
5.82496e-07
0.0112008
1.26388e-06
0.0112019
2.74417e-06
0.0112043
5.96698e-06
0.0112093