/*--------------------------------*- C++ -*----------------------------------*\
  =========                 |
  \\      /  F ield         | OpenFOAM: The Open Source CFD Toolbox
   \\    /   O peration     | Website:  https://openfoam.org
    \\  /    A nd           | Version:  6.0
     \\/     M anipulation  |
\*---------------------------------------------------------------------------*/
FoamFile
{
    version     2.0;
    format      ascii;
    class       volScalarField;
    location    "4";
    object      T;
}
// * * * * * * * * * * * * * * * * * * * * * * * * * * * * * * * * * * * * * //

dimensions      [0 0 0 1 0 0 0];

internalField   nonuniform List<scalar> 
2700
(
1
1
1
1
1
1.00001
1.00002
1.00005
1.00011
1.00024
1.00053
1.00116
1.00252
1.00549
1.01197
1.02621
1.05791
1.13003
1.30657
1.72167
3.44627
1.9111
2.54437
2.76945
2.80913
2.79136
2.7835
2.80214
2.804
2.80719
1
1
1
1
1
1.00001
1.00002
1.00005
1.00011
1.00024
1.00053
1.00116
1.00252
1.00549
1.01197
1.02622
1.05793
1.13006
1.30665
1.72217
3.4457
1.91181
2.54683
2.77139
2.80919
2.78972
2.78227
2.80012
2.80336
2.80707
1
1
1
1
1
1.00001
1.00002
1.00005
1.00011
1.00024
1.00053
1.00116
1.00252
1.00549
1.01198
1.02623
1.05795
1.13012
1.30676
1.72314
3.44435
1.91424
2.55004
2.77309
2.80895
2.7876
2.78148
2.79901
2.80219
2.80665
1
1
1
1
1
1.00001
1.00002
1.00005
1.00011
1.00025
1.00053
1.00116
1.00252
1.00549
1.01198
1.02624
1.05798
1.13019
1.30691
1.72457
3.44237
1.91811
2.5538
2.7747
2.80822
2.78524
2.78026
2.79802
2.80171
2.80622
1
1
1
1
1
1.00001
1.00002
1.00005
1.00011
1.00025
1.00053
1.00116
1.00252
1.0055
1.01199
1.02626
1.05802
1.13029
1.30709
1.72644
3.43974
1.92349
2.55811
2.7764
2.80712
2.78238
2.77903
2.79632
2.80052
2.80564
1
1
1
1
1
1.00001
1.00002
1.00005
1.00011
1.00025
1.00053
1.00116
1.00253
1.0055
1.012
1.02628
1.05807
1.13041
1.3073
1.72873
3.43647
1.93039
2.5629
2.77798
2.80573
2.77966
2.77736
2.79496
2.79951
2.80436
1
1
1
1
1
1.00001
1.00002
1.00005
1.00011
1.00025
1.00053
1.00116
1.00253
1.00551
1.01201
1.02631
1.05812
1.13055
1.30754
1.73141
3.43258
1.9387
2.56844
2.7794
2.80392
2.77651
2.77599
2.79243
2.79787
2.80335
1
1
1
1
1
1.00001
1.00002
1.00005
1.00011
1.00025
1.00053
1.00116
1.00253
1.00551
1.01202
1.02633
1.05818
1.1307
1.3078
1.73447
3.42801
1.94859
2.57403
2.7811
2.80186
2.77334
2.77385
2.79093
2.79572
2.80107
1
1
1
1
1
1.00001
1.00002
1.00005
1.00011
1.00025
1.00054
1.00116
1.00253
1.00552
1.01204
1.02636
1.05825
1.13087
1.30808
1.73786
3.42285
1.95981
2.58063
2.7819
2.79964
2.77025
2.77175
2.78762
2.79372
2.79952
1
1
1
1
1.00001
1.00001
1.00002
1.00005
1.00011
1.00025
1.00054
1.00117
1.00254
1.00552
1.01205
1.0264
1.05832
1.13105
1.30838
1.74157
3.41699
1.97258
2.58713
2.78362
2.79645
2.76675
2.76966
2.78575
2.79056
2.79609
1
1
1
1
1.00001
1.00001
1.00002
1.00005
1.00011
1.00025
1.00054
1.00117
1.00254
1.00553
1.01207
1.02643
1.0584
1.13124
1.3087
1.74555
3.41049
1.98673
2.59423
2.78405
2.79409
2.76298
2.76661
2.78189
2.78808
2.79394
1
1
1
1
1.00001
1.00001
1.00002
1.00005
1.00011
1.00025
1.00054
1.00117
1.00254
1.00554
1.01208
1.02647
1.05848
1.13144
1.30903
1.74979
3.40335
2.0022
2.60193
2.785
2.78989
2.75994
2.76391
2.77941
2.78387
2.78927
1
1
1
1
1.00001
1.00001
1.00002
1.00005
1.00011
1.00025
1.00054
1.00117
1.00255
1.00555
1.0121
1.02651
1.05856
1.13165
1.30938
1.75423
3.39548
2.01917
2.60912
2.7874
2.78371
2.75673
2.76018
2.77515
2.78072
2.78646
1
1
1
1
1.00001
1.00001
1.00002
1.00005
1.00011
1.00025
1.00054
1.00117
1.00255
1.00555
1.01212
1.02654
1.05865
1.13187
1.30972
1.75883
3.38696
2.03742
2.61651
2.78905
2.77844
2.75274
2.75764
2.77146
2.77522
2.78047
1
1
1
1
1.00001
1.00001
1.00002
1.00005
1.00011
1.00025
1.00054
1.00117
1.00255
1.00556
1.01214
1.02658
1.05873
1.13208
1.31007
1.76353
3.37778
2.05696
2.62382
2.79065
2.77374
2.74776
2.75255
2.76731
2.77117
2.77694
1
1
1
1
1.00001
1.00001
1.00002
1.00005
1.00011
1.00025
1.00054
1.00118
1.00256
1.00557
1.01215
1.02662
1.05882
1.1323
1.31041
1.76828
3.36795
2.07771
2.63132
2.79115
2.76857
2.74403
2.74962
2.76178
2.7646
2.76949
1
1
1
1
1.00001
1.00001
1.00002
1.00005
1.00011
1.00025
1.00054
1.00118
1.00256
1.00558
1.01217
1.02666
1.0589
1.13251
1.31074
1.77303
3.35749
2.09956
2.63911
2.7911
2.76323
2.73829
2.74357
2.75747
2.75936
2.76503
1
1
1
1
1.00001
1.00001
1.00002
1.00005
1.00011
1.00025
1.00054
1.00118
1.00256
1.00559
1.01219
1.02669
1.05898
1.13271
1.31105
1.7777
3.34636
2.12253
2.64686
2.79078
2.75786
2.73434
2.74025
2.74992
2.75173
2.75573
1
1
1
1
1.00001
1.00001
1.00002
1.00005
1.00011
1.00025
1.00054
1.00118
1.00257
1.00559
1.0122
1.02673
1.05905
1.13289
1.31132
1.78223
3.33457
2.14648
2.65475
2.7899
2.75165
2.72787
2.73319
2.7451
2.74497
2.75007
1
1
1
1
1.00001
1.00001
1.00002
1.00005
1.00011
1.00025
1.00054
1.00118
1.00257
1.0056
1.01221
1.02675
1.05912
1.13306
1.31155
1.78657
3.32209
2.17141
2.6624
2.78881
2.74621
2.7236
2.72929
2.7356
2.73616
2.7383
1
1
1
1
1.00001
1.00001
1.00002
1.00005
1.00011
1.00025
1.00054
1.00118
1.00257
1.0056
1.01222
1.02678
1.05917
1.1332
1.31173
1.79062
3.30892
2.19721
2.67002
2.78654
2.73911
2.71645
2.72139
2.72985
2.72735
2.73108
1
1
1
1
1.00001
1.00001
1.00002
1.00005
1.00011
1.00025
1.00054
1.00118
1.00257
1.00561
1.01223
1.0268
1.05921
1.13331
1.31183
1.79432
3.29505
2.22377
2.67752
2.78479
2.73352
2.71168
2.71574
2.71834
2.71694
2.71599
1
1
1
1
1.00001
1.00001
1.00002
1.00005
1.00011
1.00025
1.00054
1.00118
1.00257
1.00561
1.01224
1.02681
1.05923
1.13338
1.31185
1.79758
3.2804
2.25112
2.68431
2.78113
2.72583
2.70388
2.7074
2.71107
2.70539
2.70626
1
1
1
1
1.00001
1.00001
1.00002
1.00005
1.00011
1.00025
1.00054
1.00118
1.00257
1.00561
1.01224
1.02681
1.05924
1.1334
1.31176
1.80029
3.26496
2.27909
2.69162
2.77879
2.72015
2.69844
2.69954
2.69711
2.69249
2.68634
1
1
1
1
1.00001
1.00001
1.00002
1.00005
1.00011
1.00025
1.00054
1.00118
1.00257
1.00561
1.01223
1.0268
1.05922
1.13337
1.31156
1.80235
3.24868
2.30747
2.69705
2.77385
2.71234
2.69006
2.69036
2.68805
2.6767
2.67153
1
1
1
1
1.00001
1.00001
1.00002
1.00005
1.00011
1.00025
1.00054
1.00118
1.00257
1.0056
1.01222
1.02678
1.05917
1.13328
1.31125
1.80371
3.23124
2.33642
2.70404
2.7711
2.70675
2.68389
2.68027
2.66942
2.66002
2.64389
1
1
1
1
1.00001
1.00001
1.00002
1.00005
1.00011
1.00025
1.00054
1.00118
1.00257
1.00559
1.01221
1.02674
1.05909
1.13311
1.31078
1.80416
3.2133
2.36401
2.70773
2.76544
2.69944
2.67508
2.66996
2.65819
2.63676
2.61835
1
1
1
1
1.00001
1.00001
1.00002
1.00005
1.00011
1.00025
1.00054
1.00118
1.00256
1.00558
1.01218
1.02669
1.05897
1.13284
1.31009
1.80352
3.19364
2.39369
2.71404
2.76267
2.69421
2.6676
2.65598
2.63527
2.61134
2.5755
1
1
1
1
1.00001
1.00001
1.00002
1.00005
1.00011
1.00025
1.00054
1.00117
1.00256
1.00557
1.01215
1.02661
1.0588
1.13247
1.30916
1.80146
3.17421
2.41987
2.71719
2.75743
2.68794
2.65812
2.64314
2.61772
2.5764
2.52548
1
1
1
1
1.00001
1.00001
1.00002
1.00005
1.00011
1.00025
1.00054
1.00117
1.00255
1.00555
1.0121
1.02651
1.05859
1.13196
1.30788
1.79801
3.15146
2.45184
2.72407
2.75546
2.68295
2.64832
2.62453
2.58922
2.53969
2.45015
1
1
1
1
1
1.00001
1.00002
1.00005
1.00011
1.00024
1.00053
1.00116
1.00252
1.00548
1.01197
1.02621
1.0579
1.13033
1.30364
1.78531
3.08312
2.54276
2.71065
2.75063
2.67839
2.62118
2.57932
2.52029
2.4122
2.29624
1
1
1
1
1
1.00001
1.00002
1.00005
1.00011
1.00024
1.00052
1.00113
1.00246
1.00536
1.01168
1.02559
1.05651
1.12714
1.29566
1.76424
2.97004
2.64892
2.73013
2.71476
2.64919
2.58491
2.52149
2.4623
2.3399
2.24913
1
1
1
1
1
1.00001
1.00002
1.00005
1.00011
1.00023
1.0005
1.00109
1.00238
1.00518
1.01131
1.02478
1.05471
1.12296
1.28593
1.72891
2.90863
2.70677
2.7239
2.69281
2.62864
2.5675
2.4954
2.43153
2.3186
2.23442
1
1
1
1
1
1.00001
1.00002
1.00005
1.0001
1.00022
1.00048
1.00104
1.00226
1.00492
1.01074
1.02353
1.05193
1.11657
1.27074
1.68086
2.8139
2.77357
2.69435
2.65882
2.58421
2.53606
2.46277
2.40834
2.31231
2.23974
1
1
1
1
1
1.00001
1.00002
1.00004
1.00009
1.0002
1.00043
1.00095
1.00206
1.00449
1.0098
1.02146
1.04733
1.10604
1.24545
1.60792
2.64826
2.74023
2.67722
2.64959
2.58349
2.52794
2.46197
2.39743
2.31985
2.24958
1
1
1
1
1
1.00001
1.00002
1.00004
1.00008
1.00017
1.00037
1.00081
1.00177
1.00387
1.00846
1.01853
1.04086
1.09131
1.21055
1.51075
2.46789
2.63875
2.63231
2.60164
2.57683
2.52634
2.46774
2.40624
2.3307
2.26422
1
1
1
1
1
1.00001
1.00001
1.00003
1.00006
1.00012
1.00027
1.00058
1.00127
1.00277
1.00604
1.0132
1.02897
1.06414
1.14532
1.33923
1.94923
2.53333
2.61514
2.59676
2.54651
2.50133
2.44911
2.40123
2.33572
2.27302
1
1
1
1
1
1
1.00001
1.00002
1.00004
1.00009
1.0002
1.00042
1.00092
1.002
1.00434
1.00945
1.02063
1.04531
1.10104
1.2313
1.58033
2.36502
2.58156
2.57795
2.5411
2.49574
2.43923
2.38187
2.32365
2.27043
1
1
1
1
1
1
1.00001
1.00001
1.00003
1.00007
1.00015
1.00033
1.00073
1.00158
1.00344
1.00751
1.01641
1.03606
1.0802
1.18321
1.44033
2.1939
2.49351
2.53828
2.51812
2.4812
2.42619
2.37298
2.31245
2.2602
1
1
1
1
1
1
1
1.00001
1.00002
1.00005
1.0001
1.00021
1.00046
1.001
1.00216
1.00469
1.01019
1.02223
1.04878
1.10916
1.24868
1.69101
2.28386
2.43132
2.44474
2.43746
2.40765
2.35691
2.3036
2.25044
1
1
1
1
1
1
1
1.00001
1.00001
1.00003
1.00007
1.00014
1.00031
1.00068
1.00148
1.00322
1.007
1.01527
1.03346
1.0742
1.16808
1.40826
2.04011
2.35074
2.37239
2.38661
2.37588
2.34104
2.28886
2.24176
1
1
1
1
1
1
1
1
1.00001
1.00002
1.00004
1.00008
1.00018
1.00038
1.00083
1.00179
1.00388
1.0084
1.01827
1.03996
1.08882
1.20134
1.54158
2.06901
2.25247
2.29095
2.30427
2.28966
2.25209
2.22023
1
1
1
1
1
1
1
1
1
1.00001
1.00002
1.00004
1.0001
1.00021
1.00045
1.00096
1.00208
1.00448
1.00969
1.02102
1.04596
1.10158
1.23967
1.61158
2.10471
2.23336
2.23669
2.23479
2.2065
2.17605
1
1
1
1
1
1
1
1
1
1.00001
1.00001
1.00003
1.00006
1.00013
1.00028
1.0006
1.00131
1.00283
1.00615
1.01339
1.02926
1.06461
1.14545
1.35057
1.85534
2.1632
2.18648
2.18881
2.17784
2.15523
1
1
1
1
1
1
1
1
1
1
1.00001
1.00001
1.00003
1.00007
1.00014
1.00031
1.00067
1.00144
1.00312
1.00676
1.01468
1.032
1.07071
1.15908
1.4134
1.86151
2.05936
2.09699
2.10761
2.10915
1
1
1
1
1
1
1
1
1
1
1
1.00001
1.00001
1.00003
1.00007
1.00014
1.00031
1.00067
1.00144
1.00311
1.00671
1.01451
1.03156
1.06925
1.15937
1.40153
1.82939
1.98925
2.02061
2.02575
1
1
1
1
1
1
1
1
1
1
1
1
1.00001
1.00001
1.00003
1.00007
1.00014
1.0003
1.00065
1.0014
1.00302
1.0065
1.01403
1.03045
1.06676
1.15321
1.38851
1.79317
1.929
1.94334
1
1
1
1
1
1
1
1
1
1
1
1
1
1.00001
1.00001
1.00003
1.00007
1.00014
1.00031
1.00066
1.00143
1.00307
1.00664
1.01436
1.03126
1.06874
1.15799
1.39394
1.72708
1.82308
1
1
1
1
1
1
1
1
1
1
1
1
1
1
1
1.00001
1.00002
1.00005
1.0001
1.00021
1.00044
1.00094
1.00199
1.00423
1.00899
1.01924
1.04143
1.09709
1.24233
1.54409
1
1
1
1
1
1
1
1
1
1
1
1
1
1
1
1
1.00001
1.00002
1.00005
1.0001
1.00021
1.00046
1.00099
1.00212
1.00455
1.00978
1.02109
1.04628
1.09946
1.29337
1
1
1
1
1
1
1
1
1
1
1
1
1
1
1
1
1
1.00001
1.00002
1.00004
1.00009
1.0002
1.00043
1.00091
1.00195
1.00417
1.00893
1.01931
1.04093
1.1005
1
1
1
1
1
1
1
1
1
1
1
1
1
1
1
1
1
1.00001
1.00002
1.00003
1.00007
1.00015
1.00033
1.00072
1.00156
1.00338
1.00734
1.01599
1.03461
1.08031
1
1
1
1
1
1
1
1
1
1
1
1
1
1
1
1
1
1.00001
1.00001
1.00003
1.00006
1.00013
1.00028
1.00061
1.00133
1.0029
1.00632
1.01381
1.03013
1.06827
1
1
1
1
1
1
1
1
1
1
1
1
1
1
1
1
1
1
1.00001
1.00002
1.00005
1.0001
1.00022
1.00048
1.00105
1.00228
1.00495
1.01078
1.0236
1.05161
1
1
1
1
1
1
1
1
1
1
1
1
1
1
1
1
1
1
1.00001
1.00001
1.00003
1.00006
1.00014
1.0003
1.00064
1.00138
1.00299
1.00651
1.01437
1.03014
1
1
1
1
1
1
1
1
1
1
1
1
1
1
1
1
1
1
1
1.00001
1.00002
1.00005
1.0001
1.00022
1.00048
1.00105
1.0023
1.00503
1.01114
1.02343
1
1
1
1
1
1
1
1
1
1
1
1
1
1
1
1
1
1
1
1.00001
1.00001
1.00003
1.00007
1.00015
1.00032
1.00069
1.00149
1.00323
1.00718
1.01482
1
1
1
1
1
1
1
1
1
1
1
1
1
1
1
1
1
1
1
1.00001
1.00001
1.00003
1.00005
1.00012
1.00026
1.00056
1.00123
1.00265
1.00605
1.01216
1
1
1
1
1
1
1
1
1
1
1
1
1
1
1
1
1
1
1
1
1.00001
1.00002
1.00004
1.00009
1.00019
1.0004
1.00088
1.00186
1.00436
1.00834
1
1
1
1
1
1
1
1
1
1
1
1
1
1
1
1
1
1
1
1
1.00001
1.00002
1.00004
1.00009
1.00019
1.0004
1.00088
1.00187
1.00434
1.00845
2.15225
2.14273
2.25544
2.62722
2.44425
2.48185
2.48608
2.49456
2.50348
2.52559
2.54458
2.57297
2.63579
2.70186
2.89656
2.8819
2.57076
2.7638
2.91719
2.97288
3.00942
2.99398
2.96728
2.93696
2.91285
2.88384
2.8552
2.82895
2.80396
2.8129
2.13461
2.224
2.35149
2.37701
2.34313
2.32957
2.35411
2.37274
2.37931
2.39013
2.40353
2.43558
2.47531
2.58196
2.67802
2.93894
2.74934
2.83968
2.9036
2.94046
2.91787
2.8859
2.84608
2.80569
2.75677
2.70794
2.66179
2.62773
2.57626
2.57168
2.15548
2.21701
2.25911
2.1888
2.16233
2.16428
2.17481
2.18405
2.18801
2.19762
2.21317
2.24119
2.28134
2.37799
2.51684
2.84005
2.8118
2.83069
2.86476
2.83863
2.79989
2.75316
2.7028
2.66469
2.60946
2.57839
2.53785
2.49945
2.47256
2.45826
2.17181
2.15562
2.10762
2.07092
2.05771
2.05838
2.05831
2.05697
2.05997
2.06994
2.08674
2.11475
2.15787
2.2563
2.40675
2.73325
2.76071
2.7967
2.78564
2.74059
2.69637
2.64793
2.59041
2.54608
2.51575
2.46673
2.42439
2.4069
2.37381
2.36375
2.14811
2.12198
2.08242
2.0494
2.0195
1.99695
1.99031
1.99077
1.99221
1.99785
2.01337
2.03736
2.08506
2.16907
2.34166
2.61525
2.71144
2.72855
2.72604
2.69416
2.63855
2.58561
2.53316
2.46765
2.42684
2.40212
2.36518
2.34377
2.31404
2.30222
2.14331
2.10573
2.06811
2.02391
1.98279
1.95487
1.94603
1.94917
1.95241
1.95688
1.96831
1.9897
2.03756
2.11795
2.29072
2.54839
2.65321
2.63998
2.64138
2.61453
2.55973
2.49928
2.45528
2.39959
2.34736
2.32167
2.28524
2.26914
2.252
2.2414
2.15266
2.10298
2.05597
2.00914
1.96661
1.9354
1.92154
1.925
1.927
1.92923
1.93663
1.95639
2.0021
2.08193
2.23254
2.4965
2.59215
2.57056
2.56389
2.54902
2.51229
2.45229
2.40649
2.36118
2.30419
2.27039
2.23374
2.21539
2.20207
2.19779
2.15259
2.09721
2.04685
1.9998
1.95611
1.92163
1.90496
1.90571
1.90811
1.91183
1.92035
1.93984
1.97819
2.06188
2.1762
2.40767
2.52906
2.50079
2.48494
2.47343
2.44747
2.40581
2.36104
2.31607
2.26167
2.22336
2.19552
2.18153
2.16419
2.16019
2.15035
2.09251
2.03904
1.99099
1.94858
1.91263
1.8956
1.89381
1.89762
1.90289
1.91043
1.9266
1.96375
2.0276
2.14688
2.30974
2.45027
2.4369
2.41101
2.40418
2.39153
2.35995
2.31401
2.27006
2.21966
2.1747
2.14378
2.13793
2.12951
2.12132
2.14245
2.08621
2.03506
1.98548
1.94472
1.90725
1.88951
1.88788
1.89276
1.89839
1.90772
1.92416
1.9646
2.01307
2.11364
2.24276
2.3357
2.36858
2.35782
2.33823
2.32907
2.30958
2.27081
2.22029
2.17702
2.13533
2.10208
2.09416
2.08067
2.07986
2.13618
2.07722
2.02871
1.98255
1.94347
1.90758
1.88944
1.89062
1.89772
1.90348
1.91475
1.93345
1.97219
2.0323
2.06441
2.1917
2.24833
2.29977
2.29318
2.28308
2.26675
2.24667
2.22081
2.17007
2.13973
2.10625
2.07265
2.05936
2.04523
2.04207
2.13013
2.07092
2.02178
1.97605
1.94159
1.9088
1.89265
1.89847
1.90998
1.9155
1.92583
1.95009
1.97347
2.03198
2.04075
2.07253
2.20012
2.23034
2.21022
2.20992
2.20544
2.19228
2.16225
2.11635
2.08428
2.06631
2.03966
2.02066
1.99761
1.99951
2.11332
2.06535
2.01943
1.97429
1.94199
1.91146
1.89927
1.90896
1.92256
1.93068
1.93904
1.96058
1.98121
2.00356
2.0208
2.02575
2.10772
2.1335
2.16043
2.14897
2.14517
2.13473
2.11328
2.08246
2.05311
2.02979
2.00103
1.98602
1.96315
1.96162
2.08733
2.05188
2.0137
1.97152
1.94318
1.91698
1.90814
1.91479
1.92955
1.93866
1.94744
1.96198
1.97954
1.99252
1.99349
1.98163
1.99487
2.07166
2.09239
2.09364
2.08873
2.08487
2.0719
2.0418
2.01772
1.99681
1.9748
1.95953
1.93055
1.92562
2.06805
2.03987
2.01054
1.97336
1.94665
1.92331
1.91268
1.91453
1.92761
1.93809
1.95045
1.96013
1.97248
1.9897
1.97733
1.9452
1.9523
1.96611
2.03703
2.03748
2.03451
2.04136
2.039
2.02074
1.98933
1.97403
1.95895
1.94347
1.91326
1.9043
2.02552
2.01843
2.00092
1.97273
1.95184
1.92872
1.91512
1.91746
1.92884
1.9418
1.95506
1.96253
1.97954
1.97537
1.95801
1.91582
1.91171
1.92047
1.95977
1.99737
1.98178
1.98581
1.99804
1.99676
1.97802
1.94481
1.94515
1.93648
1.90467
1.89001
1.9808
1.9967
1.99218
1.97026
1.94925
1.93529
1.91653
1.92138
1.93282
1.95045
1.9644
1.97292
1.98145
1.96232
1.94221
1.89294
1.86546
1.88011
1.89612
1.92809
1.94628
1.93817
1.94815
1.9628
1.96163
1.93176
1.92167
1.92646
1.90218
1.87833
1.91641
1.94781
1.97224
1.96514
1.9401
1.92918
1.92006
1.92826
1.93724
1.96057
1.9782
1.99333
1.96983
1.94292
1.927
1.8871
1.84164
1.83903
1.85416
1.86308
1.8817
1.88988
1.90719
1.92446
1.9268
1.92149
1.90877
1.90661
1.89133
1.87394
1.86232
1.91327
1.93593
1.94726
1.93316
1.91635
1.92345
1.93222
1.94425
1.97061
1.98477
2.00015
1.95753
1.93734
1.91756
1.87274
1.82174
1.80375
1.80914
1.81747
1.82113
1.83899
1.86635
1.89272
1.8996
1.90162
1.89732
1.894
1.88499
1.87475
1.77049
1.86737
1.90311
1.92699
1.92502
1.90983
1.93264
1.94439
1.96071
1.99568
2.02857
2.02831
1.98357
1.95171
1.91078
1.84069
1.80328
1.77858
1.76613
1.76652
1.76981
1.78566
1.81108
1.85744
1.87078
1.86673
1.86569
1.86755
1.86454
1.86343
1.66393
1.81765
1.85417
1.88337
1.90608
1.91453
1.947
1.96854
2.00202
2.0582
2.09159
2.01971
1.96297
1.94483
1.90391
1.81561
1.77511
1.7503
1.72682
1.72404
1.72631
1.73645
1.7596
1.79926
1.83657
1.8365
1.83245
1.83572
1.84967
1.85379
1.61248
1.82865
1.84573
1.86903
1.8906
1.91541
1.95399
1.98482
2.05476
2.11855
2.06362
1.99204
1.94745
1.93606
1.89488
1.7942
1.74369
1.72422
1.69191
1.6876
1.68999
1.69548
1.7123
1.73798
1.78394
1.80481
1.80013
1.80476
1.83082
1.85761
1.53212
1.8014
1.8285
1.83877
1.86723
1.90576
1.95319
2.00098
2.06281
2.09089
2.04595
1.97878
1.9464
1.9292
1.86292
1.76884
1.72795
1.70731
1.66495
1.65157
1.65388
1.66154
1.67885
1.69446
1.7301
1.76604
1.76341
1.76501
1.79592
1.84232
1.37506
1.70465
1.80395
1.82513
1.84809
1.89052
1.96362
2.04356
2.09887
2.07723
2.01584
1.9636
1.94247
1.9204
1.84426
1.75144
1.71021
1.68955
1.64475
1.62088
1.62353
1.63631
1.64911
1.66048
1.67879
1.72019
1.72641
1.7307
1.76439
1.83067
1.20194
1.58421
1.78792
1.81695
1.83978
1.89632
1.99277
2.09729
2.11104
2.06734
2.00843
1.96718
1.9438
1.89449
1.81389
1.73621
1.697
1.67813
1.63383
1.59809
1.5982
1.61368
1.62874
1.63977
1.65301
1.67927
1.71381
1.71995
1.75157
1.81973
1.14249
1.47434
1.74121
1.79572
1.83584
1.92481
2.07338
2.1153
2.09729
2.04569
2.01973
1.97719
1.91502
1.85875
1.79401
1.72824
1.69092
1.67238
1.62856
1.58283
1.57843
1.59096
1.60842
1.61859
1.62841
1.6484
1.6899
1.71117
1.74321
1.80829
1.08317
1.32456
1.60699
1.74827
1.83301
2.01444
2.12468
2.12318
2.09526
2.0795
2.04211
1.96388
1.90327
1.85047
1.78737
1.72335
1.68554
1.66719
1.62409
1.57262
1.5653
1.5758
1.591
1.59839
1.60545
1.62049
1.65343
1.71641
1.75101
1.82678
1.0729
1.2247
1.54236
1.70439
1.85857
2.0753
2.12565
2.12975
2.11367
2.09505
2.03099
1.9498
1.89338
1.84158
1.78075
1.71838
1.6796
1.66061
1.61747
1.56079
1.54935
1.55824
1.57213
1.5773
1.58155
1.59288
1.62324
1.72245
1.75656
1.83986
1.05291
1.14156
1.38876
1.6719
1.96046
2.12893
2.10817
2.12971
2.11399
2.07968
1.99437
1.91776
1.87088
1.82607
1.76973
1.70869
1.66919
1.64931
1.60537
1.55029
1.53807
1.54763
1.5621
1.56604
1.56879
1.57598
1.59723
1.68495
1.74395
1.83748
1.05164
1.13724
1.36113
1.70497
2.12964
2.23195
2.20182
2.16625
2.12513
2.06965
1.98079
1.90888
1.8654
1.82291
1.76887
1.70952
1.66972
1.6496
1.60588
1.55087
1.53769
1.54766
1.56159
1.5639
1.56623
1.57246
1.59361
1.65518
1.75997
1.86375
)
;

boundaryField
{
    inlet
    {
        type            fixedValue;
        value           uniform 1;
    }
    outlet
    {
        type            inletOutlet;
        inletValue      uniform 1;
        value           nonuniform List<scalar> 
30
(
2.8129
2.57168
2.45826
2.36375
2.30222
2.2414
2.19779
2.16019
2.12132
2.07986
2.04207
1.99951
1.96162
1.92562
1.9043
1.89001
1.87833
1.87394
1.87475
1.86343
1.85379
1.85761
1.84232
1.83067
1.81973
1.80829
1.82678
1.83986
1.83748
1.86375
)
;
    }
    top
    {
        type            symmetryPlane;
    }
    bottom
    {
        type            symmetryPlane;
    }
    step
    {
        type            zeroGradient;
    }
    defaultFaces
    {
        type            empty;
    }
}


// ************************************************************************* //
