/*--------------------------------*- C++ -*----------------------------------*\
  =========                 |
  \\      /  F ield         | OpenFOAM: The Open Source CFD Toolbox
   \\    /   O peration     | Website:  https://openfoam.org
    \\  /    A nd           | Version:  6.0
     \\/     M anipulation  |
\*---------------------------------------------------------------------------*/
FoamFile
{
    version     2.0;
    format      ascii;
    class       volVectorField;
    location    "4";
    object      U;
}
// * * * * * * * * * * * * * * * * * * * * * * * * * * * * * * * * * * * * * //

dimensions      [0 1 -1 0 0 0 0];

internalField   nonuniform List<vector> 
2700
(
(3 -8.89508e-12 0)
(3 -5.44079e-11 0)
(3 -1.77814e-10 0)
(3 -4.69577e-10 0)
(3 -1.12804e-09 0)
(2.99999 -2.58829e-09 0)
(2.99998 -5.80532e-09 0)
(2.99996 -1.28766e-08 0)
(2.99991 -2.84125e-08 0)
(2.9998 -6.25557e-08 0)
(2.99956 -1.37647e-07 0)
(2.99904 -3.02985e-07 0)
(2.99792 -6.67645e-07 0)
(2.99547 -1.47412e-06 0)
(2.99011 -3.26631e-06 0)
(2.97828 -7.28561e-06 0)
(2.95175 -1.64694e-05 0)
(2.89008 -3.82805e-05 0)
(2.73609 -9.44595e-05 0)
(2.29801 -0.000277051 0)
(-0.191932 -0.00119035 0)
(-1.97665 0.00146474 0)
(-1.16675 0.0042817 0)
(-0.426837 0.00770716 0)
(0.0427624 0.0120415 0)
(0.282753 0.0196578 0)
(0.339625 0.0223493 0)
(0.223156 0.0197373 0)
(0.0355456 0.0155938 0)
(-0.0214159 0.0149697 0)
(3 -2.63807e-11 0)
(3 -1.61351e-10 0)
(3 -5.27243e-10 0)
(3 -1.39198e-09 0)
(3 -3.34249e-09 0)
(2.99999 -7.66494e-09 0)
(2.99998 -1.7179e-08 0)
(2.99996 -3.8069e-08 0)
(2.99991 -8.39058e-08 0)
(2.9998 -1.84488e-07 0)
(2.99956 -4.053e-07 0)
(2.99904 -8.90441e-07 0)
(2.99792 -1.95766e-06 0)
(2.99547 -4.31032e-06 0)
(2.9901 -9.51733e-06 0)
(2.97827 -2.11319e-05 0)
(2.95174 -4.7467e-05 0)
(2.89005 -0.000109249 0)
(2.73601 -0.000264761 0)
(2.29762 -0.000758151 0)
(-0.191998 -0.00351741 0)
(-1.97605 0.00455068 0)
(-1.16235 0.0128397 0)
(-0.417218 0.0224992 0)
(0.0568423 0.0337387 0)
(0.296199 0.050083 0)
(0.345791 0.0506842 0)
(0.23397 0.0423655 0)
(0.0555682 0.031504 0)
(-0.00903777 0.0280561 0)
(3 -4.30664e-11 0)
(3 -2.63382e-10 0)
(3 -8.60475e-10 0)
(3 -2.27092e-09 0)
(3 -5.44992e-09 0)
(2.99999 -1.24878e-08 0)
(2.99998 -2.79602e-08 0)
(2.99996 -6.18844e-08 0)
(2.99991 -1.36198e-07 0)
(2.9998 -2.98961e-07 0)
(2.99956 -6.55512e-07 0)
(2.99904 -1.43693e-06 0)
(2.99792 -3.15093e-06 0)
(2.99547 -6.91653e-06 0)
(2.9901 -1.52164e-05 0)
(2.97826 -3.36331e-05 0)
(2.95172 -7.50978e-05 0)
(2.89001 -0.000171333 0)
(2.73587 -0.000408893 0)
(2.29688 -0.00115068 0)
(-0.190991 -0.00574953 0)
(-1.97319 0.00801521 0)
(-1.15621 0.0221357 0)
(-0.406107 0.0385708 0)
(0.0719081 0.0573097 0)
(0.308692 0.0814354 0)
(0.350202 0.08119 0)
(0.240002 0.0702871 0)
(0.0723478 0.0545671 0)
(0.00329658 0.0480601 0)
(3 -5.86769e-11 0)
(3 -3.58826e-10 0)
(3 -1.17208e-09 0)
(3 -3.09225e-09 0)
(3 -7.41718e-09 0)
(2.99999 -1.69836e-08 0)
(2.99998 -3.79921e-08 0)
(2.99996 -8.39984e-08 0)
(2.99991 -1.84641e-07 0)
(2.9998 -4.04733e-07 0)
(2.99956 -8.86062e-07 0)
(2.99904 -1.939e-06 0)
(2.99792 -4.2439e-06 0)
(2.99546 -9.29629e-06 0)
(2.9901 -2.04042e-05 0)
(2.97825 -4.4979e-05 0)
(2.95169 -0.000100108 0)
(2.88994 -0.000227421 0)
(2.73568 -0.000539146 0)
(2.29581 -0.00151106 0)
(-0.189242 -0.00787069 0)
(-1.96837 0.0117636 0)
(-1.14853 0.0317558 0)
(-0.393809 0.0548042 0)
(0.0874904 0.0805779 0)
(0.320276 0.110462 0)
(0.353305 0.110054 0)
(0.243193 0.0988381 0)
(0.0843796 0.0803207 0)
(0.0147896 0.0713121 0)
(3 -7.31086e-11 0)
(3 -4.47055e-10 0)
(3 -1.46007e-09 0)
(3 -3.85105e-09 0)
(3 -9.23359e-09 0)
(2.99999 -2.11313e-08 0)
(2.99998 -4.72386e-08 0)
(2.99996 -1.04359e-07 0)
(2.99991 -2.29189e-07 0)
(2.9998 -5.01883e-07 0)
(2.99956 -1.09756e-06 0)
(2.99904 -2.39905e-06 0)
(2.99792 -5.24428e-06 0)
(2.99546 -1.14723e-05 0)
(2.99009 -2.5144e-05 0)
(2.97824 -5.53393e-05 0)
(2.95166 -0.00012294 0)
(2.88986 -0.000278636 0)
(2.73544 -0.000658199 0)
(2.29442 -0.00184289 0)
(-0.186706 -0.00986818 0)
(-1.9616 0.0157951 0)
(-1.1393 0.0417041 0)
(-0.380457 0.0711585 0)
(0.10339 0.103325 0)
(0.331031 0.137591 0)
(0.355469 0.137174 0)
(0.245088 0.126768 0)
(0.0926654 0.107713 0)
(0.0245075 0.0962509 0)
(3 -8.63446e-11 0)
(3 -5.27971e-10 0)
(3 -1.72417e-09 0)
(3 -4.54683e-09 0)
(3 -1.08989e-08 0)
(2.99999 -2.49332e-08 0)
(2.99998 -5.57125e-08 0)
(2.99996 -1.23014e-07 0)
(2.99991 -2.69998e-07 0)
(2.9998 -5.90869e-07 0)
(2.99956 -1.29128e-06 0)
(2.99904 -2.82045e-06 0)
(2.99792 -6.16083e-06 0)
(2.99546 -1.34669e-05 0)
(2.99008 -2.94912e-05 0)
(2.97822 -6.48499e-05 0)
(2.95162 -0.000143926 0)
(2.88976 -0.0003258 0)
(2.73515 -0.000768156 0)
(2.29272 -0.00215154 0)
(-0.18335 -0.0117386 0)
(-1.95289 0.020117 0)
(-1.12851 0.0519952 0)
(-0.366079 0.0877004 0)
(0.119457 0.12576 0)
(0.340974 0.163565 0)
(0.356793 0.163377 0)
(0.246081 0.153951 0)
(0.0985719 0.135717 0)
(0.032524 0.12244 0)
(3 -9.83879e-11 0)
(3 -6.01596e-10 0)
(3 -1.96449e-09 0)
(3 -5.18e-09 0)
(3 -1.24146e-08 0)
(2.99999 -2.83943e-08 0)
(2.99998 -6.34285e-08 0)
(2.99996 -1.40006e-07 0)
(2.99991 -3.07185e-07 0)
(2.9998 -6.71993e-07 0)
(2.99956 -1.46798e-06 0)
(2.99904 -3.20506e-06 0)
(2.99791 -6.99791e-06 0)
(2.99545 -1.52897e-05 0)
(2.99007 -3.34675e-05 0)
(2.9782 -7.3556e-05 0)
(2.95157 -0.000163154 0)
(2.88965 -0.00036905 0)
(2.73483 -0.000869062 0)
(2.29075 -0.00243573 0)
(-0.179164 -0.0134805 0)
(-1.94224 0.0247143 0)
(-1.11632 0.0626649 0)
(-0.350636 0.1044 0)
(0.135679 0.14795 0)
(0.350225 0.188709 0)
(0.357425 0.189097 0)
(0.246536 0.18089 0)
(0.102752 0.163976 0)
(0.0390112 0.149859 0)
(3 -1.09225e-10 0)
(3 -6.67852e-10 0)
(3 -2.18077e-09 0)
(3 -5.75e-09 0)
(3 -1.37795e-08 0)
(2.99999 -3.15127e-08 0)
(2.99998 -7.03854e-08 0)
(2.99996 -1.55338e-07 0)
(2.99991 -3.40768e-07 0)
(2.9998 -7.45326e-07 0)
(2.99956 -1.62788e-06 0)
(2.99904 -3.55349e-06 0)
(2.99791 -7.75719e-06 0)
(2.99545 -1.69454e-05 0)
(2.99006 -3.7084e-05 0)
(2.97818 -8.14869e-05 0)
(2.95152 -0.0001807 0)
(2.88953 -0.0004086 0)
(2.73446 -0.000961595 0)
(2.28851 -0.00269764 0)
(-0.174044 -0.0150843 0)
(-1.9296 0.0296044 0)
(-1.10245 0.0736842 0)
(-0.33444 0.12129 0)
(0.152025 0.169955 0)
(0.358885 0.21312 0)
(0.357544 0.214616 0)
(0.246508 0.207801 0)
(0.105872 0.19255 0)
(0.0444017 0.178343 0)
(3 -1.18807e-10 0)
(3 -7.26439e-10 0)
(3 -2.37206e-09 0)
(3 -6.25429e-09 0)
(3 -1.49878e-08 0)
(2.99999 -3.42753e-08 0)
(2.99998 -7.65539e-08 0)
(2.99996 -1.68948e-07 0)
(2.99991 -3.70613e-07 0)
(2.9998 -8.1058e-07 0)
(2.99956 -1.77035e-06 0)
(2.99904 -3.86439e-06 0)
(2.99791 -8.43565e-06 0)
(2.99544 -1.8427e-05 0)
(2.99005 -4.03253e-05 0)
(2.97815 -8.86061e-05 0)
(2.95146 -0.000196477 0)
(2.88939 -0.000444225 0)
(2.73406 -0.00104511 0)
(2.28603 -0.00293503 0)
(-0.16803 -0.0165419 0)
(-1.915 0.0347828 0)
(-1.08731 0.0850888 0)
(-0.317015 0.138291 0)
(0.168282 0.191864 0)
(0.367016 0.236877 0)
(0.357328 0.240153 0)
(0.24623 0.23483 0)
(0.108042 0.221429 0)
(0.0488577 0.207751 0)
(3 -1.27044e-10 0)
(3 -7.76803e-10 0)
(3 -2.53654e-09 0)
(3 -6.68812e-09 0)
(3 -1.6028e-08 0)
(2.99999 -3.66559e-08 0)
(2.99998 -8.1876e-08 0)
(2.99996 -1.80706e-07 0)
(2.99991 -3.96438e-07 0)
(2.9998 -8.67136e-07 0)
(2.99956 -1.89404e-06 0)
(2.99904 -4.13476e-06 0)
(2.99791 -9.02666e-06 0)
(2.99544 -1.97198e-05 0)
(2.99004 -4.31582e-05 0)
(2.97812 -9.48381e-05 0)
(2.9514 -0.000210307 0)
(2.88924 -0.000475495 0)
(2.73363 -0.00111846 0)
(2.28333 -0.00314429 0)
(-0.160996 -0.0178397 0)
(-1.89836 0.0402588 0)
(-1.07051 0.0969083 0)
(-0.299001 0.155432 0)
(0.184766 0.213712 0)
(0.374774 0.259946 0)
(0.356974 0.26609 0)
(0.245676 0.261904 0)
(0.109864 0.250653 0)
(0.0526916 0.23792 0)
(3 -1.33802e-10 0)
(3 -8.18131e-10 0)
(3 -2.67156e-09 0)
(3 -7.04446e-09 0)
(3 -1.68833e-08 0)
(2.99999 -3.86162e-08 0)
(2.99998 -8.62663e-08 0)
(2.99996 -1.90425e-07 0)
(2.99991 -4.17833e-07 0)
(2.9998 -9.14104e-07 0)
(2.99956 -1.99702e-06 0)
(2.99904 -4.36046e-06 0)
(2.9979 -9.52142e-06 0)
(2.99543 -2.08052e-05 0)
(2.99002 -4.5544e-05 0)
(2.9781 -0.000100104 0)
(2.95133 -0.000222038 0)
(2.88909 -0.000502138 0)
(2.73317 -0.00118134 0)
(2.28044 -0.00332562 0)
(-0.152944 -0.0189563 0)
(-1.87971 0.0460664 0)
(-1.05233 0.10911 0)
(-0.279832 0.17268 0)
(0.200843 0.235677 0)
(0.382345 0.282122 0)
(0.356689 0.2929 0)
(0.244781 0.288578 0)
(0.111549 0.280488 0)
(0.0560358 0.268829 0)
(3 -1.38906e-10 0)
(3 -8.49353e-10 0)
(3 -2.77361e-09 0)
(3 -7.31409e-09 0)
(3 -1.75315e-08 0)
(2.99999 -4.01052e-08 0)
(2.99998 -8.96099e-08 0)
(2.99996 -1.9785e-07 0)
(2.99991 -4.34231e-07 0)
(2.9998 -9.50224e-07 0)
(2.99956 -2.07649e-06 0)
(2.99904 -4.53522e-06 0)
(2.9979 -9.90575e-06 0)
(2.99543 -2.1651e-05 0)
(2.99001 -4.74084e-05 0)
(2.97806 -0.00010423 0)
(2.95127 -0.000231249 0)
(2.88892 -0.000523087 0)
(2.73268 -0.00123074 0)
(2.27738 -0.00346933 0)
(-0.143828 -0.0198762 0)
(-1.85901 0.0521962 0)
(-1.03281 0.121807 0)
(-0.259779 0.189903 0)
(0.216965 0.257913 0)
(0.38988 0.303869 0)
(0.356486 0.319995 0)
(0.243882 0.314608 0)
(0.113797 0.311408 0)
(0.0590254 0.300468 0)
(3 -1.42148e-10 0)
(3 -8.69187e-10 0)
(3 -2.83852e-09 0)
(3 -7.48599e-09 0)
(3 -1.79463e-08 0)
(2.99999 -4.10627e-08 0)
(2.99998 -9.17729e-08 0)
(2.99996 -2.02686e-07 0)
(2.99991 -4.44987e-07 0)
(2.9998 -9.74093e-07 0)
(2.99956 -2.12939e-06 0)
(2.99903 -4.65243e-06 0)
(2.9979 -1.01654e-05 0)
(2.99542 -2.22263e-05 0)
(2.99 -4.86853e-05 0)
(2.97803 -0.000107074 0)
(2.95119 -0.000237636 0)
(2.88875 -0.000537698 0)
(2.73218 -0.00126534 0)
(2.27419 -0.00357229 0)
(-0.133539 -0.0205672 0)
(-1.83621 0.0586971 0)
(-1.01162 0.134893 0)
(-0.23936 0.207545 0)
(0.233394 0.280016 0)
(0.39738 0.325928 0)
(0.356317 0.346475 0)
(0.243106 0.34076 0)
(0.116074 0.343175 0)
(0.0614604 0.332825 0)
(3 -1.43283e-10 0)
(3 -8.76147e-10 0)
(3 -2.86143e-09 0)
(3 -7.54739e-09 0)
(3 -1.80972e-08 0)
(2.99999 -4.1419e-08 0)
(2.99998 -9.26004e-08 0)
(2.99996 -2.04592e-07 0)
(2.99991 -4.49362e-07 0)
(2.9998 -9.84108e-07 0)
(2.99956 -2.15228e-06 0)
(2.99903 -4.70463e-06 0)
(2.9979 -1.02843e-05 0)
(2.99541 -2.2497e-05 0)
(2.98998 -4.93017e-05 0)
(2.978 -0.000108481 0)
(2.95112 -0.000240873 0)
(2.88858 -0.000545276 0)
(2.73167 -0.00128367 0)
(2.27091 -0.00363079 0)
(-0.122061 -0.0209943 0)
(-1.81133 0.0656217 0)
(-0.989005 0.148237 0)
(-0.218173 0.225847 0)
(0.249666 0.30187 0)
(0.40479 0.348425 0)
(0.356242 0.372367 0)
(0.242666 0.367726 0)
(0.118729 0.375258 0)
(0.0634371 0.365815 0)
(3 -1.4203e-10 0)
(3 -8.68514e-10 0)
(3 -2.83675e-09 0)
(3 -7.48351e-09 0)
(3 -1.79487e-08 0)
(2.99999 -4.10936e-08 0)
(2.99998 -9.19125e-08 0)
(2.99996 -2.03173e-07 0)
(2.99991 -4.46486e-07 0)
(2.9998 -9.78368e-07 0)
(2.99955 -2.14098e-06 0)
(2.99903 -4.68275e-06 0)
(2.99789 -1.02427e-05 0)
(2.99541 -2.24194e-05 0)
(2.98997 -4.91611e-05 0)
(2.97797 -0.000108236 0)
(2.95105 -0.00024047 0)
(2.88841 -0.000544675 0)
(2.73115 -0.00128284 0)
(2.26758 -0.00363648 0)
(-0.109295 -0.0211344 0)
(-1.78437 0.0729912 0)
(-0.964875 0.161888 0)
(-0.196389 0.244645 0)
(0.265758 0.323799 0)
(0.412066 0.371173 0)
(0.356392 0.397974 0)
(0.242646 0.395588 0)
(0.121692 0.407605 0)
(0.0650405 0.399494 0)
(3 -1.38073e-10 0)
(3 -8.44351e-10 0)
(3 -2.75813e-09 0)
(3 -7.27769e-09 0)
(3 -1.74609e-08 0)
(2.99999 -3.99952e-08 0)
(2.99998 -8.9506e-08 0)
(2.99996 -1.97981e-07 0)
(2.99991 -4.35381e-07 0)
(2.9998 -9.54739e-07 0)
(2.99955 -2.09087e-06 0)
(2.99903 -4.57668e-06 0)
(2.99789 -1.00185e-05 0)
(2.9954 -2.19458e-05 0)
(2.98995 -4.81599e-05 0)
(2.97794 -0.000106113 0)
(2.95098 -0.000235935 0)
(2.88823 -0.000534805 0)
(2.73063 -0.00126039 0)
(2.26424 -0.00358345 0)
(-0.0951737 -0.020966 0)
(-1.7553 0.0808334 0)
(-0.939322 0.17589 0)
(-0.17379 0.263835 0)
(0.28163 0.345858 0)
(0.419102 0.394142 0)
(0.356878 0.423515 0)
(0.243259 0.424223 0)
(0.125113 0.440333 0)
(0.0664348 0.43396 0)
(3 -1.31059e-10 0)
(3 -8.01496e-10 0)
(3 -2.61853e-09 0)
(3 -6.91135e-09 0)
(3 -1.65894e-08 0)
(2.99999 -3.80222e-08 0)
(2.99998 -8.5154e-08 0)
(2.99996 -1.88515e-07 0)
(2.99991 -4.1495e-07 0)
(2.99979 -9.10826e-07 0)
(2.99955 -1.9967e-06 0)
(2.99903 -4.37501e-06 0)
(2.99789 -9.58676e-06 0)
(2.99539 -2.10215e-05 0)
(2.98994 -4.6178e-05 0)
(2.97791 -0.000101847 0)
(2.95091 -0.000226672 0)
(2.88806 -0.000514294 0)
(2.73012 -0.00121296 0)
(2.26095 -0.00346278 0)
(-0.079626 -0.0204711 0)
(-1.7241 0.0891597 0)
(-0.912418 0.190345 0)
(-0.150427 0.283306 0)
(0.297353 0.368003 0)
(0.425953 0.417284 0)
(0.357797 0.449134 0)
(0.244518 0.453589 0)
(0.128997 0.473641 0)
(0.0677073 0.469394 0)
(3 -1.20599e-10 0)
(3 -7.37583e-10 0)
(3 -2.41022e-09 0)
(3 -6.36411e-09 0)
(3 -1.52855e-08 0)
(2.99999 -3.50633e-08 0)
(2.99998 -7.86087e-08 0)
(2.99996 -1.74231e-07 0)
(2.99991 -3.84001e-07 0)
(2.99979 -8.44028e-07 0)
(2.99955 -1.85283e-06 0)
(2.99903 -4.06543e-06 0)
(2.99788 -8.92082e-06 0)
(2.99539 -1.95883e-05 0)
(2.98993 -4.30886e-05 0)
(2.97788 -9.51612e-05 0)
(2.95084 -0.000212071 0)
(2.8879 -0.000481774 0)
(2.72964 -0.00113737 0)
(2.25775 -0.00326644 0)
(-0.0625591 -0.0196264 0)
(-1.69073 0.0979984 0)
(-0.884095 0.205307 0)
(-0.126443 0.303053 0)
(0.312924 0.390208 0)
(0.432632 0.440576 0)
(0.359269 0.474895 0)
(0.246669 0.483685 0)
(0.133478 0.507669 0)
(0.0690144 0.505987 0)
(3 -1.06272e-10 0)
(3 -6.50032e-10 0)
(3 -2.12479e-09 0)
(3 -5.61382e-09 0)
(3 -1.3496e-08 0)
(2.99999 -3.09975e-08 0)
(2.99998 -6.96004e-08 0)
(2.99996 -1.54534e-07 0)
(2.99991 -3.41236e-07 0)
(2.99979 -7.51521e-07 0)
(2.99955 -1.6531e-06 0)
(2.99903 -3.6346e-06 0)
(2.99788 -7.99167e-06 0)
(2.99538 -1.75834e-05 0)
(2.98992 -3.87552e-05 0)
(2.97785 -8.57571e-05 0)
(2.95078 -0.000191477 0)
(2.88775 -0.000435778 0)
(2.72918 -0.00103019 0)
(2.2547 -0.00298573 0)
(-0.0439019 -0.0184052 0)
(-1.65517 0.107384 0)
(-0.854448 0.220794 0)
(-0.101826 0.323115 0)
(0.328435 0.412379 0)
(0.439223 0.463977 0)
(0.361413 0.500869 0)
(0.249734 0.51457 0)
(0.138644 0.542597 0)
(0.0704521 0.544014 0)
(3 -8.76218e-11 0)
(3 -5.36055e-10 0)
(3 -1.75312e-09 0)
(3 -4.63646e-09 0)
(3 -1.11636e-08 0)
(2.99999 -2.56934e-08 0)
(2.99998 -5.78362e-08 0)
(2.99996 -1.28781e-07 0)
(2.99991 -2.85244e-07 0)
(2.99979 -6.30223e-07 0)
(2.99955 -1.39081e-06 0)
(2.99903 -3.06793e-06 0)
(2.99788 -6.76758e-06 0)
(2.99538 -1.49378e-05 0)
(2.9899 -3.30273e-05 0)
(2.97783 -7.33051e-05 0)
(2.95072 -0.000164161 0)
(2.88762 -0.000374653 0)
(2.72877 -0.00088751 0)
(2.25186 -0.00261032 0)
(-0.0235568 -0.0167786 0)
(-1.61737 0.117355 0)
(-0.823409 0.236838 0)
(-0.0767426 0.343472 0)
(0.343784 0.434442 0)
(0.445814 0.487452 0)
(0.364392 0.527092 0)
(0.254 0.546326 0)
(0.144658 0.578588 0)
(0.0722167 0.583792 0)
(3 -6.41604e-11 0)
(3 -3.92662e-10 0)
(3 -1.28546e-09 0)
(3 -3.40628e-09 0)
(3 -8.22637e-09 0)
(2.99999 -1.90098e-08 0)
(2.99998 -4.30003e-08 0)
(2.99996 -9.62729e-08 0)
(2.99991 -2.14495e-07 0)
(2.99979 -4.76792e-07 0)
(2.99955 -1.05868e-06 0)
(2.99902 -2.34955e-06 0)
(2.99788 -5.21409e-06 0)
(2.99537 -1.15766e-05 0)
(2.9899 -2.57425e-05 0)
(2.97781 -5.74532e-05 0)
(2.95068 -0.000129352 0)
(2.88751 -0.000296697 0)
(2.72842 -0.000705414 0)
(2.2493 -0.00213037 0)
(-0.00142652 -0.0147139 0)
(-1.57731 0.127965 0)
(-0.79105 0.253479 0)
(-0.0510658 0.364063 0)
(0.359078 0.456261 0)
(0.452512 0.510944 0)
(0.368378 0.553592 0)
(0.259534 0.579087 0)
(0.151694 0.615854 0)
(0.0744493 0.625777 0)
(3 -3.53754e-11 0)
(3 -2.16724e-10 0)
(3 -7.11564e-10 0)
(3 -1.89623e-09 0)
(3 -4.61932e-09 0)
(2.99999 -1.0797e-08 0)
(2.99998 -2.47565e-08 0)
(2.99996 -5.62635e-08 0)
(2.99991 -1.27339e-07 0)
(2.99979 -2.87592e-07 0)
(2.99955 -6.48695e-07 0)
(2.99902 -1.46191e-06 0)
(2.99788 -3.2927e-06 0)
(2.99537 -7.41566e-06 0)
(2.98989 -1.67174e-05 0)
(2.97779 -3.78018e-05 0)
(2.95064 -8.61821e-05 0)
(2.88743 -0.000199994 0)
(2.72815 -0.000479564 0)
(2.24708 -0.00153502 0)
(0.0226011 -0.0121787 0)
(-1.53492 0.139259 0)
(-0.757424 0.270777 0)
(-0.0250783 0.384817 0)
(0.374286 0.477663 0)
(0.459489 0.534363 0)
(0.373611 0.580369 0)
(0.266682 0.613043 0)
(0.160001 0.654596 0)
(0.0774521 0.67052 0)
(3 -7.56765e-13 0)
(3 -5.11526e-12 0)
(3 -2.12022e-11 0)
(3 -7.91871e-11 0)
(3 -2.76945e-10 0)
(2.99999 -9.03742e-10 0)
(2.99998 -2.76217e-09 0)
(2.99996 -7.98357e-09 0)
(2.99991 -2.20526e-08 0)
(2.99979 -5.87587e-08 0)
(2.99955 -1.52166e-07 0)
(2.99902 -3.85294e-07 0)
(2.99788 -9.5846e-07 0)
(2.99537 -2.35176e-06 0)
(2.98989 -5.71398e-06 0)
(2.97778 -1.38046e-05 0)
(2.95062 -3.34252e-05 0)
(2.88737 -8.19954e-05 0)
(2.72796 -0.000205893 0)
(2.24527 -0.00082083 0)
(0.0486858 -0.00913199 0)
(-1.49016 0.151327 0)
(-0.722393 0.28877 0)
(0.00135587 0.405623 0)
(0.389466 0.498415 0)
(0.466914 0.557597 0)
(0.380369 0.607425 0)
(0.275606 0.648549 0)
(0.16988 0.695116 0)
(0.0814752 0.71876 0)
(3 4.01585e-11 0)
(3 2.44996e-10 0)
(3 7.94884e-10 0)
(3 2.06929e-09 0)
(3 4.85937e-09 0)
(2.99999 1.0804e-08 0)
(2.99998 2.3281e-08 0)
(2.99996 4.9221e-08 0)
(2.99991 1.02781e-07 0)
(2.99979 2.12745e-07 0)
(2.99955 4.37352e-07 0)
(2.99902 8.93808e-07 0)
(2.99788 1.81664e-06 0)
(2.99537 3.67245e-06 0)
(2.98989 7.38374e-06 0)
(2.97778 1.47687e-05 0)
(2.95062 2.936e-05 0)
(2.88736 5.80534e-05 0)
(2.72788 0.000116164 0)
(2.24397 8.01614e-06 0)
(0.077022 -0.0055151 0)
(-1.44293 0.16427 0)
(-0.686244 0.30751 0)
(0.0280148 0.426291 0)
(0.404709 0.518217 0)
(0.475063 0.580452 0)
(0.389075 0.634596 0)
(0.286765 0.685906 0)
(0.181789 0.737949 0)
(0.0870345 0.77147 0)
(3 8.77772e-11 0)
(3 5.36103e-10 0)
(3 1.74488e-09 0)
(3 4.57098e-09 0)
(3 1.08425e-08 0)
(2.99999 2.44488e-08 0)
(2.99998 5.36496e-08 0)
(2.99996 1.1596e-07 0)
(2.99991 2.48476e-07 0)
(2.99979 5.29668e-07 0)
(2.99955 1.12536e-06 0)
(2.99902 2.38565e-06 0)
(2.99788 5.04947e-06 0)
(2.99537 1.06774e-05 0)
(2.98989 2.25744e-05 0)
(2.97779 4.77972e-05 0)
(2.95063 0.000101643 0)
(2.8874 0.000218543 0)
(2.72793 0.000483096 0)
(2.24327 0.000941474 0)
(0.107791 -0.00131734 0)
(-1.39321 0.178232 0)
(-0.648582 0.327028 0)
(0.0548905 0.446516 0)
(0.420012 0.536699 0)
(0.484172 0.602701 0)
(0.400194 0.661682 0)
(0.300581 0.724996 0)
(0.196356 0.784243 0)
(0.0945745 0.830181 0)
(3 1.42395e-10 0)
(3 8.70048e-10 0)
(3 2.83509e-09 0)
(3 7.44393e-09 0)
(3 1.77208e-08 0)
(2.99999 4.01572e-08 0)
(2.99998 8.86709e-08 0)
(2.99996 1.93072e-07 0)
(2.99991 4.17158e-07 0)
(2.99979 8.97346e-07 0)
(2.99955 1.92513e-06 0)
(2.99903 4.12299e-06 0)
(2.99788 8.82014e-06 0)
(2.99538 1.88577e-05 0)
(2.9899 4.03292e-05 0)
(2.97781 8.64203e-05 0)
(2.95067 0.000186197 0)
(2.88749 0.000406413 0)
(2.7281 0.000913511 0)
(2.24321 0.00203857 0)
(0.140871 0.00362831 0)
(-1.34148 0.193454 0)
(-0.61003 0.34728 0)
(0.0819154 0.465856 0)
(0.435617 0.553456 0)
(0.494591 0.624055 0)
(0.4142 0.68933 0)
(0.317762 0.764794 0)
(0.214511 0.83574 0)
(0.104737 0.89694 0)
(3 2.03809e-10 0)
(3 1.24565e-09 0)
(3 4.06212e-09 0)
(3 1.06813e-08 0)
(3 2.54859e-08 0)
(2.99999 5.79357e-08 0)
(2.99998 1.28433e-07 0)
(2.99996 2.80954e-07 0)
(2.99991 6.10228e-07 0)
(2.99979 1.32021e-06 0)
(2.99955 2.84983e-06 0)
(2.99903 6.14342e-06 0)
(2.99788 1.32333e-05 0)
(2.99538 2.84993e-05 0)
(2.98991 6.142e-05 0)
(2.97784 0.000132709 0)
(2.95074 0.000288594 0)
(2.88764 0.000636941 0)
(2.72844 0.00145216 0)
(2.24392 0.00345178 0)
(0.175975 0.00959233 0)
(-1.28798 0.210148 0)
(-0.570312 0.368092 0)
(0.108793 0.483614 0)
(0.451497 0.568056 0)
(0.506942 0.643608 0)
(0.431326 0.717937 0)
(0.33949 0.805459 0)
(0.237669 0.894031 0)
(0.118017 0.974608 0)
(3 2.70735e-10 0)
(3 1.65509e-09 0)
(3 5.4007e-09 0)
(3 1.42178e-08 0)
(3 3.39861e-08 0)
(2.99999 7.74517e-08 0)
(2.99998 1.72235e-07 0)
(2.99996 3.78168e-07 0)
(2.99991 8.24823e-07 0)
(2.99979 1.79273e-06 0)
(2.99955 3.88918e-06 0)
(2.99903 8.42888e-06 0)
(2.99789 1.82599e-05 0)
(2.99539 3.95639e-05 0)
(2.98993 8.58196e-05 0)
(2.97788 0.000186731 0)
(2.95084 0.000409261 0)
(2.88787 0.000911632 0)
(2.72901 0.00210299 0)
(2.24567 0.00518974 0)
(0.21478 0.0167555 0)
(-1.23247 0.22911 0)
(-0.529002 0.388894 0)
(0.135891 0.498897 0)
(0.467889 0.580232 0)
(0.521933 0.661245 0)
(0.452189 0.747823 0)
(0.366566 0.849282 0)
(0.2672 0.959315 0)
(0.135479 1.06735 0)
(3 3.40377e-10 0)
(3 2.08108e-09 0)
(3 6.79319e-09 0)
(3 1.78974e-08 0)
(3 4.28366e-08 0)
(2.99999 9.78005e-08 0)
(2.99998 2.18001e-07 0)
(2.99996 4.8002e-07 0)
(2.99991 1.05041e-06 0)
(2.9998 2.29143e-06 0)
(2.99955 4.99114e-06 0)
(2.99903 1.08647e-05 0)
(2.99789 2.36493e-05 0)
(2.9954 5.15073e-05 0)
(2.98996 0.000112362 0)
(2.97795 0.000246023 0)
(2.95098 0.000543093 0)
(2.8882 0.00122024 0)
(2.72984 0.00284702 0)
(2.24862 0.00721156 0)
(0.257501 0.0247988 0)
(-1.17458 0.251412 0)
(-0.485335 0.408019 0)
(0.163074 0.510458 0)
(0.485002 0.589911 0)
(0.540297 0.678435 0)
(0.477673 0.780364 0)
(0.399586 0.898013 0)
(0.305577 1.03218 0)
(0.159148 1.18409 0)
(3 4.10667e-10 0)
(3 2.51134e-09 0)
(3 8.2015e-09 0)
(3 2.16254e-08 0)
(3 5.18215e-08 0)
(2.99999 1.18502e-07 0)
(2.99998 2.64662e-07 0)
(2.99996 5.84099e-07 0)
(2.99991 1.28148e-06 0)
(2.9998 2.80357e-06 0)
(2.99956 6.12604e-06 0)
(2.99903 1.33815e-05 0)
(2.9979 2.92385e-05 0)
(2.99542 6.39478e-05 0)
(2.99 0.000140158 0)
(2.97803 0.000308562 0)
(2.95117 0.000685743 0)
(2.88864 0.0015551 0)
(2.731 0.00368342 0)
(2.25295 0.00961023 0)
(0.306247 0.033805 0)
(-1.11482 0.279205 0)
(-0.43496 0.423959 0)
(0.191406 0.517328 0)
(0.503946 0.596086 0)
(0.563115 0.69427 0)
(0.508732 0.812448 0)
(0.439707 0.945833 0)
(0.357618 1.10546 0)
(0.193154 1.32122 0)
(3 5.37498e-10 0)
(3 3.28672e-09 0)
(3 1.07312e-08 0)
(3 2.82807e-08 0)
(3 6.77093e-08 0)
(2.99999 1.54635e-07 0)
(2.99998 3.44796e-07 0)
(2.99996 7.59464e-07 0)
(2.99991 1.66255e-06 0)
(2.9998 3.62847e-06 0)
(2.99956 7.90807e-06 0)
(2.99905 1.7227e-05 0)
(2.99792 3.75333e-05 0)
(2.99547 8.18439e-05 0)
(2.99011 0.000178819 0)
(2.97828 0.000392377 0)
(2.95175 0.000868955 0)
(2.89005 0.00196315 0)
(2.7349 0.00463109 0)
(2.26802 0.0120167 0)
(0.458169 0.0410896 0)
(-0.895319 0.313425 0)
(-0.400267 0.445827 0)
(0.152571 0.539127 0)
(0.493552 0.622191 0)
(0.627058 0.732315 0)
(0.640256 0.874236 0)
(0.638552 1.03423 0)
(0.686201 1.21869 0)
(0.602048 1.48395 0)
(3 7.4504e-10 0)
(3 4.55473e-09 0)
(3 1.48619e-08 0)
(3 3.91201e-08 0)
(3 9.34908e-08 0)
(2.99999 2.12993e-07 0)
(2.99998 4.73485e-07 0)
(2.99996 1.03926e-06 0)
(2.99991 2.26614e-06 0)
(2.9998 4.92474e-06 0)
(2.99957 1.06844e-05 0)
(2.99907 2.31631e-05 0)
(2.99797 5.02108e-05 0)
(2.99558 0.000108902 0)
(2.99034 0.000236579 0)
(2.9788 0.000515875 0)
(2.95291 0.00113427 0)
(2.89281 0.0025394 0)
(2.74213 0.0059097 0)
(2.29316 0.0150586 0)
(0.650065 0.050597 0)
(-0.623063 0.322274 0)
(-0.246052 0.491182 0)
(0.224723 0.595462 0)
(0.528373 0.679718 0)
(0.682688 0.776903 0)
(0.748551 0.90236 0)
(0.800071 1.04732 0)
(0.924456 1.19609 0)
(0.979341 1.34524 0)
(3 1.09392e-09 0)
(3 6.68756e-09 0)
(3 2.18189e-08 0)
(3 5.74153e-08 0)
(3 1.37144e-07 0)
(2.99999 3.12225e-07 0)
(2.99998 6.93474e-07 0)
(2.99996 1.5206e-06 0)
(2.99991 3.31205e-06 0)
(2.99981 7.18922e-06 0)
(2.99959 1.5578e-05 0)
(2.9991 3.37286e-05 0)
(2.99804 7.3016e-05 0)
(2.99572 0.000158143 0)
(2.99065 0.00034304 0)
(2.97948 0.000746783 0)
(2.95444 0.0016387 0)
(2.89639 0.00365866 0)
(2.75147 0.00847686 0)
(2.3268 0.0214458 0)
(0.859271 0.069563 0)
(-0.330173 0.351515 0)
(-0.0745375 0.542276 0)
(0.315852 0.64364 0)
(0.585079 0.72542 0)
(0.741375 0.811019 0)
(0.835364 0.915643 0)
(0.916491 1.0333 0)
(1.05924 1.14665 0)
(1.1746 1.21677 0)
(3 1.73477e-09 0)
(3 1.06074e-08 0)
(3 3.46199e-08 0)
(3 9.1142e-08 0)
(3 2.17829e-07 0)
(2.99999 4.96263e-07 0)
(2.99998 1.10314e-06 0)
(2.99996 2.42107e-06 0)
(2.99992 5.2786e-06 0)
(2.99982 1.14698e-05 0)
(2.99961 2.48801e-05 0)
(2.99914 5.39281e-05 0)
(2.99814 0.000116872 0)
(2.99594 0.000253403 0)
(2.99113 0.000550228 0)
(2.98052 0.00119882 0)
(2.95679 0.00263181 0)
(2.90189 0.00587373 0)
(2.76562 0.0135819 0)
(2.3733 0.0339996 0)
(1.08814 0.102852 0)
(-0.0152122 0.404769 0)
(0.103325 0.609899 0)
(0.396753 0.693422 0)
(0.640863 0.758166 0)
(0.79433 0.825995 0)
(0.901139 0.906964 0)
(0.996139 0.995922 0)
(1.13262 1.08162 0)
(1.24997 1.12406 0)
(3 2.62296e-09 0)
(3 1.60393e-08 0)
(3 5.23508e-08 0)
(3 1.37821e-07 0)
(3 3.29387e-07 0)
(2.99999 7.50431e-07 0)
(2.99998 1.66824e-06 0)
(2.99997 3.66173e-06 0)
(2.99992 7.98465e-06 0)
(2.99984 1.73519e-05 0)
(2.99964 3.76427e-05 0)
(2.99922 8.1592e-05 0)
(2.9983 0.000176808 0)
(2.9963 0.000383255 0)
(2.99191 0.000831763 0)
(2.98225 0.00181057 0)
(2.96066 0.00396816 0)
(2.91094 0.00882838 0)
(2.78869 0.0202901 0)
(2.44448 0.0500607 0)
(1.36129 0.142878 0)
(0.34007 0.4584 0)
(0.285816 0.656685 0)
(0.461965 0.732085 0)
(0.683167 0.765647 0)
(0.835234 0.811303 0)
(0.94724 0.872981 0)
(1.04737 0.941381 0)
(1.17561 1.00804 0)
(1.28946 1.04716 0)
(3 4.02044e-09 0)
(3 2.45982e-08 0)
(3 8.03805e-08 0)
(3 2.12024e-07 0)
(3 5.08146e-07 0)
(2.99999 1.16188e-06 0)
(2.99999 2.59415e-06 0)
(2.99997 5.72224e-06 0)
(2.99994 1.25452e-05 0)
(2.99986 2.74192e-05 0)
(2.99969 5.98387e-05 0)
(2.99933 0.000130502 0)
(2.99854 0.000284567 0)
(2.99681 0.000620721 0)
(2.99303 0.00135546 0)
(2.9847 0.0029677 0)
(2.96612 0.00653597 0)
(2.92356 0.0145813 0)
(2.82018 0.0334489 0)
(2.53501 0.0814347 0)
(1.62974 0.222928 0)
(0.610304 0.631034 0)
(0.429004 0.700136 0)
(0.508613 0.745212 0)
(0.687015 0.754716 0)
(0.857959 0.777768 0)
(0.983453 0.820193 0)
(1.08775 0.873306 0)
(1.20913 0.928143 0)
(1.31691 0.967407 0)
(3 4.18091e-09 0)
(3 2.55627e-08 0)
(3 8.34869e-08 0)
(3 2.20278e-07 0)
(3 5.28513e-07 0)
(3 1.21067e-06 0)
(2.99999 2.70963e-06 0)
(2.99998 5.99416e-06 0)
(2.99995 1.31837e-05 0)
(2.9999 2.89156e-05 0)
(2.99978 6.33398e-05 0)
(2.99952 0.000138679 0)
(2.99896 0.000303629 0)
(2.99773 0.00066505 0)
(2.99504 0.00145819 0)
(2.98915 0.00320442 0)
(2.97613 0.00707568 0)
(2.94677 0.0157862 0)
(2.87779 0.0360153 0)
(2.69911 0.0861903 0)
(2.15664 0.228659 0)
(1.09222 0.650967 0)
(0.703743 0.697275 0)
(0.687159 0.736385 0)
(0.782098 0.747356 0)
(0.919714 0.751852 0)
(1.03511 0.776115 0)
(1.13473 0.813005 0)
(1.247 0.855015 0)
(1.34497 0.889926 0)
(3 2.79926e-09 0)
(3 1.70909e-08 0)
(3 5.56938e-08 0)
(3 1.46563e-07 0)
(3 3.50571e-07 0)
(3 8.00198e-07 0)
(2.99999 1.78369e-06 0)
(2.99998 3.92823e-06 0)
(2.99997 8.59845e-06 0)
(2.99993 1.87641e-05 0)
(2.99984 4.0889e-05 0)
(2.99965 8.90469e-05 0)
(2.99924 0.000193899 0)
(2.99835 0.000422323 0)
(2.99642 0.000920544 0)
(2.9922 0.00200992 0)
(2.98293 0.00440449 0)
(2.96233 0.00972827 0)
(2.91517 0.021861 0)
(2.80003 0.0510483 0)
(2.47891 0.132237 0)
(1.64019 0.348561 0)
(0.864946 0.618946 0)
(0.799038 0.70409 0)
(0.844847 0.733654 0)
(0.9615 0.736645 0)
(1.08445 0.75045 0)
(1.18316 0.775284 0)
(1.28777 0.805819 0)
(1.37647 0.831991 0)
(3 2.39334e-09 0)
(3 1.46277e-08 0)
(3 4.77289e-08 0)
(3 1.2572e-07 0)
(3 3.00876e-07 0)
(3 6.8689e-07 0)
(2.99999 1.53098e-06 0)
(2.99999 3.3706e-06 0)
(2.99997 7.3742e-06 0)
(2.99994 1.60819e-05 0)
(2.99987 3.5016e-05 0)
(2.99972 7.61833e-05 0)
(2.9994 0.000165697 0)
(2.9987 0.000360392 0)
(2.99716 0.00078415 0)
(2.9938 0.00170792 0)
(2.98642 0.00372868 0)
(2.97004 0.00818276 0)
(2.93279 0.018163 0)
(2.84354 0.04134 0)
(2.60426 0.0997492 0)
(1.89693 0.266174 0)
(1.02939 0.688054 0)
(0.874699 0.74464 0)
(0.893117 0.776898 0)
(0.984956 0.77777 0)
(1.11345 0.767944 0)
(1.21933 0.771554 0)
(1.32125 0.786139 0)
(1.40377 0.801779 0)
(3 2.10651e-09 0)
(3 1.288e-08 0)
(3 4.20539e-08 0)
(3 1.10857e-07 0)
(3 2.65552e-07 0)
(3 6.06928e-07 0)
(3 1.35455e-06 0)
(2.99999 2.9867e-06 0)
(2.99998 6.54532e-06 0)
(2.99996 1.43003e-05 0)
(2.99992 3.11971e-05 0)
(2.99982 6.80124e-05 0)
(2.99962 0.000148236 0)
(2.99918 0.000323096 0)
(2.99821 0.000704461 0)
(2.99612 0.00153724 0)
(2.99157 0.00336063 0)
(2.98156 0.00737602 0)
(2.95929 0.0163291 0)
(2.90797 0.0368365 0)
(2.7793 0.0866617 0)
(2.39704 0.224709 0)
(1.53129 0.613886 0)
(1.12234 0.743537 0)
(1.05264 0.803031 0)
(1.05857 0.823065 0)
(1.13872 0.812539 0)
(1.24781 0.794829 0)
(1.35233 0.79207 0)
(1.43276 0.796167 0)
(3 1.5013e-09 0)
(3 9.17739e-09 0)
(3 2.99469e-08 0)
(3 7.88545e-08 0)
(3 1.88581e-07 0)
(3 4.30085e-07 0)
(3 9.57396e-07 0)
(2.99999 2.10483e-06 0)
(2.99999 4.59794e-06 0)
(2.99997 1.00113e-05 0)
(2.99994 2.17617e-05 0)
(2.99988 4.72638e-05 0)
(2.99974 0.000102609 0)
(2.99944 0.000222729 0)
(2.99878 0.000483505 0)
(2.99734 0.00105003 0)
(2.99421 0.00228274 0)
(2.98736 0.00497459 0)
(2.97219 0.0108992 0)
(2.93784 0.0241651 0)
(2.856 0.0550273 0)
(2.63614 0.134839 0)
(2.02538 0.353841 0)
(1.30165 0.772689 0)
(1.16083 0.856546 0)
(1.13715 0.87779 0)
(1.17102 0.868301 0)
(1.25809 0.84674 0)
(1.37084 0.827297 0)
(1.45386 0.817121 0)
(3 1.12954e-09 0)
(3 6.90674e-09 0)
(3 2.25501e-08 0)
(3 5.94298e-08 0)
(3 1.42296e-07 0)
(3 3.25001e-07 0)
(3 7.24712e-07 0)
(3 1.59633e-06 0)
(2.99999 3.49444e-06 0)
(2.99999 7.62569e-06 0)
(2.99997 1.66157e-05 0)
(2.99993 3.61784e-05 0)
(2.99985 7.87508e-05 0)
(2.99968 0.000171411 0)
(2.99932 0.000373149 0)
(2.99852 0.000812614 0)
(2.9968 0.00177103 0)
(2.99305 0.00386616 0)
(2.98484 0.00846935 0)
(2.96667 0.0186936 0)
(2.92515 0.0419525 0)
(2.82232 0.0980213 0)
(2.51192 0.253742 0)
(1.84552 0.645042 0)
(1.40732 0.869836 0)
(1.27855 0.905392 0)
(1.26356 0.918733 0)
(1.30685 0.906572 0)
(1.40037 0.879722 0)
(1.48089 0.857512 0)
(3 6.38927e-10 0)
(3 3.90487e-09 0)
(3 1.27358e-08 0)
(3 3.35076e-08 0)
(3 8.00367e-08 0)
(3 1.8224e-07 0)
(3 4.04875e-07 0)
(3 8.88077e-07 0)
(3 1.93505e-06 0)
(2.99999 4.20174e-06 0)
(2.99998 9.10706e-06 0)
(2.99996 1.972e-05 0)
(2.99992 4.26783e-05 0)
(2.99983 9.23381e-05 0)
(2.99963 0.000199755 0)
(2.99921 0.000432143 0)
(2.99828 0.000935162 0)
(2.99629 0.00202542 0)
(2.99197 0.00439559 0)
(2.98253 0.0095831 0)
(2.9616 0.021107 0)
(2.91349 0.0475903 0)
(2.78873 0.115759 0)
(2.45516 0.298757 0)
(1.73964 0.704851 0)
(1.4655 0.827127 0)
(1.40539 0.892877 0)
(1.39244 0.922025 0)
(1.44392 0.916381 0)
(1.51442 0.889473 0)
(3 3.60806e-10 0)
(3 2.20443e-09 0)
(3 7.18621e-09 0)
(3 1.8895e-08 0)
(3 4.50972e-08 0)
(3 1.02582e-07 0)
(3 2.27627e-07 0)
(3 4.98585e-07 0)
(3 1.08465e-06 0)
(3 2.3511e-06 0)
(2.99999 5.08636e-06 0)
(2.99998 1.09919e-05 0)
(2.99995 2.3739e-05 0)
(2.99989 5.12478e-05 0)
(2.99977 0.000110604 0)
(2.9995 0.000238668 0)
(2.99892 0.000515005 0)