/*--------------------------------*- C++ -*----------------------------------*\
  =========                 |
  \\      /  F ield         | OpenFOAM: The Open Source CFD Toolbox
   \\    /   O peration     | Website:  https://openfoam.org
    \\  /    A nd           | Version:  6.0
     \\/     M anipulation  |
\*---------------------------------------------------------------------------*/
FoamFile
{
    version     2.0;
    format      ascii;
    class       volScalarField;
    location    "1.000346";
    object      p;
}
// * * * * * * * * * * * * * * * * * * * * * * * * * * * * * * * * * * * * * //

dimensions      [1 -1 -2 0 0 0 0];

internalField   nonuniform List<scalar> 
4800
(
1
1
1
1
1
1
1
1
1
1
1
1
1
1
1
1
1
1
1
1
1
1
3.05994
9.9302
10.6923
10.8093
11.0392
11.2425
11.394
11.5198
11.5713
11.6269
11.8222
12.3225
12.7377
12.8285
12.6241
12.8406
13.2407
13.6829
1
1
1
1
1
1
1
1
1
1
1
1
1
1
1
1
1
1
1
1
1
1
3.03829
9.89444
10.7508
10.8412
11.006
11.1587
11.2913
11.4652
11.6569
11.755
11.7392
11.6245
11.7652
12.1538
12.3703
12.1781
12.0616
11.7981
1
1
1
1
1
1
1
1
1
1
1
1
1
1
1
1
1
1
1
1
1
1
3.00606
9.84095
10.7911
10.8983
11.0063
11.0636
11.0775
11.2027
11.5698
11.8034
11.712
11.3189
11.0915
11.4642
11.6944
11.304
10.7581
10.662
1
1
1
1
1
1
1
1
1
1
1
1
1
1
1
1
1
1
1
1
1
1
2.95779
9.77519
10.7835
10.9437
11.0511
11.0833
11.0953
11.1005
11.2249
11.6357
11.8044
11.5704
11.1328
10.8851
11.3386
11.7382
11.8061
11.7858
1
1
1
1
1
1
1
1
1
1
1
1
1
1
1
1
1
1
1
1
1
1
2.90348
9.71963
10.7456
10.958
11.1209
11.1778
11.2148
11.2222
11.1298
11.3171
11.8705
12.1383
11.7631
11.178
11.334
12.0986
12.8836
13.3437
1
1
1
1
1
1
1
1
1
1
1
1
1
1
1
1
1
1
1
1
1
1
2.85884
9.70673
10.7545
10.9073
11.0896
11.2146
11.3163
11.381
11.3744
11.353
11.686
12.3411
12.7143
12.3425
12.0107
12.7788
13.6598
13.9409
1
1
1
1
1
1
1
1
1
1
1
1
1
1
1
1
1
1
1
1
1
1
2.81317
9.70407
10.801
10.8818
11.0112
11.1408
11.297
11.575
11.7882
11.7346
11.6165
12.1777
12.9742
13.1906
12.9324
12.3207
12.19
12.2521
1
1
1
1
1
1
1
1
1
1
1
1
1
1
1
1
1
1
1
1
1
1
2.74547
9.65336
10.8083
10.8819
10.9983
11.0663
11.205
11.5804
11.893
11.915
11.6296
11.6138
12.3879
13.1707
12.9122
11.7709
10.92
10.7449
1
1
1
1
1
1
1
1
1
1
1
1
1
1
1
1
1
1
1
1
1
1
2.65249
9.54448
10.7935
10.8995
11.0125
11.1524
11.2343
11.2679
11.5434
11.7856
11.6409
11.3125
11.3643
12.0109
12.1124
11.5315
10.8589
10.6871
1
1
1
1
1
1
1
1
1
1
1
1
1
1
1
1
1
1
1
1
1
1
2.55833
9.42855
10.7494
10.9204
11.0989
11.2648
11.243
11.1107
11.0894
11.4429
11.7104
11.3878
10.7951
10.6513
11.3361
12.0138
12.3526
12.5319
1
1
1
1
1
1
1
1
1
1
1
1
1
1
1
1
1
1
1
1
1
1
2.48281
9.35584
10.6835
10.909
11.1564
11.2875
11.3143
11.1464
10.992
11.2467
11.6431
11.5183
10.654
10.109
10.9487
12.522
13.685
14.1976
1
1
1
1
1
1
1
1
1
1
1
1
1
1
1
1
1
1
1
1
1
1
2.41905
9.3032
10.6834
10.886
11.0651
11.1879
11.2186
11.2453
11.2212
11.3374
11.6154
11.4725
10.9211
10.5763
11.203
12.6416
13.4332
13.3915
1
1
1
1
1
1
1
1
1
1
1
1
1
1
1
1
1
1
1
1
1
1
2.36107
9.28762
10.7538
10.8692
10.9753
10.9745
11.0751
11.378
11.65
11.6465
11.5753
11.7119
11.8616
11.7898
11.6897
11.5884
11.5612
11.4673
1
1
1
1
1
1
1
1
1
1
1
1
1
1
1
1
1
1
1
1
1
1
2.28026
9.22898
10.8126
10.8183
10.8614
10.8303
10.9736
11.5417
11.8802
11.7797
11.5144
12.1608
13.0081
13.0985
12.3787
11.013
10.5186
10.8999
1
1
1
1
1
1
1
1
1
1
1
1
1
1
1
1
1
1
1
1
1
1
2.15871
9.0809
10.8175
10.7833
10.735
10.8012
11.1672
11.5671
11.7208
11.5799
11.4945
12.1499
12.9619
13.2712
12.5889
11.1251
10.7388
10.982
1
1
1
1
1
1
1
1
1
1
1
1
1
1
1
1
1
1
1
1
1
1
2.02047
8.87239
10.7228
10.7186
10.7137
11.0018
11.4073
11.4213
11.3804
11.3223
11.4661
11.7422
12.4275
13.1754
12.7666
11.7513
10.6635
10.2269
1
1
1
1
1
1
1
1
1
1
1
1
1
1
1
1
1
1
1
1
1
1
1.88864
8.63009
10.5949
10.63
10.8729
11.261
11.3765
11.299
11.0861
11.2188
11.417
11.3862
11.1623
10.9856
11.8311
12.3658
12.4528
12.489
1
1
1
1
1
1
1
1
1
1
1
1
1
1
1
1
1
1
1
1
1
1
1.76757
8.42409
10.4619
10.7052
11.1698
11.3037
11.2191
10.9301
10.9964
11.434
11.7819
11.5618
10.6553
10.1575
10.8868
12.2409
13.4161
14.21
1
1
1
1
1
1
1
1
1
1
1
1
1
1
1
1
1
1
1
1
1
1
1.64096
8.26331
10.5717
10.8705
11.1549
11.2044
10.9427
10.7278
10.8665
11.6224
12.084
11.8128
10.5663
9.71597
10.1922
11.9839
14.0489
15.3163
1
1
1
1
1
1
1
1
1
1
1
1
1
1
1
1
1
1
1
1
1
1
1.52569
8.09309
10.7432
10.8711
11.02
10.9034
10.7852
10.8744
11.273
11.6622
11.8647
11.7189
11.0694
10.4487
10.5922
11.5237
12.2026
11.7281
1
1
1
1
1
1
1
1
1
1
1
1
1
1
1
1
1
1
1
1
1
1
1.40406
7.82159
10.727
10.8068
10.8507
10.6207
10.5838
11.2771
11.6928
11.541
11.2027
11.2731
12.0512
12.6137
12.2641
11.4311
10.3367
9.74158
1
1
1
1
1
1
1
1
1
1
1
1
1
1
1
1
1
1
1
1
1
1
1.28442
7.52457
10.6731
10.7105
10.7025
10.6106
10.924
11.4358
11.6613
11.4366
10.7632
10.901
12.2704
13.54
13.568
11.8357
9.77887
9.22865
1
1
1
1
1
1
1
1
1
1
1
1
1
1
1
1
1
1
1
1
1
1
1.17383
7.24092
10.5567
10.659
10.7021
10.9855
11.3026
11.3811
11.5086
11.1727
10.6714
10.8039
11.8128
13.1073
13.42
12.4647
10.8046
10.6156
1
1
1
1
1
1
1
1
1
1
1
1
1
1
1
1
1
1
1
1
1
1
1.06991
6.94544
10.4862
10.577
10.7594
11.1526
11.3738
11.3448
11.0231
10.81
10.9836
11.1638
11.2722
11.4638
11.8835
12.5141
12.8887
13.2997
1
1
1
1
1
1
1
1
1
1
1
1
1
1
1
1
1
1
1
1
1
1
1.00786
6.58389
10.4703
10.5351
10.7376
11.0429
11.3136
11.1721
10.6142
10.732
11.3924
11.7512
11.155
10.0323
9.90809
11.5637
13.284
14.5632
1
1
1
1
1
1
1
1
1
1
1
1
1
1
1
1
1
1
1
1
1
1
1.00023
6.20118
10.463
10.4801
10.7006
11.0199
11.1108
10.7889
10.3734
10.559
11.5982
12.094
11.2878
9.87075
9.59896
10.3785
12.6322
14.275
1
1
1
1
1
1
1
1
1
1
1
1
1
1
1
1
1
1
1
1
1
1
1
5.8013
10.4591
10.4836
10.7622
10.9833
10.9048
10.5666
10.5177
11.0325
11.5501
11.9679
11.2658
10.1038
9.81538
10.2154
10.6317
10.7103
1
1
1
1
1
1
1
1
1
1
1
1
1
1
1
1
1
1
1
1
1
1
1
5.37188
10.4245
10.6287
10.8749
10.8449
10.5003
10.6755
11.4372
11.7689
11.4033
10.8188
11.0348
11.4443
11.2364
10.7399
10.2315
9.43475
1
1
1
1
1
1
1
1
1
1
1
1
1
1
1
1
1
1
1
1
1
1
1
4.94447
10.3334
10.8097
10.8356
10.5566
10.3296
10.8337
11.8302
11.9641
11.3549
10.3284
10.7169
12.2369
13.1644
12.6895
10.6776
9.7227
1
1
1
1
1
1
1
1
1
1
1
1
1
1
1
1
1
1
1
1
1
1
1
4.54445
10.2047
10.7893
10.7035
10.4255
10.3536
11.0395
11.5937
11.8775
11.2051
10.3978
10.8224
12.0163
12.9741
13.1465
12.5296
12.0267
1
1
1
1
1
1
1
1
1
1
1
1
1
1
1
1
1
1
1
1
1
1
1
4.14938
10.0381
10.5521
10.5354
10.5417
10.9831
11.0484
11.1753
11.0402
10.8773
10.885
11.2097
11.4603
11.9991
12.4488
12.4857
13.5302
1
1
1
1
1
1
1
1
1
1
1
1
1
1
1
1
1
1
1
1
1
1
1
3.74328
9.81982
10.3151
10.3583
10.8321
11.2365
11.0739
10.4774
10.0467
10.578
11.2911
11.3823
10.724
9.31281
9.0474
11.2955
13.0073
1
1
1
1
1
1
1
1
1
1
1
1
1
1
1
1
1
1
1
1
1
1
1
3.35822
9.5526
10.263
10.6248
11.0572
11.1197
10.8436
9.98316
9.98928
10.5805
11.5193
11.5736
10.3061
8.90512
8.44382
8.64436
9.4307
1
1
1
1
1
1
1
1
1
1
1
1
1
1
1
1
1
1
1
1
1
1
1
3.03214
9.24699
10.4921
10.9035
11.0785
10.9557
10.2782
9.77157
9.96849
11.0143
11.6721
11.5379
9.96276
8.72423
8.27907
8.26148
8.4774
1
1
1
1
1
1
1
1
1
1
1
1
1
1
1
1
1
1
1
1
1
1
1
2.70659
9.14972
10.8425
10.9201
10.9507
10.4617
9.95682
9.76066
10.3507
11.3569
11.6397
10.9669
9.77164
8.7747
8.33318
8.28641
8.16702
1
1
1
1
1
1
1
1
1
1
1
1
1
1
1
1
1
1
1
1
1
1
1
2.26256
9.15672
10.9567
10.5666
10.1839
10.1418
10.2401
10.9142
11.2618
11.1
10.4954
10.1093
10.1548
10.5254
9.24203
8.48179
7.82972
1
1
1
1
1
1
1
1
1
1
1
1
1
1
1
1
1
1
1
1
1
1
1
1.80797
8.68221
10.6308
10.0304
9.75338
10.0614
11.0481
11.6227
11.3517
10.8605
9.71557
9.78532
11.2765
12.9424
12.6724
9.15086
7.86363
1
1
1
1
1
1
1
1
1
1
1
1
1
1
1
1
1
1
1
1
1
1
1
1.50935
8.18816
10.277
9.77031
9.8711
10.7622
11.4621
11.4638
11.0375
9.79778
9.68769
9.9855
11.6916
12.6773
13.2955
12.1433
9.02842
1
1
1
1
1
1
1
1
1
1
1
1
1
1
1
1
1
1
1
1
1
1
1
1.30077
7.6004
10.0106
10.12
10.7523
11.0945
11.3565
11.2035
9.94991
9.47447
9.88728
11.4085
11.5782
12.1263
12.6993
13.0077
13.5784
1
1
1
1
1
1
1
1
1
1
1
1
1
1
1
1
1
1
1
1
1
1
1
1.15526
7.2777
10.3665
10.6953
10.8817
10.9319
10.6781
9.75815
9.50911
9.56762
10.9008
11.6378
11.2604
10.4766
10.7357
12.123
12.9152
1
1
1
1
1
1
1
1
1
1
1
1
1
1
1
1
1
1
1
1
1
1
1
1.01251
6.1112
10.1658
10.2486
10.3154
10.2462
10.0285
10.0598
10.3692
10.6107
10.5603
10.2392
10.0025
9.38072
8.52691
7.52557
5.89924
1
1
1
1
1
1
1
1
1
1
1
1
1
1
1
1
1
1
1
1
1
1
1
1.00007
3.76128
9.36888
9.97162
10.0583
10.1949
10.3647
10.3856
10.2657
10.1165
9.81117
9.54371
9.36043
9.12849
8.7184
7.69556
5.77873
1
1
1
1
1
1
1
1
1
1
1
1
1
1
1
1
1
1
1
1
1
1
1
1
1.74563
8.11754
10.0334
10.0002
10.0505
10.1194
10.0912
9.92216
9.69366
9.49992
9.37123
9.13189
8.76151
8.21221
7.47721
6.00044
1
1
1
1
1
1
1
1
1
1
1
1
1
1
1
1
1
1
1
1
1
1
1
1
1.03594
5.83452
9.72112
9.76206
9.74842
9.78204
9.8055
9.75729
9.57951
9.28996
8.97162
8.61133
8.17192
7.60149
6.83956
5.82391
1
1
1
1
1
1
1
1
1
1
1
1
1
1
1
1
1
1
1
1
1
1
1
1
1.00005
2.82944
8.79717
9.65174
9.55224
9.56951
9.58921
9.5402
9.35723
9.0417
8.70794
8.30486
7.82595
7.24336
6.53571
5.71661
1
1
1
1
1
1
1
1
1
1
1
1
1
1
1
1
1
1
1
1
1
1
1
1
1
1.15678
6.63834
9.56599
9.41578
9.39897
9.32273
9.20872
9.04566
8.83189
8.578
8.22092
7.73336
7.13394
6.45629
5.74878
1
1
1
1
1
1
1
1
1
1
1
1
1
1
1
1
1
1
1
1
1
1
1
1
1
1.00125
3.23047
8.73618
9.28402
9.17572
9.06136
8.92142
8.78475
8.6271
8.39868
8.08188
7.63601
7.0763
6.47837
5.86805
1
1
1
1
1
1
1
1
1
1
1
1
1
1
1
1
1
1
1
1
1
1
1
1
1
1
1.20858
6.45086
9.26356
9.15124
8.90484
8.69364
8.55517
8.39183
8.17072
7.84682
7.46717
7.01643
6.52528
5.99287
1
1
1
1
1
1
1
1
1
1
1
1
1
1
1
1
1
1
1
1
1
1
1
1
1
1
1.00221
2.73907
8.26755
8.97859
8.75534
8.57663
8.40372
8.21117
7.94695
7.58817
7.25192
6.91195
6.52131
6.05073
1
1
1
1
1
1
1
1
1
1
1
1
1
1
1
1
1
1
1
1
1
1
1
1
1
1
1
1.12585
5.41264
8.75793
8.71057
8.50271
8.27819
8.039
7.73928
7.3871
7.08422
6.79926
6.46292
6.04273
1
1
1
1
1
1
1
1
1
1
1
1
1
1
1
1
1
1
1
1
1
1
1
1
1
1
1
1.00088
1.78826
7.15139
8.70918
8.4799
8.2589
7.97035
7.63955
7.31904
7.03689
6.75092
6.40248
6.00514
1
1
1
1
1
1
1
1
1
1
1
1
1
1
1
1
1
1
1
1
1
1
1
1
1
1
1
1
1.02804
3.33791
7.91405
8.36861
8.13874
7.90203
7.59487
7.30389
7.02383
6.72245
6.36692
6.0032
1
1
1
1
1
1
1
1
1
1
1
1
1
1
1
1
1
1
1
1
1
1
1
1
1
1
1
1
1.00011
1.21972
5.04795
8.05088
8.09268
7.8832
7.63478
7.36509
7.07787
6.75127
6.39219
6.05754
1
1
1
1
1
1
1
1
1
1
1
1
1
1
1
1
1
1
1
1
1
1
1
1
1
1
1
1
1
1.00265
1.71094
6.04403
8.01665
7.84531
7.6372
7.39217
7.12111
6.81028
6.47965
6.17034
1
1
1
1
1
1
1
1
1
1
1
1
1
1
1
1
1
1
1
1
1
1
1
1
1
1
1
1
1
1
1.02262
2.32776
6.68168
7.78146
7.55778
7.33607
7.09494
6.82894
6.55643
6.27306
1
1
1
1
1
1
1
1
1
1
1
1
1
1
1
1
1
1
1
1
1
1
1
1
1
1
1
1
1
1
1.0001
1.07675
3.02487
6.9712
7.53473
7.27884
7.0385
6.8044
6.56345
6.30667
1
1
1
1
1
1
1
1
1
1
1
1
1
1
1
1
1
1
1
1
1
1
1
1
1
1
1
1
1
1
1
1.00062
1.1775
3.6746
6.9903
7.31475
7.02247
6.7784
6.5486
6.30639
1
1
1
1
1
1
1
1
1
1
1
1
1
1
1
1
1
1
1
1
1
1
1
1
1
1
1
1
1
1
1
1
1.00227
1.32195
4.12096
6.88072
7.09648
6.81612
6.54215
6.31221
1
1
1
1
1
1
1
1
1
1
1
1
1
1
1
1
1
1
1
1
1
1
1
1
1
1
1
1
1
1
1
1
1
1.00617
1.4693
4.35928
6.71491
6.90416
6.62027
6.35322
1
1
1
1
1
1
1
1
1
1
1
1
1
1
1
1
1
1
1
1
1
1
1
1
1
1
1
1
1
1
1
1
1
1.00002
1.01202
1.58036
4.40549
6.52521
6.7162
6.48362
1
1
1
1
1
1
1
1
1
1
1
1
1
1
1
1
1
1
1
1
1
1
1
1
1
1
1
1
1
1
1
1
1
1
1.00005
1.0177
1.62455
4.29562
6.29704
6.52679
1
1
1
1
1
1
1
1
1
1
1
1
1
1
1
1
1
1
1
1
1
1
1
1
1
1
1
1
1
1
1
1
1
1
1
1.00008
1.02031
1.60138
4.06085
6.13805
1
1
1
1
1
1
1
1
1
1
1
1
1
1
1
1
1
1
1
1
1
1
1
1
1
1
1
1
1
1
1
1
1
1
1
1
1.0001
1.01993
1.52093
4.05503
1
1
1
1
1
1
1
1
1
1
1
1
1
1
1
1
1
1
1
1
1
1
1
1
1
1
1
1
1
1
1
1
1
1
1
1
1
1.00011
1.01474
1.57753
1
1
1
1
1
1
1
1
1
1
1
1
1
1
1
1
1
1
1
1
1
1
1
1
1
1
1
1
1
1
1
1
1
1
1
1
1
1
1.00007
1.01815
1
1
1
1
1
1
1
1
1
1
1
1
1
1
1
1
1
1
1
1
1
1
1
1
1
1
1
1
1
1
1
1
1
1
1
1
1
1
1
1.00003
1
1
1
1
1
1
1
1
1
1
1
1
1
1
1
1
1
1
1
1
1
1
1
1
1
1
1
1
1
1
1
1
1
1
1
1
1
1
1
1
1
1
1
1
1
1
1
1
1
1
1
1
1
1
1
1
1
1
1
1
1
1
1
1
1
1
1
1
1
1
1
1
1
1
1
1
1
1
1
1
1
1
1
1
1
1
1
1
1
1
1
1
1
1
1
1
1
1
1
1
1
1
1
1
1
1
1
1
1
1
1
1
1
1
1
1
1
1
1
1
1
1
1
1
1
1
1
1
1
1
1
1
1
1
1
1
1
1
1
1
1
1
1
1
1
1
1
1
1
1
1
1
1
1
1
1
1
1
1
1
1
1
1
1
1
1
1
1
1
1
1
1
1
1
1
1
1
1
1
1
1
1
1
1
1
1
1
1
1
1
1
1
1
1
1
1
1
1
1
1
1
1
1
1
1
1
1
1
1
1
1
1
1
1
1
1
1
1
1
1
1
1
1
1
1
1
1
1
1
1
1
1
1
1
1
1
1
1
1
1
1
1
1
1
1
1
1
1
1
1
1
1
1
1
1
1
1
1
1
1
1
1
1
1
1
1
1
1
1
1
1
1
1
1
1
1
1
1
1
1
1
1
1
1
1
1
1
1
1
1
1
1
1
1
1
1
1
1
1
1
1
1
1
1
1
1
1
1
1
1
1
1
1
1
1
1
1
1
1
1
1
1
1
1
1
1
1
1
1
1
1
1
1
1
1
1
1
1
1
1
1
1
1
1
1
1
1
1
1
1
1
1
1
1
1
1
1
1
1
1
1
1
1
1
1
1
1
1
1
1
1
1
1
1
1
1
1
1
1
1
1
1
1
1
1
1
1
1
1
1
1
1
1
1
1
1
1
1
1
1
1
1
1
1
1
1
1
1
1
1
1
1
1
1
1
1
1
1
1
1
1
1
1
1
1
1
1
1
1
1
1
1
1
1
1
1
1
1
1
1
1
1
1
1
1
1
1
1
1
1
1
1
1
1
1
1
1
1
1
1
1
1
1
1
1
1
1
1
1
1
1
1
1
1
1
1
1
1
1
1
1
1
1
1
1
1
1
1
1
1
1
1
1
1
1
1
1
1
1
1
1
1
1
1
1
1
1
1
1
1
1
1
1
1
1
1
1
1
1
1
1
1
1
1
1
1
1
1
1
1
1
1
1
1
1
1
1
1
1
1
1
1
1
1
1
1
1
1
1
1
1
1
1
1
1
1
1
1
1
1
0.650926
0.499484
0.708623
0.933249
1.00997
1.08134
1.10639
1.07947
1.07729
1.10062
1.12828
1.14174
1.12584
1.08655
1.0524
1.02876
0.996834
0.968331
0.94579
0.934725
0.924628
0.900106
0.874111
0.856764
0.847904
0.841329
0.833719
0.828297
0.830033
0.831835
0.830636
0.832413
0.841745
0.853183
0.865741
0.877953
0.891303
0.903223
0.910511
0.924816
2.12176
0.725779
0.731926
0.83137
0.926512
1.01358
1.05554
1.05387
1.06475
1.09095
1.1242
1.13783
1.12208
1.0882
1.04976
1.02654
0.996553
0.970291
0.948584
0.933266
0.92144
0.900469
0.877064
0.861159
0.854441
0.849786
0.845158
0.841758
0.842064
0.842464
0.839968
0.841653
0.85137
0.863533
0.875589
0.884165
0.889215
0.895498
0.902469
0.918028
2.93055
1.01309
0.759537
0.785404
0.862893
0.959371
1.03292
1.03695
1.04386
1.07474
1.11765
1.13097
1.1137
1.08137
1.04548
1.02251
0.994941
0.969226
0.949931
0.935574
0.921223
0.900931
0.878003
0.862073
0.854408
0.849969
0.846268
0.845336
0.847875
0.849849
0.845801
0.844233
0.853087
0.86658
0.879259
0.888411
0.887992
0.886092
0.889542
0.904182
3.44296
1.57805
0.989354
0.805112
0.794288
0.845766
0.939385
1.01616
1.04213
1.08406
1.12106
1.12436
1.10443
1.06683
1.03541
1.01474
0.993733
0.97101
0.951218
0.934743
0.919721
0.899323
0.875886
0.86028
0.852192
0.846769
0.841964
0.839362
0.839592
0.842101
0.839607
0.838081
0.846132
0.859549
0.870699
0.881764
0.891084
0.896257
0.902014
0.917338
3.78524
2.1226
1.24355
0.941227
0.80299
0.813025
0.875153
0.993031
1.08162
1.14474
1.15517
1.14843
1.12462
1.08378
1.04519
1.02032
0.998145
0.974712
0.952911
0.933194
0.916144
0.896397
0.875854
0.861954
0.854718
0.850216
0.847008
0.845003
0.843602
0.844888
0.844046
0.843549
0.851076
0.864459
0.875381
0.883673
0.890197
0.895038
0.902086
0.918776
4.04339
2.51635
1.55917
1.20888
0.924511
0.831154
0.857861
0.953223
1.05807
1.13546
1.15664
1.14997
1.12303
1.07848
1.04532
1.02969
1.01243
0.989064
0.962641
0.937775
0.914298
0.889167
0.867206
0.855569
0.851019
0.847947
0.846152
0.845221
0.843597
0.843105
0.841412
0.840301
0.847451
0.859943
0.870345
0.882471
0.88997
0.895506
0.902903
0.919455
4.32126
2.84246
1.95473
1.41742
1.09408
0.86422
0.875211
0.928486
1.0195
1.09835
1.12607
1.11945
1.09456
1.04957
1.01881
1.00902
1.00071
0.985262
0.964628
0.941702
0.916455
0.891705
0.868095
0.853515
0.846681
0.842604
0.839959
0.83718
0.835438
0.835159
0.834339
0.834085
0.840696
0.849909
0.859147
0.874215
0.887093
0.896121
0.90517
0.922837
4.62699
3.16438
2.30139
1.66552
1.28458
0.959758
0.912018
0.919967
0.966161
1.02529
1.07758
1.07648
1.05797
1.01591
0.992062
0.985717
0.984897
0.976373
0.958772
0.939235
0.917761
0.896737
0.876922
0.860315
0.849493
0.842628
0.837283
0.833564
0.833106
0.831786
0.829545
0.828808
0.833842
0.84173
0.854087
0.869571
0.882487
0.890544
0.898227
0.915891
4.87725
3.48108
2.54562
1.90813
1.44461
1.10813
0.942973
0.943715
0.92545
0.938916
0.984048
1.01622
1.00971
0.983118
0.977938
0.979394
0.982463
0.975348
0.958304
0.939159
0.918326
0.894592
0.873918
0.86018
0.853849
0.849041
0.843849
0.842314
0.843758
0.839317
0.832362
0.831899
0.839929
0.857257
0.884029
0.900552
0.905281
0.901184
0.896229
0.905421
4.98945
3.71408
2.75277
2.11157
1.6216
1.27353
1.04487
0.986496
0.928803
0.88944
0.899167
0.931989
0.958575
0.964393
0.976924
0.986689
0.993623
0.986056
0.968853
0.947415
0.922459
0.892711
0.868179
0.855747
0.853332
0.852332
0.849813
0.847858
0.845188
0.840654
0.843664
0.864689
0.916776
1.00931
1.09222
1.10768
1.08841
1.03988
0.974242
0.9338
5.06258
3.87887
2.93795
2.28904
1.8142
1.44142
1.17294
1.04629
0.952453
0.879436
0.876391
0.887383
0.919298
0.951804
0.98071
1.00419
1.01088
1.00253
0.984874
0.961454
0.930831
0.89567
0.867131
0.854393
0.850334
0.847786
0.843409
0.841542
0.842042
0.868313
0.952848
1.09632
1.25593
1.39528
1.46627
1.4728
1.45226
1.40298
1.31334
1.15487
5.13704
4.01182
3.10568
2.46126
2.00543
1.59632
1.31205
1.15535
1.03551
0.88569
0.865319
0.879369
0.895419
0.933821
0.969845
1.00529
1.01338
1.00554
0.988557
0.966455
0.937188
0.901977
0.872538
0.856899
0.847653
0.840595
0.836813
0.854881
0.936891
1.11302
1.33414
1.5026
1.59668
1.62337
1.6424
1.63327
1.63185
1.62615
1.61467
1.51472
5.22357
4.14953
3.2645
2.61476
2.17599
1.772
1.44575
1.2595
1.10797
0.92963
0.869662
0.881656
0.885381
0.910577
0.952247
0.993223
1.00204
0.994816
0.979889
0.960388
0.934297
0.903788
0.877535
0.8595
0.846441
0.842121
0.88287
1.04956
1.3181
1.54183
1.65347
1.68805
1.69164
1.65954
1.64632
1.64148
1.64649
1.6563
1.67907
1.65749
5.34477
4.29342
3.43332
2.76684
2.32057
1.93724
1.58543
1.36192
1.19559
1.01932
0.902586
0.89941
0.885625
0.885462
0.920665
0.962201
0.982998
0.977369
0.96764
0.952099
0.92758
0.898185
0.874617
0.859061
0.858552
0.932118
1.17816
1.49412
1.69248
1.76268
1.74091
1.71279
1.67925
1.63713
1.61619
1.61129
1.61302
1.62076
1.64237
1.63837
5.4656
4.44308
3.59361
2.91118
2.46845
2.10269
1.71988
1.44922
1.27317
1.10555
0.956618
0.92573
0.898807
0.866427
0.878253
0.909067
0.947703
0.952451
0.950558
0.939395
0.916463
0.88784
0.869109
0.874418
0.985356
1.30048
1.61742
1.76832
1.82641
1.79662
1.73617
1.68609
1.63616
1.5858
1.56097
1.55734
1.55754
1.55474
1.56133
1.57375
5.56163
4.58576
3.75243
3.06507
2.61153
2.2532
1.84582
1.52178
1.34454
1.19306
1.03782
0.97033
0.922102
0.866436
0.843704
0.851619
0.87682
0.904128
0.916513
0.91724
0.903384
0.879983
0.886838
1.02453
1.39942
1.72253
1.81733
1.84818
1.82174
1.76582
1.67664
1.61041
1.55821
1.52455
1.50487
1.50611
1.50654
1.50205
1.50331
1.51514
5.61877
4.70096
3.90629
3.22963
2.75982
2.37839
1.95444
1.57915
1.41666
1.28856
1.13159
1.02078
0.953199
0.871583
0.83671
0.838244
0.837184
0.852434
0.872924
0.896355
0.890353
0.898438
1.05685
1.47659
1.82159
1.88527
1.87594
1.83819
1.78028
1.68801
1.59795
1.5441
1.50247
1.47527
1.45523
1.45959
1.46257
1.46187
1.46447
1.46738
5.6658
4.78554
4.04893
3.39458
2.88601
2.46998
2.04112
1.64972
1.49197
1.37869
1.21195
1.07718
1.00731
0.914305
0.842837
0.838937
0.827217
0.822685
0.835895
0.864959
0.88965
1.07661
1.54111
1.91782
1.96478
1.93398
1.87472
1.79437
1.70367
1.6177
1.54092
1.49541
1.45991
1.4345
1.41795
1.42893
1.4342
1.43546
1.43536
1.4255
5.72594
4.8629
4.1807
3.53712
2.97539
2.53327
2.12408
1.74112
1.5788
1.4733
1.29726
1.13638
1.04973
0.958014
0.857944
0.845861
0.825952
0.815075
0.816473
0.839349
1.02072
1.55104
1.98397
2.03442
2.00024
1.95204
1.84196
1.71606
1.64015
1.5652
1.49819
1.45795
1.42936
1.40088
1.38506
1.39713
1.40575
1.40473
1.4071
1.39339
5.83338
4.97164
4.30476
3.64672
3.03318
2.58723
2.22947
1.87349
1.67688
1.5585
1.37206
1.19761
1.10592
1.02168
0.91279
0.867212
0.82951
0.808439
0.815975
0.927867
1.43686
1.97317
2.06583
2.0441
1.99726
1.88245
1.73676
1.65081
1.58397
1.51051
1.45537
1.42082
1.40068
1.37062
1.35025
1.36428
1.382
1.38055
1.38882
1.36351
5.9744
5.13232
4.41205
3.7217
3.07822
2.65099
2.35396
2.03218
1.78457
1.6363
1.44407
1.257
1.16642
1.08763
0.974404
0.893951
0.835974
0.814991
0.871029
1.27249
1.87439
2.04106
2.03031
1.99887
1.89662
1.77322
1.6535
1.58487
1.51881
1.46014
1.41642
1.38581
1.36544
1.35288
1.33289
1.33651
1.35913
1.36221
1.34823
1.31514
6.10983
5.32731
4.51585
3.7973
3.15342
2.74514
2.50251
2.19441
1.88052
1.69519
1.51368
1.33073
1.23538
1.15307
1.04086
0.932583
0.869482
0.878105
1.14788
1.758
2.02266
2.01089
1.97591
1.87634
1.76297
1.65795
1.57858
1.52534
1.47326
1.41778
1.38814
1.35598
1.33311
1.33949
1.33359
1.31892
1.33142
1.32933
1.30302
1.26934
6.10043
5.53412
4.57448
3.87186
3.27524
2.86457
2.62534
2.32325
1.96968
1.753
1.58101
1.40571
1.2987
1.21606
1.10761
0.977114
0.91775
1.08251
1.65242
2.07377
2.04105
1.95194
1.8456
1.7186
1.63796
1.57373
1.52386
1.48229
1.44377
1.39921
1.36067
1.33731
1.32456
1.33218
1.33337
1.30357
1.28106
1.28211
1.25622
1.22578
5.65586
5.39367
4.66369
3.99761
3.44823
3.01053
2.73332
2.42103
2.0427
1.80964
1.65508
1.49146
1.36895
1.27692
1.14775
1.03354
1.09042
1.6131
2.13136
2.14532
2.02804
1.87172
1.74178
1.6169
1.5545
1.52541
1.48307
1.45397
1.42474
1.39483
1.3659
1.33553
1.32543
1.31113
1.28428
1.26351
1.23762
1.2262
1.19926
1.18089
4.4335
5.15222
4.67911
4.14601
3.62714
3.1355
2.80972
2.49336
2.12473
1.88287
1.73677
1.5733
1.4364
1.32754
1.19526
1.1608
1.55201
2.22482
2.35149
2.2258
2.00539
1.83024
1.69311
1.57512
1.5157
1.4857
1.46134
1.42931
1.4142
1.38997
1.35387
1.30911
1.2727
1.25265
1.22295
1.20434
1.18573
1.16394
1.14818
1.14797
3.37665
5.07765
4.77266
4.27019
3.76185
3.22954
2.8559
2.55455
2.22038
1.97403
1.81842
1.65593
1.50288
1.36593
1.29214
1.55065
2.30024
2.60343
2.4875
2.23641
1.9999
1.82561
1.67137
1.56768
1.51284
1.46637
1.43198
1.39655
1.37913
1.35198
1.30716
1.2602
1.22365
1.19311
1.16018
1.14136
1.13412
1.11644
1.10957
1.12826
2.12328
4.88683
4.84575
4.374
3.85208
3.31837
2.91807
2.6272
2.32106
2.07006
1.89881
1.73351
1.55002
1.42842
1.56815
2.38731
2.87856
2.73443
2.50401
2.2494
2.03987
1.86779
1.69657
1.58481
1.50763
1.45359
1.40035
1.3511
1.31472
1.29239
1.25683
1.21206
1.1704
1.13877
1.1137
1.09224
1.09186
1.09081
1.08261
1.11186
1.33286
4.30169
4.86309
4.43921
3.91719
3.40668
2.99368
2.7013
2.42701
2.17561
1.98549
1.79482
1.59439
1.60761
2.3477
3.12354
3.1005
2.85472
2.55772
2.31726
2.12035
1.90731
1.722
1.60333
1.51713
1.44034
1.37013
1.30852
1.26123
1.22043
1.18216
1.15075
1.12034
1.09344
1.07896
1.05987
1.05524
1.06857
1.06622
1.09119
1.02738
3.50501
4.72569
4.49217
4.03969
3.53109
3.09569
2.79934
2.54015
2.27833
2.06675
1.83047
1.72779
2.17795
3.35762
3.42354
3.21057
2.88945
2.59682
2.35484
2.13329
1.92407
1.76479
1.65085
1.55132
1.45448
1.36265
1.28506
1.22653
1.17426
1.1323
1.10331
1.08273
1.06093
1.05058
1.03815
1.02886
1.04398
1.05386
1.07377
1.00034
2.44984
4.57563
4.63611
4.1937
3.65052
3.20058
2.89711
2.63919
2.38889
2.12377
1.91271
2.12138
3.27594
3.90977
3.62919
3.22909
2.88964
2.61038
2.36642
2.13264
1.937
1.7951
1.67457
1.56402
1.4608
1.35979
1.26995
1.20462
1.14578
1.10183
1.07519
1.0564
1.03688
1.02338
1.01481
1.00449
1.01612
1.03261
1.04645
1
1.53971
4.04804
4.62884
4.30129
3.77798
3.3266
3.00684
2.73099
2.4669
2.17997
2.17841
3.2436
4.24969
3.95864
3.60734
3.22194
2.90031
2.64743
2.39467
2.15912
1.97649
1.83327
1.70186
1.5726
1.45226
1.34351
1.25785
1.19065
1.12936
1.08328
1.05526
1.03538
1.01145
0.989413
0.980951
0.970071
0.972614
0.991584
1.00294
1
1.1
3.22334
4.48221
4.41854
3.97853
3.48943
3.10191
2.82176
2.48857
2.34473
3.06253
4.45014
4.57512
4.11969
3.64899
3.27702
2.97054
2.68538
2.41967
2.19603
2.02171
1.87197
1.73491
1.59834
1.46823
1.35494
1.26548
1.19135
1.12934
1.08184
1.04613
1.02021
0.988077
0.957157
0.941903
0.929229
0.922992
0.930944
0.941234
1
1.00835
2.17903
4.19405
4.48326
4.12803
3.61666
3.20933
2.86001
2.57654
2.91309
4.5695
5.09017
4.74944
4.20818
3.7164
3.33493
3.01316
2.7112
2.4388
2.2272
2.06041
1.90474
1.7545
1.61451
1.4844
1.37429
1.28869
1.2164
1.15371
1.0993
1.04732
1.00624
0.970089
0.937624
0.916634
0.898651
0.886808
0.885411
0.895692
1
1.00034
1.36012
3.62404
4.31645
4.17308
3.74547
3.33965
2.90439
2.94726
4.46882
5.84669
5.43298
4.78136
4.21446
3.72925
3.33956
3.01856
2.73007
2.47486
2.26422
2.0874
1.93157
1.80422
1.66144
1.51344
1.39329
1.29217
1.20294
1.13481
1.07999
1.03585
0.994437
0.957814
0.927518
0.903064
0.880342
0.864058
0.85918
0.866198
1
1.00001
1.05117
2.66742
4.14925
4.22482
3.87502
3.37375
3.15656
4.26882
6.13026
6.03987
5.43223
4.76058
4.21457
3.75049
3.37478
3.07825
2.79581
2.52979
2.31174
2.12662
1.95412
1.7859
1.63557
1.50423
1.40836
1.31207
1.21959
1.14487
1.08623
1.03943
0.996224
0.9575
0.925878
0.898982
0.873592
0.854718
0.849753
0.848149
1
1
1.00353
1.68881
3.75294
4.13696
3.93077
3.48953
4.03564
6.5134
6.90523
6.19031
5.40339
4.78232
4.25805
3.8165
3.44342
3.11132
2.80124
2.53819
2.32543
2.14296
1.96649
1.78963
1.63911
1.52255
1.41333
1.34324
1.27176
1.19716
1.13078
1.07217
1.01652
0.968247
0.933161
0.905028
0.878064
0.858517
0.851307
0.838757
1
1
1.00014
1.14922
2.93075
4.00513
3.93399
4.05654
6.33286
7.62658
7.13768
6.29747
5.47326
4.8216
4.32805
3.92393
3.53416
3.13178
2.79588
2.54722
2.35245
2.17597
1.99604
1.81665
1.66735
1.54187
1.42941
1.3314
1.24787
1.17503
1.11171
1.05279
0.994455
0.945059
0.909599
0.881277
0.855518
0.83799
0.828748
0.823319
1
1
1
1.01525
2.00005
3.66761
3.97857
6.16122
8.75741
8.22905
7.21799
6.28816
5.4848
4.83423
4.34564
3.94764
3.52665
3.12892
2.81627
2.577
2.37366
2.18284
1.99763
1.82556
1.67891
1.55119
1.44089
1.33803
1.25146
1.17845
1.11484
1.05442
0.994775
0.944628
0.908348
0.879738
0.854004
0.837388
0.82673
0.820559
1
1
1
1.00088
1.29999
2.69285
5.12038
8.42352
9.35403
8.45615
7.28257
6.32007
5.55351
4.94726
4.40646
3.89666
3.50678
3.21873
2.9414
2.68333
2.44818
2.2329
2.03908
1.87066
1.72308
1.59442
1.48004
1.37631
1.28839
1.21414
1.14711
1.08201
1.01878
0.964945
0.92492
0.894936
0.870688
0.852127
0.839307
0.82791
1
1
1
1.00003
1.04118
2.97475
8.32173
11.2124
10.0569
8.60598
7.37108
6.34295
5.56485
4.91495
4.32869
3.83945
3.46723
3.15359
2.87575
2.61541
2.3797
2.16582
1.97617
1.81252
1.66778
1.54423
1.4342
1.33492
1.25022
1.17823
1.11333
1.05028
0.988192
0.935386
0.896824
0.868538
0.845766
0.828065
0.817367
0.807311
)
;

boundaryField
{
    inlet
    {
        type            fixedValue;
        value           uniform 1;
    }
    outlet
    {
        type            zeroGradient;
    }
    top
    {
        type            symmetryPlane;
    }
    bottom
    {
        type            symmetryPlane;
    }
    step
    {
        type            zeroGradient;
    }
    defaultFaces
    {
        type            empty;
    }
}


// ************************************************************************* //
