/*--------------------------------*- C++ -*----------------------------------*\
  =========                 |
  \\      /  F ield         | OpenFOAM: The Open Source CFD Toolbox
   \\    /   O peration     | Website:  https://openfoam.org
    \\  /    A nd           | Version:  6.0
     \\/     M anipulation  |
\*---------------------------------------------------------------------------*/
FoamFile
{
    version     2.0;
    format      ascii;
    class       volScalarField;
    location    "1.000346";
    object      T;
}
// * * * * * * * * * * * * * * * * * * * * * * * * * * * * * * * * * * * * * //

dimensions      [0 0 0 1 0 0 0];

internalField   nonuniform List<scalar> 
4800
(
1
1
1
1
1
1
1
1
1
1
1
1
1
1
1
1
1
1
1
1
1
1
1.76044
2.7303
2.74713
2.74413
2.75786
2.78277
2.8111
2.83536
2.8475
2.85262
2.86356
2.89878
2.93529
2.95844
2.97457
3.03664
3.11158
3.16356
1
1
1
1
1
1
1
1
1
1
1
1
1
1
1
1
1
1
1
1
1
1
1.75644
2.72856
2.75182
2.74676
2.75574
2.77689
2.80417
2.83217
2.8536
2.86096
2.85765
2.85049
2.86761
2.91093
2.95819
2.99174
3.02753
3.02849
1
1
1
1
1
1
1
1
1
1
1
1
1
1
1
1
1
1
1
1
1
1
1.74964
2.72599
2.75617
2.75124
2.75611
2.77047
2.78924
2.81422
2.84767
2.8639
2.85564
2.82926
2.82013
2.86205
2.91092
2.92544
2.92586
2.93875
1
1
1
1
1
1
1
1
1
1
1
1
1
1
1
1
1
1
1
1
1
1
1.73616
2.71957
2.75703
2.75482
2.75989
2.77267
2.79081
2.80687
2.82337
2.8523
2.86203
2.84707
2.82261
2.81897
2.88365
2.95574
3.00123
3.01975
1
1
1
1
1
1
1
1
1
1
1
1
1
1
1
1
1
1
1
1
1
1
1.71944
2.71051
2.75474
2.75599
2.76549
2.78048
2.79993
2.81573
2.81631
2.82975
2.86674
2.88593
2.86643
2.84044
2.88073
2.97736
3.07165
3.12344
1
1
1
1
1
1
1
1
1
1
1
1
1
1
1
1
1
1
1
1
1
1
1.70666
2.7051
2.75559
2.75267
2.7634
2.78371
2.80812
2.82726
2.83361
2.83244
2.85379
2.89987
2.93154
2.92193
2.92789
3.02039
3.1192
3.15719
1
1
1
1
1
1
1
1
1
1
1
1
1
1
1
1
1
1
1
1
1
1
1.69539
2.70187
2.75859
2.75177
2.75862
2.77884
2.80753
2.84145
2.86238
2.85886
2.84896
2.88813
2.94864
2.97774
2.98888
2.98904
3.01652
3.03782
1
1
1
1
1
1
1
1
1
1
1
1
1
1
1
1
1
1
1
1
1
1
1.67805
2.69497
2.75894
2.75218
2.75821
2.77399
2.80158
2.84217
2.86941
2.87079
2.84991
2.84987
2.90868
2.97521
2.98724
2.94835
2.92025
2.92124
1
1
1
1
1
1
1
1
1
1
1
1
1
1
1
1
1
1
1
1
1
1
1.65172
2.683
2.75808
2.753
2.75913
2.78056
2.80403
2.8199
2.84524
2.86173
2.85035
2.8291
2.83896
2.89574
2.9317
2.93005
2.91291
2.91401
1
1
1
1
1
1
1
1
1
1
1
1
1
1
1
1
1
1
1
1
1
1
1.62437
2.67042
2.75472
2.75345
2.76542
2.78948
2.80451
2.8085
2.81209
2.83789
2.85511
2.8339
2.79787
2.79874
2.87391
2.96394
3.02099
3.04614
1
1
1
1
1
1
1
1
1
1
1
1
1
1
1
1
1
1
1
1
1
1
1.60397
2.66129
2.74854
2.75214
2.76985
2.7913
2.80969
2.81091
2.80493
2.8235
2.85048
2.843
2.78751
2.75709
2.84376
2.99681
3.10881
3.15512
1
1
1
1
1
1
1
1
1
1
1
1
1
1
1
1
1
1
1
1
1
1
1.58727
2.65444
2.74698
2.75004
2.76317
2.78392
2.80309
2.81798
2.82114
2.82979
2.84833
2.83973
2.80744
2.79223
2.86153
3.00392
3.08973
3.09859
1
1
1
1
1
1
1
1
1
1
1
1
1
1
1
1
1
1
1
1
1
1
1.57194
2.65088
2.74924
2.74825
2.75659
2.7684
2.79309
2.82762
2.85115
2.85083
2.84527
2.85652
2.87529
2.88081
2.89649
2.92835
2.95833
2.96396
1
1
1
1
1
1
1
1
1
1
1
1
1
1
1
1
1
1
1
1
1
1
1.5491
2.64159
2.74954
2.74377
2.74853
2.75815
2.78609
2.83886
2.86661
2.85988
2.84082
2.88708
2.95208
2.96948
2.94385
2.88631
2.87769
2.9181
1
1
1
1
1
1
1
1
1
1
1
1
1
1
1
1
1
1
1
1
1
1
1.51014
2.62216
2.7459
2.73907
2.73924
2.75663
2.80094
2.8402
2.85527
2.84568
2.83913
2.88606
2.94815
2.97977
2.95746
2.89365
2.89297
2.92263
1
1
1
1
1
1
1
1
1
1
1
1
1
1
1
1
1
1
1
1
1
1
1.46257
2.59557
2.73431
2.73198
2.73712
2.77314
2.81878
2.82939
2.83108
2.827
2.8366
2.85788
2.91152
2.97121
2.96923
2.9376
2.88236
2.85824
1
1
1
1
1
1
1
1
1
1
1
1
1
1
1
1
1
1
1
1
1
1
1.41331
2.5621
2.71914
2.72331
2.74906
2.79291
2.8169
2.82103
2.80993
2.81918
2.83268
2.83246
2.82444
2.82334
2.90369
2.98026
3.01645
3.02912
1
1
1
1
1
1
1
1
1
1
1
1
1
1
1
1
1
1
1
1
1
1
1.36502
2.52892
2.70392
2.72695
2.77136
2.79658
2.80612
2.79493
2.80273
2.83403
2.85747
2.84389
2.78619
2.75888
2.83518
2.97011
3.0771
3.13578
1
1
1
1
1
1
1
1
1
1
1
1
1
1
1
1
1
1
1
1
1
1
1.31061
2.49962
2.70743
2.73827
2.77123
2.7908
2.78776
2.7798
2.7928
2.84649
2.8774
2.86062
2.77811
2.72281
2.78135
2.95005
3.11316
3.1959
1
1
1
1
1
1
1
1
1
1
1
1
1
1
1
1
1
1
1
1
1
1
1.26006
2.47164
2.71592
2.73837
2.76327
2.7715
2.77736
2.79061
2.82157
2.84838
2.86171
2.85385
2.81387
2.77844
2.81271
2.91439
2.98839
2.96256
1
1
1
1
1
1
1
1
1
1
1
1
1
1
1
1
1
1
1
1
1
1
1.20453
2.43654
2.71464
2.73467
2.75359
2.75307
2.76262
2.81972
2.84999
2.83874
2.81423
2.82086
2.88302
2.93593
2.93394
2.90784
2.85033
2.80541
1
1
1
1
1
1
1
1
1
1
1
1
1
1
1
1
1
1
1
1
1
1
1.14803
2.40031
2.71291
2.72994
2.74438
2.75329
2.78899
2.8298
2.84691
2.83004
2.78116
2.79257
2.89627
2.99394
3.0194
2.93502
2.80402
2.75953
1
1
1
1
1
1
1
1
1
1
1
1
1
1
1
1
1
1
1
1
1
1
1.09151
2.36555
2.70732
2.72946
2.74666
2.78291
2.81554
2.82491
2.83492
2.81038
2.77347
2.78458
2.86345
2.9647
3.00827
2.9776
2.8803
2.8678
1
1
1
1
1
1
1
1
1
1
1
1
1
1
1
1
1
1
1
1
1
1
1.03526
2.33347
2.7054
2.72751
2.75432
2.79571
2.82017
2.82136
2.79998
2.78264
2.79536
2.8103
2.82547
2.85267
2.90345
2.97998
3.03279
3.0707
1
1
1
1
1
1
1
1
1
1
1
1
1
1
1
1
1
1
1
1
1
1
1.00282
2.29824
2.70778
2.72764
2.75468
2.78821
2.81543
2.80848
2.76803
2.77516
2.82317
2.85053
2.81581
2.74565
2.75485
2.90787
3.05684
3.1491
1
1
1
1
1
1
1
1
1
1
1
1
1
1
1
1
1
1
1
1
1
1
1.00006
2.25677
2.70911
2.7253
2.75386
2.78691
2.80009
2.78015
2.74835
2.76013
2.83536
2.87188
2.8235
2.73197
2.72925
2.81636
3.00872
3.12451
1
1
1
1
1
1
1
1
1
1
1
1
1
1
1
1
1
1
1
1
1
1
1
2.20432
2.70786
2.72727
2.76011
2.78491
2.7851
2.76282
2.75784
2.79282
2.8311
2.86159
2.82044
2.74838
2.74442
2.80135
2.86211
2.88043
1
1
1
1
1
1
1
1
1
1
1
1
1
1
1
1
1
1
1
1
1
1
1
2.1414
2.70232
2.7405
2.76965
2.77511
2.75561
2.76987
2.82347
2.84367
2.81902
2.77915
2.80218
2.84933
2.85364
2.83863
2.8288
2.76963
1
1
1
1
1
1
1
1
1
1
1
1
1
1
1
1
1
1
1
1
1
1
1
2.07552
2.69179
2.75486
2.76769
2.75563
2.74201
2.7803
2.84833
2.85513
2.81318
2.74076
2.777
2.90048
2.98524
2.98078
2.86108
2.79061
1
1
1
1
1
1
1
1
1
1
1
1
1
1
1
1
1
1
1
1
1
1
1
2.01119
2.68068
2.75546
2.75929
2.74633
2.74259
2.79365
2.82982
2.84721
2.8004
2.74449
2.78388
2.88258
2.96895
3.00854
2.99321
2.97164
1
1
1
1
1
1
1
1
1
1
1
1
1
1
1
1
1
1
1
1
1
1
1
1.94505
2.67127
2.74113
2.74851
2.75337
2.78698
2.79068
2.79617
2.78504
2.77452
2.77871
2.81108
2.84197
2.8971
2.95068
2.98809
3.06651
1
1
1
1
1
1
1
1
1
1
1
1
1
1
1
1
1
1
1
1
1
1
1
1.87586
2.6644
2.72619
2.73476
2.77147
2.80124
2.78931
2.74291
2.70902
2.75065
2.80618
2.82199
2.78743
2.69875
2.70012
2.89539
3.02195
1
1
1
1
1
1
1
1
1
1
1
1
1
1
1
1
1
1
1
1
1
1
1
1.80762
2.65349
2.72243
2.7512
2.7839
2.78851
2.76734
2.70098
2.70246
2.74998
2.82097
2.83358
2.75639
2.6613
2.64109
2.67975
2.75842
1
1
1
1
1
1
1
1
1
1
1
1
1
1
1
1
1
1
1
1
1
1
1
1.73943
2.62941
2.73188
2.7617
2.7746
2.76598
2.7168
2.67898
2.69638
2.77841
2.83005
2.82821
2.729
2.64233
2.62304
2.64274
2.66827
1
1
1
1
1
1
1
1
1
1
1
1
1
1
1
1
1
1
1
1
1
1
1
1.64987
2.5978
2.73891
2.74589
2.74804
2.7167
2.68478
2.67208
2.71919
2.79776
2.82381
2.78665
2.71264
2.64446
2.62333
2.64312
2.63684
1
1
1
1
1
1
1
1
1
1
1
1
1
1
1
1
1
1
1
1
1
1
1
1.49545
2.53862
2.72239
2.69672
2.67673
2.68151
2.69654
2.75072
2.78092
2.77727
2.74118
2.72068
2.74068
2.79385
2.69401
2.65821
2.59767
1
1
1
1
1
1
1
1
1
1
1
1
1
1
1
1
1
1
1
1
1
1
1
1.32542
2.44203
2.67403
2.64322
2.63148
2.66483
2.74272
2.78895
2.78015
2.75574
2.67887
2.69389
2.82016
2.95852
2.97355
2.70426
2.59463
1
1
1
1
1
1
1
1
1
1
1
1
1
1
1
1
1
1
1
1
1
1
1
1.22558
2.40537
2.64458
2.61867
2.6341
2.70507
2.76348
2.76882
2.74829
2.67308
2.67459
2.7072
2.84763
2.93578
3.01009
2.95512
2.68667
1
1
1
1
1
1
1
1
1
1
1
1
1
1
1
1
1
1
1
1
1
1
1
1.15448
2.38254
2.63703
2.64957
2.69857
2.72753
2.74852
2.74085
2.66623
2.64498
2.68957
2.81525
2.83859
2.89536
2.96346
3.01088
3.04336
1
1
1
1
1
1
1
1
1
1
1
1
1
1
1
1
1
1
1
1
1
1
1
1.08284
2.37752
2.68357
2.70682
2.71575
2.72033
2.70469
2.64479
2.63547
2.65358
2.7693
2.8348
2.82192
2.78859
2.83758
2.95221
2.99825
1
1
1
1
1
1
1
1
1
1
1
1
1
1
1
1
1
1
1
1
1
1
1
1.00547
2.2517
2.69074
2.691
2.69168
2.68533
2.67116
2.67787
2.70972
2.74044
2.74911
2.74505
2.74185
2.70428
2.65194
2.5987
2.55293
1
1
1
1
1
1
1
1
1
1
1
1
1
1
1
1
1
1
1
1
1
1
1
1.00002
1.87312
2.61674
2.66718
2.67382
2.68519
2.70273
2.70947
2.7082
2.70888
2.69751
2.68867
2.68472
2.67734
2.6584
2.5986
2.47669
1
1
1
1
1
1
1
1
1
1
1
1
1
1
1
1
1
1
1
1
1
1
1
1
1.31775
2.43606
2.65005
2.65692
2.66803
2.6822
2.68939
2.68569
2.67672
2.67048
2.66996
2.65972
2.63687
2.59909
2.55465
2.45028
1
1
1
1
1
1
1
1
1
1
1
1
1
1
1
1
1
1
1
1
1
1
1
1
1.01556
2.17935
2.60321
2.6219
2.63024
2.64373
2.65983
2.66805
2.66285
2.64758
2.62766
2.60358
2.57109
2.52521
2.46169
2.37383
1
1
1
1
1
1
1
1
1
1
1
1
1
1
1
1
1
1
1
1
1
1
1
1
1.00003
1.63567
2.47962
2.59359
2.59261
2.60531
2.62532
2.63777
2.6335
2.61509
2.59155
2.56064
2.52171
2.47161
2.40578
2.32647
1
1
1
1
1
1
1
1
1
1
1
1
1
1
1
1
1
1
1
1
1
1
1
1
1
1.0675
2.25034
2.57252
2.56456
2.57316
2.58361
2.5913
2.58955
2.58059
2.5649
2.53774
2.49718
2.44433
2.38014
2.31215
1
1
1
1
1
1
1
1
1
1
1
1
1
1
1
1
1
1
1
1
1
1
1
1
1
1.00052
1.71744
2.46624
2.54268
2.53971
2.54338
2.54616
2.54646
2.54389
2.53277
2.51045
2.47478
2.4267
2.37226
2.31377
1
1
1
1
1
1
1
1
1
1
1
1
1
1
1
1
1
1
1
1
1
1
1
1
1
1
1.08972
2.21797
2.52905
2.52394
2.51271
2.50765
2.5071
2.50427
2.49551
2.47525
2.44775
2.4116
2.36827
2.31763
1
1
1
1
1
1
1
1
1
1
1
1
1
1
1
1
1
1
1
1
1
1
1
1
1
1
1.0009
1.59362
2.39508
2.4956
2.48229
2.47769
2.47417
2.46924
2.45779
2.43632
2.41513
2.39126
2.35972
2.3159
1
1
1
1
1
1
1
1
1
1
1
1
1
1
1
1
1
1
1
1
1
1
1
1
1
1
1
1.05409
2.07589
2.45874
2.46321
2.45441
2.44514
2.43566
2.42065
2.3999
2.38293
2.36604
2.34107
2.30413
1
1
1
1
1
1
1
1
1
1
1
1
1
1
1
1
1
1
1
1
1
1
1
1
1
1
1
1.00035
1.31192
2.248
2.4421
2.43143
2.42327
2.40969
2.39194
2.37476
2.36001
2.3432
2.31745
2.28435
1
1
1
1
1
1
1
1
1
1
1
1
1
1
1
1
1
1
1
1
1
1
1
1
1
1
1
1
1.01174
1.70577
2.32167
2.40504
2.39172
2.38172
2.36658
2.35208
2.33757
2.3197
2.29455
2.26595
1
1
1
1
1
1
1
1
1
1
1
1
1
1
1
1
1
1
1
1
1
1
1
1
1
1
1
1
1.00004
1.09349
1.98586
2.34258
2.37062
2.36041
2.3481
2.33414
2.31844
2.29861
2.27403
2.24939
1
1
1
1
1
1
1
1
1
1
1
1
1
1
1
1
1
1
1
1
1
1
1
1
1
1
1
1
1
1.00103
1.27953
2.08868
2.33847
2.33247
2.32431
2.31218
2.29739
2.279
2.25759
2.23665
1
1
1
1
1
1
1
1
1
1
1
1
1
1
1
1
1
1
1
1
1
1
1
1
1
1
1
1
1
1
1.00929
1.45264
2.14976
2.303
2.29093
2.281
2.26971
2.25601
2.24065
2.22332
1
1
1
1
1
1
1
1
1
1
1
1
1
1
1
1
1
1
1
1
1
1
1
1
1
1
1
1
1
1
1.00003
1.03167
1.60911
2.17128
2.26755
2.25048
2.2387
2.22833
2.21671
2.20294
1
1
1
1
1
1
1
1
1
1
1
1
1
1
1
1
1
1
1
1
1
1
1
1
1
1
1
1
1
1
1
1.00021
1.07323
1.72572
2.16954
2.23575
2.21414
2.20055
2.18928
2.17739
1
1
1
1
1
1
1
1
1
1
1
1
1
1
1
1
1
1
1
1
1
1
1
1
1
1
1
1
1
1
1
1
1.00083
1.1304
1.7925
2.15394
2.20336
2.18205
2.16364
2.15185
1
1
1
1
1
1
1
1
1
1
1
1
1
1
1
1
1
1
1
1
1
1
1
1
1
1
1
1
1
1
1
1
1
1.00234
1.18458
1.8222
2.12803
2.17127
2.14922
2.13096
1
1
1
1
1
1
1
1
1
1
1
1
1
1
1
1
1
1
1
1
1
1
1
1
1
1
1
1
1
1
1
1
1
1.00001
1.00464
1.22245
1.82135
2.09444
2.13816
2.12077
1
1
1
1
1
1
1
1
1
1
1
1
1
1
1
1
1
1
1
1
1
1
1
1
1
1
1
1
1
1
1
1
1
1
1.00002
1.00689
1.23602
1.79625
2.05215
2.106
1
1
1
1
1
1
1
1
1
1
1
1
1
1
1
1
1
1
1
1
1
1
1
1
1
1
1
1
1
1
1
1
1
1
1
1.00003
1.0079
1.22719
1.7445
2.03021
1
1
1
1
1
1
1
1
1
1
1
1
1
1
1
1
1
1
1
1
1
1
1
1
1
1
1
1
1
1
1
1
1
1
1
1
1.00003
1.00766
1.1954
1.75973
1
1
1
1
1
1
1
1
1
1
1
1
1
1
1
1
1
1
1
1
1
1
1
1
1
1
1
1
1
1
1
1
1
1
1
1
1
1.00003
1.00563
1.22239
1
1
1
1
1
1
1
1
1
1
1
1
1
1
1
1
1
1
1
1
1
1
1
1
1
1
1
1
1
1
1
1
1
1
1
1
1
1
1.00002
1.00716
1
1
1
1
1
1
1
1
1
1
1
1
1
1
1
1
1
1
1
1
1
1
1
1
1
1
1
1
1
1
1
1
1
1
1
1
1
1
1
1.00001
1
1
1
1
1
1
1
1
1
1
1
1
1
1
1
1
1
1
1
1
1
1
1
1
1
1
1
1
1
1
1
1
1
1
1
1
1
1
1
1
1
1
1
1
1
1
1
1
1
1
1
1
1
1
1
1
1
1
1
1
1
1
1
1
1
1
1
1
1
1
1
1
1
1
1
1
1
1
1
1
1
1
1
1
1
1
1
1
1
1
1
1
1
1
1
1
1
1
1
1
1
1
1
1
1
1
1
1
1
1
1
1
1
1
1
1
1
1
1
1
1
1
1
1
1
1
1
1
1
1
1
1
1
1
1
1
1
1
1
1
1
1
1
1
1
1
1
1
1
1
1
1
1
1
1
1
1
1
1
1
1
1
1
1
1
1
1
1
1
1
1
1
1
1
1
1
1
1
1
1
1
1
1
1
1
1
1
1
1
1
1
1
1
1
1
1
1
1
1
1
1
1
1
1
1
1
1
1
1
1
1
1
1
1
1
1
1
1
1
1
1
1
1
1
1
1
1
1
1
1
1
1
1
1
1
1
1
1
1
1
1
1
1
1
1
1
1
1
1
1
1
1
1
1
1
1
1
1
1
1
1
1
1
1
1
1
1
1
1
1
1
1
1
1
1
1
1
1
1
1
1
1
1
1
1
1
1
1
1
1
1
1
1
1
1
1
1
1
1
1
1
1
1
1
1
1
1
1
1
1
1
1
1
1
1
1
1
1
1
1
1
1
1
1
1
1
1
1
1
1
1
1
1
1
1
1
1
1
1
1
1
1
1
1
1
1
1
1
1
1
1
1
1
1
1
1
1
1
1
1
1
1
1
1
1
1
1
1
1
1
1
1
1
1
1
1
1
1
1
1
1
1
1
1
1
1
1
1
1
1
1
1
1
1
1
1
1
1
1
1
1
1
1
1
1
1
1
1
1
1
1
1
1
1
1
1
1
1
1
1
1
1
1
1
1
1
1
1
1
1
1
1
1
1
1
1
1
1
1
1
1
1
1
1
1
1
1
1
1
1
1
1
1
1
1
1
1
1
1
1
1
1
1
1
1
1
1
1
1
1
1
1
1
1
1
1
1
1
1
1
1
1
1
1
1
1
1
1
1
1
1
1
1
1
1
1
1
1
1
1
1
1
1
1
1
1
1
1
1
1
1
1
1
1
1
1
1
1
1
1
1
1
1
1
1
1
1
1
1
1
1
1
1
1
1
1
1
1
1
1
1
1
1
1
1
1
1
1
1
1
1
1
1
1
1
1
1
1
1
1
1.59897
1.60021
1.80791
2.00041
2.00682
1.99282
1.99274
1.98769
1.98628
1.98166
1.97612
1.98455
1.9833
1.97511
1.96116
1.93986
1.90848
1.89821
1.9039
1.92799
1.9549
1.95786
1.95123
1.94125
1.93889
1.94016
1.94474
1.95251
1.95828
1.95886
1.95543
1.95515
1.95927
1.96024
1.9581
1.95054
1.93893
1.92616
1.91707
1.89414
2.11753
1.70033
1.72689
1.82297
1.87436
1.88454
1.88691
1.9035
1.92421
1.92848
1.92827
1.93657
1.93599
1.93315
1.92228
1.90486
1.87737
1.86862
1.87421
1.89527
1.92267
1.93056
1.92712
1.92047
1.92016
1.92317
1.93123
1.94313
1.95113
1.95161
1.94819
1.94821
1.95302
1.95487
1.95265
1.94359
1.9279
1.91268
1.90415
1.88292
2.10575
1.69964
1.61921
1.63488
1.67053
1.70534
1.72419
1.74805
1.78301
1.80512
1.81356
1.81937
1.81822
1.8203
1.81864
1.81044
1.79148
1.7837
1.78914
1.80859
1.83538
1.84925
1.84975
1.84799
1.84877
1.85406
1.86617
1.88575
1.90358
1.90984
1.90765
1.90622
1.91162
1.91635
1.91516
1.90824
1.893
1.87739
1.86991
1.85178
2.10079
1.78233
1.6153
1.54487
1.50823
1.52446
1.55578
1.60032
1.64793
1.67853
1.68641
1.68496
1.67969
1.68033
1.6848
1.68401
1.67587
1.67023
1.67384
1.68813
1.71076
1.72581
1.72979
1.73166
1.73499
1.7424
1.75695
1.78069
1.80603
1.82128
1.82323
1.82308
1.82924
1.83652
1.83589
1.83269
1.82867
1.82519
1.8238
1.81199
2.10382
1.85059
1.62853
1.52558
1.4524
1.4395
1.4568
1.51043
1.57619
1.60905
1.60725
1.59973
1.58897
1.58553
1.58494
1.58304
1.57694
1.57057
1.5717
1.57933
1.59302
1.60375
1.609
1.61284
1.61846
1.62799
1.64421
1.66862
1.69614
1.71709
1.72436
1.72629
1.73305
1.74137
1.74166
1.73983
1.74016
1.74348
1.74804
1.7419
2.11239
1.88767
1.67394
1.56857
1.46599
1.4032
1.41068
1.45332
1.51316
1.55019
1.55047
1.54428
1.5311
1.522
1.52049
1.51996
1.5162
1.50914
1.5054
1.50648
1.50953
1.51119
1.51271
1.51654
1.52365
1.5341
1.54971
1.57117
1.59554
1.61649
1.62588
1.62876
1.63559
1.64282
1.64367
1.64554
1.64984
1.65773
1.66575
1.66224
2.1325
1.92107
1.74772
1.60664
1.49744
1.39099
1.39484
1.41996
1.46547
1.50086
1.50295
1.49792
1.48628
1.47486
1.47207
1.47294
1.47205
1.46752
1.46381
1.46214
1.45966
1.4569
1.45485
1.45626
1.46137
1.4705
1.48357
1.49966
1.51851
1.53645
1.54657
1.55048
1.55691
1.56095
1.56118
1.56441
1.57147
1.58112
1.58989
1.58724
2.16335
1.96185
1.80925
1.66112
1.54292
1.41057
1.39477
1.40439
1.42843
1.45104
1.46306
1.45988
1.45165
1.44109
1.43961
1.44139
1.4428
1.4401
1.436
1.43355
1.42995
1.42603
1.42457
1.42433
1.42686
1.43382
1.4438
1.45599
1.47072
1.48406
1.49212
1.4954
1.49986
1.50247
1.50408
1.5061
1.51008
1.5152
1.52089
1.51723
2.18952
2.0065
1.85004
1.71188
1.58007
1.45802
1.39271
1.40391
1.4025
1.40344
1.4147
1.42309
1.42182
1.41743
1.42086
1.42536
1.42732
1.42463
1.41979
1.41607
1.41121
1.40421
1.40208
1.40252
1.40654
1.41379
1.42255
1.43371
1.44628
1.45469
1.45832
1.46182
1.46844
1.47661
1.4849
1.48489
1.48196
1.47615
1.47001
1.45636
2.19531
2.03769
1.88366
1.75038
1.62092
1.50847
1.42649
1.41205
1.39788
1.37133
1.37064
1.38102
1.39397
1.40234
1.41252
1.4181
1.4208
1.41796
1.4126
1.40698
1.39966
1.38906
1.38462
1.38553
1.39069
1.3988
1.40754
1.41687
1.42471
1.4319
1.44063
1.45558
1.48466
1.5297
1.55688
1.55322
1.53778
1.50776
1.47245
1.42747
2.19284
2.05466
1.91004
1.78001
1.66235
1.55528
1.47229
1.43227
1.4001
1.36014
1.35285
1.35698
1.37343
1.39198
1.40741
1.41673
1.41872
1.4155
1.40961
1.40258
1.39247
1.37937
1.37212
1.3729
1.37681
1.38279
1.38859
1.3967
1.40783
1.42923
1.47986
1.54975
1.61295
1.65771
1.66075
1.65124
1.63331
1.60503
1.5689
1.48865
2.18669
2.06174
1.92864
1.80595
1.70151
1.59581
1.51734
1.47023
1.42539
1.3569
1.34258
1.34981
1.36002
1.38023
1.39646
1.40957
1.41171
1.40866
1.4029
1.39593
1.38583
1.37261
1.36381
1.36309
1.3639
1.36618
1.3726
1.38967
1.44219
1.53141
1.62059
1.67193
1.69312
1.69099
1.68007
1.66123
1.64544
1.62745
1.60889
1.55208
2.17786
2.06573
1.94219
1.82578
1.73384
1.64059
1.55749
1.50273
1.4466
1.36814
1.33938
1.34769
1.35226
1.36565
1.38268
1.39685
1.39942
1.39667
1.39166
1.38531
1.37592
1.36444
1.35655
1.35313
1.35178
1.35662
1.3834
1.4714
1.58408
1.65859
1.68753
1.6911
1.68616
1.66886
1.64867
1.62834
1.61186
1.59573
1.5807
1.53593
2.1709
2.06769
1.95481
1.8438
1.75902
1.67949
1.59576
1.5312
1.47118
1.39799
1.34696
1.35118
1.34988
1.34947
1.36287
1.3769
1.38436
1.38244
1.37931
1.37387
1.36441
1.35318
1.34541
1.34233
1.34794
1.38914
1.50166
1.61436
1.66966
1.68621
1.67924
1.66825
1.6532
1.63055
1.60768
1.58749
1.56765
1.5482
1.52976
1.47682
2.16341
2.06847
1.96381
1.85846
1.78271
1.71443
1.62825
1.55155
1.48967
1.4251
1.3661
1.35821
1.35063
1.33476
1.33738
1.34815
1.36295
1.36581
1.36526
1.36067
1.35115
1.33923
1.33379
1.34034
1.3974
1.52754
1.6245
1.65825
1.67468
1.66651
1.64926
1.63033
1.60875
1.58209
1.55698
1.53771
1.51611
1.49089
1.46592
1.40999
2.15235
2.06745
1.97127
1.87312
1.80233
1.74051
1.6531
1.56444
1.50479
1.45089
1.39544
1.37272
1.35447
1.3294
1.3133
1.31599
1.32666
1.33876
1.344
1.34318
1.33666
1.32711
1.33334
1.40041
1.54585
1.63394
1.64476
1.65238
1.64534
1.62885
1.60184
1.57724
1.55383
1.52957
1.50605
1.48747
1.46517
1.4379
1.41024
1.35152
2.13511
2.06171
1.97643
1.88756
1.81923
1.75574
1.66854
1.5703
1.51856
1.47692
1.4261
1.38853
1.36133
1.32559
1.30482
1.3038
1.30245
1.30928
1.31802
1.32576
1.32138
1.32692
1.40035
1.55589
1.6444
1.64369
1.63689
1.62492
1.60605
1.57962
1.55177
1.52883
1.50644
1.4826
1.45875
1.44042
1.41765
1.3897
1.36123
1.30082
2.11451
2.0498
1.97808
1.89945
1.82781
1.75965
1.67501
1.57807
1.53195
1.49874
1.44831
1.40392
1.37567
1.3359
1.30263
1.29808
1.29168
1.28804
1.29343
1.30294
1.31302
1.39464
1.55929
1.65334
1.64837
1.63631
1.61665
1.58829
1.55946
1.53537
1.51071
1.48788
1.46501
1.44031
1.41652
1.3977
1.3738
1.34525
1.31591
1.25641
2.09453
2.03556
1.97636
1.90401
1.82711
1.75673
1.67892
1.58955
1.54675
1.51897
1.46922
1.41772
1.38394
1.34539
1.30102
1.29431
1.28553
1.27695
1.27582
1.28434
1.36247
1.55128
1.65533
1.65301
1.64199
1.62373
1.58566
1.54416
1.51922
1.49791
1.47509
1.45143
1.42774
1.40032
1.37466
1.3535
1.32951
1.3009
1.27359
1.22118
2.08069
2.02473
1.97154
1.90117
1.81968
1.75032
1.68621
1.61008
1.56297
1.53375
1.48331
1.42956
1.39565
1.36172
1.3161
1.29605
1.27937
1.26622
1.26869
1.31728
1.51049
1.64529
1.65224
1.64255
1.62371
1.58484
1.53629
1.50533
1.48209
1.4592
1.43766
1.41412
1.39045
1.36058
1.33084
1.3093
1.28848
1.26205
1.23934
1.19275
2.07175
2.01883
1.96241
1.89178
1.80844
1.74531
1.69717
1.63496
1.57962
1.54418
1.49418
1.43875
1.40695
1.3767
1.33287
1.29918
1.27369
1.2612
1.2856
1.44835
1.62023
1.63944
1.62742
1.61109
1.57584
1.53363
1.49312
1.46602
1.44052
1.41824
1.39833
1.37443
1.34917
1.32289
1.29248
1.26898
1.25176
1.23014
1.20585
1.16522
2.06025
2.01287
1.94968
1.87998
1.80183
1.7454
1.71083
1.65711
1.5911
1.54776
1.50197
1.45028
1.41902
1.38957
1.34897
1.30614
1.27911
1.27943
1.39007
1.58731
1.63074
1.61345
1.59395
1.55921
1.51943
1.48199
1.45089
1.42595
1.40229
1.37765
1.35693
1.33226
1.30676
1.2866
1.2626
1.23627
1.21857
1.19948
1.17662
1.14285
2.04352
2.00607
1.92831
1.865
1.7995
1.747
1.71509
1.66739
1.59874
1.5497
1.5072
1.45979
1.42707
1.39943
1.36212
1.31418
1.28764
1.35549
1.54897
1.6372
1.61566
1.58078
1.54343
1.50006
1.46692
1.43843
1.41317
1.38941
1.36616
1.34147
1.317
1.29379
1.27278
1.25624
1.23738
1.20995
1.18615
1.17131
1.15169
1.12332
2.00737
1.98536
1.91704
1.85709
1.80194
1.75025
1.71557
1.6692
1.59966
1.54884
1.51195
1.47013
1.4356
1.40703
1.36432
1.32437
1.34572
1.5245
1.6488
1.63082
1.59439
1.54594
1.49995
1.45518
1.4263
1.40481
1.38022
1.35682
1.3334
1.31075
1.28923
1.26597
1.24642
1.2259
1.20283
1.18191
1.16088
1.14604
1.12745
1.10591
1.91538
1.96598
1.91732
1.86175
1.80693
1.74927
1.7096
1.66497
1.6006
1.55034
1.51722
1.47753
1.44157
1.40996
1.36866
1.35826
1.49309
1.66454
1.66862
1.63593
1.57479
1.51861
1.46994
1.42766
1.39933
1.37491
1.35243
1.32761
1.30725
1.2848
1.26006
1.23483
1.21111
1.1917
1.17096
1.1539
1.13755
1.12182
1.10826
1.0944
1.72332
1.9685
1.93258
1.87246
1.81244
1.74637
1.69894
1.65782
1.60255
1.55466
1.52144
1.48431
1.44658
1.40902
1.38784
1.47617
1.67338
1.71453
1.68155
1.61795
1.5555
1.50128
1.44969
1.40902
1.37875
1.34952
1.32345
1.29724
1.27644
1.25434
1.22906
1.20486
1.18368
1.16406
1.14438
1.12858
1.11766
1.10382
1.09547
1.08812
1.34725
1.9163
1.93117
1.88294
1.81805
1.74829
1.69568
1.65533
1.60605
1.56014
1.52567
1.48972
1.44652
1.41557
1.46071
1.68038
1.75952
1.72238
1.66578
1.60266
1.54555
1.49249
1.43629
1.39237
1.35681
1.32594
1.29505
1.26608
1.24175
1.2232
1.20253
1.18069
1.16002
1.14171
1.12531
1.10962
1.10275
1.09499
1.08623
1.08353
1.08877
1.77746
1.92255
1.88019
1.81927
1.75331
1.69778
1.65631
1.61322
1.56888
1.53193
1.4921
1.44683
1.45365
1.65099
1.79648
1.77525
1.7236
1.6607
1.60083
1.54354
1.47988
1.42037
1.3758
1.3392
1.30439
1.26986
1.23823
1.21269
1.19093
1.17147
1.15484
1.13878
1.12376
1.11173
1.09756
1.09034
1.08823
1.08106
1.07672
1.0077
1.63764
1.88817
1.86995
1.82484
1.76514
1.70733
1.66497
1.62462
1.57916
1.53901
1.49039
1.47046
1.58966
1.82989
1.81648
1.77519
1.71112
1.64679
1.58563
1.5228
1.45986
1.40739
1.36579
1.32771
1.29012
1.25297
1.21861
1.19084
1.16695
1.14782
1.13314
1.12105
1.10934
1.10026
1.08978
1.08042
1.08022
1.07683
1.07038
1.0001
1.40477
1.81494
1.86673
1.82882
1.77167
1.71617
1.67434
1.63475
1.59248
1.54308
1.50209
1.55851
1.80319
1.88539
1.8332
1.75677
1.68804
1.62571
1.56343
1.49812
1.43864
1.39122
1.34969
1.31113
1.27448
1.23771
1.20302
1.17438
1.14904
1.12991
1.11691
1.10618
1.09607
1.08784
1.08007
1.07059
1.07015
1.06887
1.06131
1
1.15593
1.67738
1.84726
1.82304
1.77331
1.72315
1.6826
1.64207
1.59926
1.54718
1.55436
1.7784
1.92275
1.87275
1.80558
1.72998
1.6636
1.60539
1.54226
1.47833
1.42347
1.37739
1.33504
1.29444
1.25626
1.22013
1.18859
1.16133
1.13612
1.11636
1.10339
1.09292
1.08164
1.0718
1.0654
1.05707
1.0539
1.05383
1.04669
1
1.02895
1.52475
1.79097
1.81392
1.77936
1.72961
1.6832
1.64577
1.59366
1.57303
1.72336
1.94199
1.93137
1.86793
1.78558
1.70945
1.6433
1.5805
1.51828
1.46038
1.41038
1.36531
1.3231
1.2829
1.24539
1.2107
1.18002
1.15249
1.12858
1.1096
1.09467
1.08272
1.06924
1.05663
1.04841
1.04097
1.03451
1.03219
1.02543
1
1.00236
1.31114
1.68564
1.79893
1.77205
1.72533
1.68211
1.63769
1.6001
1.67162
1.94028
1.97571
1.92639
1.84595
1.76176
1.68481
1.61571
1.55195
1.49274
1.44165
1.39726
1.35431
1.31139
1.27208
1.23641
1.2043
1.17699
1.15245
1.13034
1.11034
1.09052
1.07459
1.06047
1.04709
1.03663
1.02748
1.01968
1.01474
1.00931
1
1.0001
1.10364
1.56224
1.74938
1.74905
1.71776
1.67864
1.62702
1.64613
1.90056
2.04544
1.98389
1.89208
1.80726
1.72737
1.6534
1.58668
1.52614
1.4721
1.42519
1.3833
1.34439
1.31117
1.27366
1.23388
1.20004
1.17068
1.14349
1.12035
1.10052
1.0838
1.06837
1.05422
1.04143
1.02979
1.01876
1.01005
1.00429
0.999009
1
1
1.01488
1.40154
1.67255
1.72815
1.70532
1.65833
1.64953
1.83464
2.04914
2.01943
1.93659
1.84633
1.76774
1.69465
1.6289
1.57173
1.51506
1.46048
1.41433
1.37418
1.33569
1.2976
1.26055
1.22519
1.19763
1.16941
1.14151
1.11735
1.09747
1.08134
1.06646
1.05243
1.03947
1.02724
1.01537
1.00587
1.00064
0.992728
1
1
1.001
1.18998
1.56987
1.69656
1.68538
1.65326
1.75239
2.06091
2.06214
1.98522
1.88896
1.80709
1.73433
1.66892
1.61033
1.5549
1.49869
1.44747
1.40422
1.36618
1.32893
1.29057
1.25474
1.22405
1.19442
1.17363
1.15228
1.12942
1.10822
1.0892
1.07108
1.05448
1.04071
1.02845
1.01639
1.00636
1.00105
0.989349
1
1
1.00004
1.04368
1.43716
1.6499
1.66033
1.69917
1.99169
2.08697
2.03484
1.94493
1.85198
1.77284
1.70908
1.65413
1.5989
1.5388
1.48393
1.43888
1.40127
1.36602
1.32911
1.29069
1.25587
1.22433
1.19485
1.16803
1.14362
1.12109
1.10056
1.08096
1.06132
1.04386
1.03007
1.01813
1.00677
0.9974
0.991859
0.982446
1
1
1
1.00439
1.25976
1.57433
1.635
1.89966
2.13152
2.0819
1.99118
1.9009
1.8172
1.74437
1.68684
1.63746
1.58215
1.52486
1.47565
1.43501
1.39855
1.36246
1.32508
1.28789
1.2542
1.22301
1.19428
1.1663
1.14117
1.11885
1.09852
1.07856
1.0584
1.04078
1.02714
1.01554
1.00444
0.995439
0.989703
0.980247
1
1
1
1.00025
1.08494
1.41567
1.74328
2.03552
2.10253
2.04713
1.96145
1.8791
1.80387
1.73888
1.67858
1.61987
1.57134
1.53115
1.48874
1.44739
1.40763
1.36854
1.33049
1.29489
1.26202
1.23147
1.20227
1.17427
1.14928
1.12719
1.10643
1.08557
1.06472
1.04634
1.03187
1.02007
1.00954
1.00002
0.993522
0.982648
1
1
1
1.00001
1.0121
1.44267
1.9911
2.19787
2.12441
2.03524
1.95459
1.87341
1.79889
1.72976
1.66457
1.60898
1.56337
1.52005
1.47749
1.4354
1.39484
1.35523
1.31744
1.28258
1.24995
1.22003
1.1913
1.16372
1.13899
1.11711
1.0966
1.07596
1.05506
1.03667
1.02241
1.01098
1.0008
0.991551
0.985645
0.975335
)
;

boundaryField
{
    inlet
    {
        type            fixedValue;
        value           uniform 1;
    }
    outlet
    {
        type            inletOutlet;
        inletValue      uniform 1;
        value           nonuniform List<scalar> 
40
(
1.89289
1.8822
1.851
1.81104
1.74152
1.66184
1.58681
1.517
1.45545
1.42234
1.47161
1.54313
1.53451
1.4769
1.41079
1.35193
1.30055
1.25554
1.22015
1.19141
1.1644
1.14225
1.12282
1.10554
1.0944
1.08844
1.08447
1.07749
1.0708
1.06127
1.04619
1.02493
1.00928
0.999223
0.992967
0.989588
0.982675
0.980474
0.982858
0.97554
)
;
    }
    top
    {
        type            symmetryPlane;
    }
    bottom
    {
        type            symmetryPlane;
    }
    step
    {
        type            zeroGradient;
    }
    defaultFaces
    {
        type            empty;
    }
}


// ************************************************************************* //
