/*--------------------------------*- C++ -*----------------------------------*\
  =========                 |
  \\      /  F ield         | OpenFOAM: The Open Source CFD Toolbox
   \\    /   O peration     | Website:  https://openfoam.org
    \\  /    A nd           | Version:  6.0
     \\/     M anipulation  |
\*---------------------------------------------------------------------------*/
FoamFile
{
    version     2.0;
    format      ascii;
    class       volVectorField;
    location    "1.000346";
    object      U;
}
// * * * * * * * * * * * * * * * * * * * * * * * * * * * * * * * * * * * * * //

dimensions      [0 1 -1 0 0 0 0];

internalField   nonuniform List<vector> 
4800
(
(3 -9.27715e-17 0)
(3 2.19902e-16 0)
(3 4.54744e-16 0)
(3 -3.19944e-16 0)
(3 -4.59235e-16 0)
(3 -3.47301e-16 0)
(3 3.19318e-16 0)
(3 9.65751e-17 0)
(3 4.55893e-16 0)
(3 2.87389e-16 0)
(3 -6.32717e-17 0)
(3 -3.4332e-16 0)
(3 -7.82705e-16 0)
(3 -6.78931e-16 0)
(3 2.79482e-16 0)
(3 1.3578e-15 0)
(3 1.28455e-15 0)
(3 1.03446e-15 0)
(3 -6.22136e-17 0)
(3 -1.20797e-16 0)
(3 -1.73097e-16 0)
(3 -3.19291e-16 0)
(2.09155 0.00275305 0)
(0.818844 0.00376334 0)
(0.690663 0.0112954 0)
(0.636615 0.0101548 0)
(0.584048 0.00484591 0)
(0.543741 -0.000635458 0)
(0.511827 -0.00662343 0)
(0.477515 -0.00980351 0)
(0.42985 -0.00392541 0)
(0.371322 0.0112618 0)
(0.330099 0.0207338 0)
(0.295326 0.00846887 0)
(0.263052 -0.00939169 0)
(0.219068 -0.0182779 0)
(0.164808 -0.0341367 0)
(0.0776468 -0.0592441 0)
(0.0192741 -0.0585325 0)
(0.0189851 -0.0619941 0)
(3 -1.50025e-16 0)
(3 4.82934e-17 0)
(3 2.19421e-16 0)
(3 -1.8478e-16 0)
(3 -5.02884e-16 0)
(3 -2.22351e-16 0)
(3 6.97002e-16 0)
(3 2.43325e-16 0)
(3 4.83376e-16 0)
(3 -2.51824e-16 0)
(3 -1.39404e-16 0)
(3 -1.02754e-16 0)
(3 -5.64739e-16 0)
(3 -8.9949e-16 0)
(3 -1.0264e-16 0)
(3 1.31012e-15 0)
(3 1.47768e-15 0)
(3 1.24317e-15 0)
(3 1.12018e-15 0)
(3 3.20569e-16 0)
(3 -3.64508e-16 0)
(3 6.78512e-16 0)
(2.09103 0.0114738 0)
(0.811877 0.0147937 0)
(0.684844 0.0251532 0)
(0.633263 0.0254665 0)
(0.582311 0.0177232 0)
(0.542453 0.00881942 0)
(0.508623 -0.00076884 0)
(0.475279 -0.0160849 0)
(0.433093 -0.0129635 0)
(0.38542 0.0141454 0)
(0.336198 0.0505215 0)
(0.299205 0.0765548 0)
(0.261742 0.0736807 0)
(0.20164 0.0295606 0)
(0.138315 -0.054056 0)
(0.0847675 -0.0659626 0)
(0.0493973 0.0116691 0)
(0.022959 0.0767186 0)
(3 4.85626e-17 0)
(3 -2.36406e-16 0)
(3 -6.45906e-16 0)
(3 -7.9245e-16 0)
(3 -9.35356e-17 0)
(3 2.90001e-16 0)
(3 9.55722e-16 0)
(3 9.5325e-16 0)
(3 -6.32174e-17 0)
(3 -6.93427e-16 0)
(3 1.35903e-16 0)
(3 3.68645e-16 0)
(3 9.98174e-17 0)
(3 -2.44215e-16 0)
(3 -7.30305e-16 0)
(3 2.52155e-16 0)
(3 3.12104e-16 0)
(3 3.96856e-17 0)
(3 6.88137e-16 0)
(3 5.78286e-16 0)
(3 9.64677e-16 0)
(3 9.34025e-16 0)
(2.09585 0.0231255 0)
(0.803539 0.0243781 0)
(0.677379 0.0392381 0)
(0.62742 0.0344184 0)
(0.579424 0.0282821 0)
(0.539227 0.0198703 0)
(0.504253 0.0187925 0)
(0.468374 0.0149591 0)
(0.435805 1.31042e-05 0)
(0.394849 0.0117879 0)
(0.347105 0.0407568 0)
(0.297364 0.0591506 0)
(0.248311 0.0394173 0)
(0.185372 0.0162008 0)
(0.128656 0.0101444 0)
(0.103892 0.0224042 0)
(0.0807709 0.0584096 0)
(0.0273113 0.0876899 0)
(3 1.50731e-16 0)
(3 -4.55317e-17 0)
(3 -3.603e-16 0)
(3 -5.34628e-16 0)
(3 -5.6596e-16 0)
(3 -4.04662e-16 0)
(3 2.67481e-16 0)
(3 9.6972e-16 0)
(3 1.9733e-16 0)
(3 2.45138e-16 0)
(3 4.33015e-16 0)
(3 3.11191e-16 0)
(3 -3.53209e-16 0)
(3 -4.95526e-16 0)
(3 3.46754e-17 0)
(3 -1.36979e-16 0)
(3 2.13021e-16 0)
(3 -1.25769e-15 0)
(3 -2.898e-17 0)
(3 7.46262e-16 0)
(3 1.44632e-15 0)
(3 2.304e-16 0)
(2.1152 0.0381397 0)
(0.80267 0.0361423 0)
(0.674561 0.0551566 0)
(0.625295 0.0465689 0)
(0.579482 0.0365293 0)
(0.539775 0.0312434 0)
(0.503864 0.0340211 0)
(0.465137 0.0404086 0)
(0.430256 0.04205 0)
(0.397394 0.024759 0)
(0.35325 0.0279145 0)
(0.303477 0.037518 0)
(0.237676 0.040605 0)
(0.184784 0.0337937 0)
(0.135973 0.0941863 0)
(0.10906 0.128821 0)
(0.079894 0.103335 0)
(0.0275374 0.0530495 0)
(3 -5.1812e-17 0)
(3 -1.33042e-16 0)
(3 -3.72529e-16 0)
(3 -7.35778e-16 0)
(3 -7.30958e-16 0)
(3 -6.58486e-16 0)
(3 -4.97224e-16 0)
(3 -2.46329e-16 0)
(3 6.14933e-16 0)
(3 8.67498e-16 0)
(3 5.76055e-16 0)
(3 7.42346e-17 0)
(3 -4.02719e-17 0)
(3 -1.65365e-16 0)
(3 3.35083e-16 0)
(3 1.54196e-16 0)
(3 -8.17688e-16 0)
(3 -1.2776e-15 0)
(3 -2.00244e-16 0)
(3 1.029e-15 0)
(3 1.28114e-16 0)
(3 -1.93546e-16 0)
(2.14341 0.0458976 0)
(0.807703 0.0433603 0)
(0.676102 0.0753479 0)
(0.627653 0.0668927 0)
(0.581503 0.0524019 0)
(0.540382 0.0381311 0)
(0.505652 0.0359593 0)
(0.46572 0.0481866 0)
(0.423363 0.0586975 0)
(0.388854 0.0454927 0)
(0.350281 0.0377376 0)
(0.300676 0.0273229 0)
(0.253373 0.0258599 0)
(0.205263 0.0735581 0)
(0.168237 0.1245 0)
(0.118543 0.157617 0)
(0.0564156 0.117071 0)
(0.0237868 0.0812091 0)
(3 2.21152e-16 0)
(3 -1.57576e-17 0)
(3 -3.06983e-16 0)
(3 -8.24891e-16 0)
(3 -3.11825e-16 0)
(3 -4.21805e-16 0)
(3 -6.81077e-16 0)
(3 -2.63758e-16 0)
(3 5.20933e-16 0)
(3 9.57217e-16 0)
(3 8.75375e-16 0)
(3 3.48176e-16 0)
(3 7.14253e-16 0)
(3 2.98678e-16 0)
(3 -6.52421e-17 0)
(3 5.32408e-16 0)
(3 -8.85021e-16 0)
(3 -7.42663e-16 0)
(3 -1.12751e-15 0)
(3 -3.45633e-16 0)
(3 2.17429e-16 0)
(3 -1.03999e-15 0)
(2.16642 0.0514391 0)
(0.811099 0.0516445 0)
(0.673696 0.0936186 0)
(0.622873 0.0914073 0)
(0.577743 0.068819 0)
(0.539421 0.0457409 0)
(0.504067 0.0311702 0)
(0.470465 0.037123 0)
(0.430608 0.0636393 0)
(0.386704 0.0797584 0)
(0.345901 0.0696469 0)
(0.298246 0.0775479 0)
(0.254243 0.101805 0)
(0.214955 0.100344 0)
(0.171303 0.0904571 0)
(0.11921 0.0675217 0)
(0.0495474 0.0460364 0)
(0.0236835 0.0345099 0)
(3 -1.67743e-17 0)
(3 5.54135e-17 0)
(3 1.6508e-16 0)
(3 -1.34378e-17 0)
(3 5.71982e-16 0)
(3 2.75506e-16 0)
(3 1.13573e-16 0)
(3 -3.25876e-16 0)
(3 3.46313e-16 0)
(3 7.33036e-16 0)
(3 1.07632e-15 0)
(3 4.05107e-16 0)
(3 6.88021e-16 0)
(3 6.09559e-16 0)
(3 1.12299e-16 0)
(3 -9.86363e-17 0)
(3 -2.23691e-16 0)
(3 -7.75778e-16 0)
(3 -9.74992e-16 0)
(3 -1.0332e-15 0)
(3 -5.98416e-16 0)
(3 -1.30076e-16 0)
(2.18762 0.0600187 0)
(0.813912 0.0639354 0)
(0.672339 0.106138 0)
(0.62096 0.104158 0)
(0.575128 0.086083 0)
(0.538263 0.0588794 0)
(0.505778 0.0454587 0)
(0.476071 0.0568374 0)
(0.437824 0.0787694 0)
(0.386871 0.10414 0)
(0.349496 0.116465 0)
(0.299447 0.132463 0)
(0.259597 0.136837 0)
(0.206522 0.141382 0)
(0.160045 0.0761751 0)
(0.113936 -0.00953085 0)
(0.0589337 0.00072153 0)
(0.0253158 0.0360844 0)
(3 -1.66824e-16 0)
(3 9.17912e-17 0)
(3 2.20437e-16 0)
(3 3.64532e-16 0)
(3 1.53942e-16 0)
(3 -2.77648e-16 0)
(3 7.23106e-17 0)
(3 -2.49772e-16 0)
(3 6.3071e-16 0)
(3 4.62966e-16 0)
(3 -2.86758e-16 0)
(3 -6.13758e-16 0)
(3 -4.10222e-16 0)
(3 4.70779e-16 0)
(3 1.34356e-15 0)
(3 5.67429e-16 0)
(3 -6.03817e-16 0)
(3 -7.84487e-16 0)
(3 -4.51355e-16 0)
(3 -6.37074e-16 0)
(3 -3.38306e-16 0)
(3 1.13011e-15 0)
(2.21618 0.0716379 0)
(0.81649 0.0813758 0)
(0.667214 0.112437 0)
(0.6177 0.105556 0)
(0.573741 0.0897867 0)
(0.537089 0.078234 0)
(0.508423 0.0810302 0)
(0.477823 0.0798121 0)
(0.44139 0.0889628 0)
(0.393104 0.111845 0)
(0.348827 0.128178 0)
(0.314931 0.148059 0)
(0.257729 0.171043 0)
(0.198067 0.142289 0)
(0.133911 0.084065 0)
(0.104792 0.0330336 0)
(0.0775554 0.0160129 0)
(0.0276276 0.0273491 0)
(3 3.73717e-16 0)
(3 6.31836e-16 0)
(3 1.012e-16 0)
(3 9.04094e-16 0)
(3 4.97808e-16 0)
(3 -2.04878e-17 0)
(3 3.93651e-16 0)
(3 3.84927e-16 0)
(3 2.34968e-16 0)
(3 -3.50069e-16 0)
(3 -9.78264e-17 0)
(3 5.07988e-16 0)
(3 -2.61298e-16 0)
(3 6.47152e-16 0)
(3 7.2621e-16 0)
(3 6.93956e-17 0)
(3 -6.54509e-16 0)
(3 -4.30091e-16 0)
(3 -4.95045e-16 0)
(3 -4.90216e-16 0)
(3 -3.25365e-17 0)
(3 8.9355e-16 0)
(2.25704 0.0836822 0)
(0.820412 0.101237 0)
(0.662291 0.119661 0)
(0.61667 0.105158 0)
(0.57769 0.0900421 0)
(0.54502 0.0935878 0)
(0.512708 0.113167 0)
(0.477507 0.121774 0)
(0.438704 0.119392 0)
(0.396186 0.113254 0)
(0.353816 0.127377 0)
(0.314817 0.122677 0)
(0.271042 0.115366 0)
(0.185294 0.145394 0)
(0.122692 0.147701 0)
(0.105951 0.131746 0)
(0.0814818 0.125159 0)
(0.0280974 0.116022 0)
(3 -1.32603e-17 0)
(3 -1.52236e-16 0)
(3 -5.01675e-16 0)
(3 -1.76992e-16 0)
(3 1.76748e-16 0)
(3 4.80866e-16 0)
(3 5.20937e-16 0)
(3 4.40962e-16 0)
(3 -3.20832e-16 0)
(3 -9.79481e-16 0)
(3 -4.7755e-16 0)
(3 3.03438e-17 0)
(3 -2.92267e-16 0)
(3 7.77317e-16 0)
(3 -1.91389e-16 0)
(3 -5.95719e-16 0)
(3 -1.9354e-16 0)
(3 -4.35634e-16 0)
(3 -3.27098e-16 0)
(3 -2.51278e-16 0)
(3 -6.37777e-17 0)
(3 -2.79972e-16 0)
(2.29844 0.0894269 0)
(0.82254 0.113501 0)
(0.657119 0.131151 0)
(0.61712 0.112238 0)
(0.585532 0.0997101 0)
(0.557318 0.104271 0)
(0.523818 0.11226 0)
(0.477959 0.124057 0)
(0.4354 0.131648 0)
(0.394644 0.130173 0)
(0.351735 0.127286 0)
(0.305976 0.115026 0)
(0.25971 0.0729644 0)
(0.205181 0.0869924 0)
(0.127399 0.166817 0)
(0.101102 0.210734 0)
(0.0745702 0.167729 0)
(0.0279799 0.116097 0)
(3 -1.58835e-16 0)
(3 -3.7068e-16 0)
(3 2.44273e-16 0)
(3 -1.64021e-16 0)
(3 -2.87313e-16 0)
(3 3.43344e-16 0)
(3 6.25294e-16 0)
(3 3.66557e-17 0)
(3 -4.91772e-16 0)
(3 -4.54522e-16 0)
(3 -1.15634e-15 0)
(3 -1.54496e-15 0)
(3 -9.87665e-16 0)
(3 -2.02419e-16 0)
(3 2.68485e-16 0)
(3 3.71041e-16 0)
(3 3.88408e-16 0)
(3 -9.04803e-16 0)
(3 -4.19857e-16 0)
(3 5.38266e-16 0)
(3 4.13842e-16 0)
(3 -1.08054e-18 0)
(2.33401 0.0923584 0)
(0.823334 0.121579 0)
(0.65237 0.147206 0)
(0.621718 0.134575 0)
(0.59451 0.120722 0)
(0.563963 0.106635 0)
(0.527739 0.10116 0)
(0.481719 0.108775 0)
(0.435263 0.128023 0)
(0.386856 0.137014 0)
(0.346222 0.142566 0)
(0.296981 0.111732 0)
(0.2578 0.0782568 0)
(0.212771 0.072485 0)
(0.164632 0.137861 0)
(0.122181 0.240359 0)
(0.0593962 0.26543 0)
(0.0243435 0.24526 0)
(3 1.63422e-16 0)
(3 1.84601e-16 0)
(3 9.06728e-16 0)
(3 2.75774e-16 0)
(3 2.41343e-16 0)
(3 1.05352e-15 0)
(3 8.66714e-16 0)
(3 -3.1772e-16 0)
(3 -5.36776e-16 0)
(3 1.02869e-16 0)
(3 -5.31692e-16 0)
(3 -3.70853e-16 0)
(3 1.99116e-16 0)
(3 8.56581e-17 0)
(3 4.71807e-16 0)
(3 5.26955e-16 0)
(3 -6.84686e-17 0)
(3 -2.2366e-16 0)
(3 -3.41798e-16 0)
(3 3.35598e-16 0)
(3 6.46555e-16 0)
(3 2.52343e-16 0)
(2.36653 0.0959073 0)
(0.829712 0.134235 0)
(0.656092 0.167506 0)
(0.6269 0.160527 0)
(0.596248 0.145575 0)
(0.564583 0.116943 0)
(0.525266 0.0910015 0)
(0.483371 0.0844304 0)
(0.443911 0.108518 0)
(0.393328 0.144053 0)
(0.344586 0.167261 0)
(0.278688 0.131014 0)
(0.254446 0.0858583 0)
(0.224242 0.0704474 0)
(0.206226 0.112259 0)
(0.153022 0.211294 0)
(0.0868344 0.292982 0)
(0.0275689 0.331964 0)
(3 8.22997e-18 0)
(3 9.47029e-17 0)
(3 1.30899e-16 0)
(3 -4.61913e-16 0)
(3 2.57175e-16 0)
(3 7.36368e-16 0)
(3 2.13906e-16 0)
(3 -4.32098e-16 0)
(3 -1.02381e-15 0)
(3 -7.92958e-16 0)
(3 4.24562e-17 0)
(3 9.18708e-16 0)
(3 1.00467e-15 0)
(3 4.7487e-16 0)
(3 3.41698e-16 0)
(3 -5.30528e-17 0)
(3 -1.6098e-16 0)
(3 5.68868e-16 0)
(3 4.88919e-16 0)
(3 1.14526e-15 0)
(3 1.49026e-15 0)
(3 1.2266e-16 0)
(2.40047 0.103676 0)
(0.842315 0.153685 0)
(0.661704 0.185555 0)
(0.634534 0.172911 0)
(0.600044 0.153834 0)
(0.561873 0.127295 0)
(0.521821 0.0963806 0)
(0.486277 0.10152 0)
(0.449755 0.135485 0)
(0.40128 0.159618 0)
(0.343523 0.17111 0)
(0.263284 0.181076 0)
(0.248671 0.196627 0)
(0.221144 0.179866 0)
(0.215616 0.171557 0)
(0.187047 0.183915 0)
(0.0955864 0.200653 0)
(0.0277803 0.157132 0)
(3 6.58287e-17 0)
(3 1.08819e-16 0)
(3 -3.64541e-16 0)
(3 3.84383e-18 0)
(3 -5.76341e-16 0)
(3 4.57528e-17 0)
(3 -4.11621e-16 0)
(3 1.50841e-16 0)
(3 -6.15024e-16 0)
(3 -9.9176e-16 0)
(3 8.41307e-17 0)
(3 8.73961e-16 0)
(3 4.5521e-16 0)
(3 -1.13948e-17 0)
(3 -6.75364e-16 0)
(3 -1.0925e-15 0)
(3 -6.78349e-16 0)
(3 3.14678e-16 0)
(3 1.02712e-15 0)
(3 1.14756e-15 0)
(3 1.44255e-15 0)
(3 5.45941e-16 0)
(2.44208 0.119838 0)
(0.855127 0.181903 0)
(0.670975 0.196582 0)
(0.640079 0.174719 0)
(0.60478 0.150381 0)
(0.561609 0.125256 0)
(0.523935 0.125333 0)
(0.496332 0.156759 0)
(0.452876 0.184392 0)
(0.399562 0.190752 0)
(0.34811 0.180463 0)
(0.289543 0.236919 0)
(0.266947 0.313225 0)
(0.217362 0.336 0)
(0.188049 0.290427 0)
(0.173861 0.161297 0)
(0.085131 0.0345359 0)
(0.0302441 -0.0353371 0)
(3 -1.8422e-16 0)
(3 1.82767e-17 0)
(3 -5.77018e-16 0)
(3 -5.10342e-16 0)
(3 -6.02746e-17 0)
(3 6.75472e-16 0)
(3 4.5046e-16 0)
(3 7.10598e-16 0)
(3 6.12973e-16 0)
(3 8.06344e-16 0)
(3 1.72885e-16 0)
(3 5.68872e-16 0)
(3 4.44076e-16 0)
(3 -3.44431e-16 0)
(3 -1.35356e-15 0)
(3 -1.60982e-15 0)
(3 -1.19306e-15 0)
(3 -8.38958e-17 0)
(3 1.87643e-16 0)
(3 5.19197e-16 0)
(3 4.30431e-16 0)
(3 7.60619e-16 0)
(2.49882 0.130857 0)
(0.868911 0.211653 0)
(0.676033 0.202918 0)
(0.645157 0.170331 0)
(0.60761 0.140565 0)
(0.566007 0.128769 0)
(0.540383 0.162431 0)
(0.503651 0.201209 0)
(0.451015 0.227227 0)
(0.391729 0.224185 0)
(0.354874 0.216814 0)
(0.310795 0.25928 0)
(0.293543 0.331201 0)
(0.221583 0.390329 0)
(0.148662 0.339261 0)
(0.0923144 0.152959 0)
(0.047882 -0.0155903 0)
(0.0286949 -0.0716616 0)
(3 -1.75072e-16 0)
(3 -3.94323e-17 0)
(3 -2.622e-16 0)
(3 1.44074e-16 0)
(3 1.39728e-15 0)
(3 9.20634e-16 0)
(3 5.97766e-16 0)
(3 8.6099e-16 0)
(3 1.41391e-15 0)
(3 8.94293e-16 0)
(3 2.68125e-16 0)
(3 2.07749e-16 0)
(3 -3.80706e-16 0)
(3 -5.73713e-16 0)
(3 -8.19952e-16 0)
(3 -9.65358e-16 0)
(3 -1.88854e-16 0)
(3 -5.56406e-16 0)
(3 2.16092e-18 0)
(3 7.91023e-17 0)
(3 4.93152e-17 0)
(3 -4.07558e-17 0)
(2.56342 0.136159 0)
(0.884996 0.227096 0)
(0.67869 0.210874 0)
(0.649564 0.165724 0)
(0.613155 0.137761 0)
(0.58298 0.152476 0)
(0.551779 0.19359 0)
(0.507288 0.210057 0)
(0.452556 0.224556 0)
(0.386209 0.226274 0)
(0.350071 0.252349 0)
(0.326664 0.274746 0)
(0.317873 0.316659 0)
(0.228702 0.339554 0)
(0.110997 0.292242 0)
(0.0508346 0.205474 0)
(0.0398077 0.131353 0)
(0.0318488 0.130162 0)
(3 8.26686e-17 0)
(3 -1.07466e-16 0)
(3 -1.92257e-16 0)
(3 4.89437e-16 0)
(3 1.02089e-15 0)
(3 1.40754e-16 0)
(3 2.86708e-16 0)
(3 5.95648e-16 0)
(3 8.68618e-16 0)
(3 -2.92263e-16 0)
(3 -4.06798e-16 0)
(3 -9.33898e-17 0)
(3 -7.41699e-16 0)
(3 -5.57135e-16 0)
(3 -9.26091e-16 0)
(3 -9.22415e-16 0)
(3 1.12983e-16 0)
(3 1.06336e-16 0)
(3 2.38746e-16 0)
(3 -7.35557e-16 0)
(3 -1.33879e-15 0)
(3 -1.17959e-15 0)
(2.63337 0.138068 0)
(0.908706 0.229525 0)
(0.681419 0.209472 0)
(0.652993 0.172265 0)
(0.624392 0.158249 0)
(0.601265 0.186186 0)
(0.558289 0.202352 0)
(0.508437 0.187692 0)
(0.450623 0.179525 0)
(0.391675 0.221744 0)
(0.363626 0.26751 0)
(0.326207 0.275902 0)
(0.310164 0.225654 0)
(0.231949 0.172435 0)
(0.120828 0.208538 0)
(0.0640232 0.313023 0)
(0.0439808 0.400161 0)
(0.0372575 0.398747 0)
(3 6.45755e-17 0)
(3 1.58801e-17 0)
(3 2.14876e-16 0)
(3 2.01002e-16 0)
(3 -9.35721e-17 0)
(3 -1.62646e-16 0)
(3 -3.12621e-16 0)
(3 3.31524e-16 0)
(3 6.46315e-16 0)
(3 -2.2114e-16 0)
(3 -8.78546e-16 0)
(3 -7.24628e-16 0)
(3 -4.58011e-16 0)
(3 -5.61958e-16 0)
(3 -5.11456e-16 0)
(3 -2.04406e-16 0)
(3 -1.38816e-16 0)
(3 3.06146e-16 0)
(3 5.83705e-17 0)
(3 2.86082e-17 0)
(3 -7.43771e-16 0)
(3 -1.02805e-15 0)
(2.70429 0.135263 0)
(0.934223 0.233924 0)
(0.690404 0.21539 0)
(0.667704 0.196272 0)
(0.641228 0.20075 0)
(0.608357 0.198638 0)
(0.556138 0.197428 0)
(0.493975 0.167961 0)
(0.452197 0.159834 0)
(0.415148 0.200804 0)
(0.378493 0.265738 0)
(0.326265 0.283981 0)
(0.271278 0.20231 0)
(0.227897 0.132819 0)
(0.162282 0.196035 0)
(0.128521 0.366039 0)
(0.0925463 0.492204 0)
(0.0455066 0.544336 0)
(3 -1.64263e-16 0)
(3 2.2755e-16 0)
(3 8.18988e-16 0)
(3 2.48472e-16 0)
(3 -3.89055e-16 0)
(3 3.82172e-16 0)
(3 1.06862e-16 0)
(3 1.67356e-16 0)
(3 7.3829e-17 0)
(3 8.27547e-16 0)
(3 2.05355e-16 0)
(3 -4.18072e-16 0)
(3 -1.79902e-16 0)
(3 3.14453e-16 0)
(3 4.78108e-16 0)
(3 4.72328e-16 0)
(3 4.50502e-18 0)
(3 -9.86668e-17 0)
(3 1.92865e-16 0)
(3 9.91001e-16 0)
(3 6.20524e-16 0)
(3 7.79169e-17 0)
(2.78045 0.124597 0)
(0.959448 0.244066 0)
(0.705533 0.236598 0)
(0.682047 0.231241 0)
(0.643785 0.226446 0)
(0.608114 0.198842 0)
(0.548943 0.172599 0)
(0.485044 0.172874 0)
(0.452512 0.196333 0)
(0.432511 0.250728 0)
(0.388144 0.284488 0)
(0.321494 0.279981 0)
(0.249218 0.218513 0)
(0.224315 0.172863 0)
(0.188146 0.210747 0)
(0.162299 0.319712 0)
(0.122184 0.407355 0)
(0.0542882 0.424915 0)
(3 -1.60297e-16 0)
(3 -9.47063e-17 0)
(3 -2.68385e-17 0)
(3 -1.52163e-16 0)
(3 3.19554e-16 0)
(3 4.58661e-16 0)
(3 2.76912e-16 0)
(3 -1.21056e-16 0)
(3 -1.09134e-15 0)
(3 2.29886e-16 0)
(3 9.40929e-16 0)
(3 4.78604e-16 0)
(3 1.08235e-15 0)
(3 1.22381e-15 0)
(3 1.89511e-16 0)
(3 -1.34024e-15 0)
(3 -1.12557e-15 0)
(3 -6.06306e-16 0)
(3 -1.56308e-16 0)
(3 9.11898e-16 0)
(3 1.37286e-15 0)
(3 7.9816e-16 0)
(2.84274 0.112349 0)
(0.982008 0.264431 0)
(0.715738 0.257904 0)
(0.689487 0.246966 0)
(0.64452 0.238892 0)
(0.597612 0.206363 0)
(0.545316 0.171086 0)
(0.495948 0.190748 0)
(0.469615 0.271191 0)
(0.435545 0.302545 0)
(0.389539 0.301494 0)
(0.305369 0.267055 0)
(0.233599 0.224089 0)
(0.235883 0.208449 0)
(0.210162 0.237285 0)
(0.208603 0.279807 0)
(0.132738 0.310261 0)
(0.0544665 0.222397 0)
(3 1.47255e-16 0)
(3 -4.36578e-17 0)
(3 -4.45068e-16 0)
(3 -8.91945e-17 0)
(3 1.05598e-16 0)
(3 -4.4923e-16 0)
(3 8.46217e-17 0)
(3 -2.57869e-16 0)
(3 -4.80641e-16 0)
(3 1.7653e-16 0)
(3 7.38039e-16 0)
(3 7.11693e-16 0)
(3 9.67217e-16 0)
(3 1.32549e-15 0)
(3 1.02141e-16 0)
(3 -2.0748e-15 0)
(3 -1.57797e-15 0)
(3 -1.14285e-15 0)
(3 -2.5439e-16 0)
(3 1.3475e-15 0)
(3 9.12205e-16 0)
(3 6.56518e-17 0)
(2.89839 0.091155 0)
(1.00187 0.28205 0)
(0.718609 0.260479 0)
(0.696662 0.242132 0)
(0.649471 0.233901 0)
(0.587562 0.208545 0)
(0.544146 0.204034 0)
(0.52087 0.261233 0)
(0.481487 0.321563 0)
(0.431265 0.332948 0)
(0.377886 0.285911 0)
(0.307068 0.263338 0)
(0.250604 0.33344 0)
(0.244732 0.391207 0)
(0.205344 0.377814 0)
(0.206135 0.313471 0)
(0.0980725 0.187994 0)
(0.0466939 0.0768225 0)
(3 2.70161e-16 0)
(3 5.5522e-17 0)
(3 2.03532e-16 0)
(3 7.24535e-16 0)
(3 -5.98048e-16 0)
(3 -4.99767e-16 0)
(3 3.02455e-16 0)
(3 4.81272e-16 0)
(3 4.03321e-16 0)
(3 7.01893e-16 0)
(3 8.38694e-16 0)
(3 9.23929e-16 0)
(3 1.2739e-15 0)
(3 2.21095e-15 0)
(3 7.62522e-16 0)
(3 -9.16909e-16 0)
(3 -1.17428e-15 0)
(3 -1.13369e-15 0)
(3 -5.13189e-16 0)
(3 1.33629e-15 0)
(3 8.71089e-16 0)
(3 -9.31249e-16 0)
(2.942 0.0694105 0)
(1.02554 0.290209 0)
(0.722785 0.261914 0)
(0.699704 0.234383 0)
(0.646019 0.220871 0)
(0.585208 0.221801 0)
(0.557734 0.261119 0)
(0.532799 0.305079 0)
(0.486909 0.330429 0)
(0.426121 0.334906 0)
(0.361919 0.270857 0)
(0.317126 0.273241 0)
(0.292632 0.368913 0)
(0.271996 0.468381 0)
(0.19248 0.494783 0)
(0.153699 0.37919 0)
(0.0729977 0.212489 0)
(0.0445484 0.123751 0)
(3 -2.20674e-16 0)
(3 -9.65984e-17 0)
(3 5.61631e-16 0)
(3 4.85677e-17 0)
(3 -8.30837e-16 0)
(3 -9.02303e-16 0)
(3 -2.79591e-16 0)
(3 9.66024e-16 0)
(3 1.12613e-15 0)
(3 3.22182e-16 0)
(3 9.82255e-16 0)
(3 1.44971e-15 0)
(3 2.32214e-15 0)
(3 2.20925e-15 0)
(3 9.63528e-16 0)
(3 -4.04769e-16 0)
(3 -1.29235e-15 0)
(3 -8.29835e-16 0)
(3 -6.35971e-16 0)
(3 3.70602e-16 0)
(3 1.10931e-15 0)
(3 -8.44352e-17 0)
(2.97618 0.0503084 0)
(1.05481 0.299556 0)
(0.729287 0.270654 0)
(0.698852 0.236609 0)
(0.644879 0.218831 0)
(0.597497 0.253423 0)
(0.569144 0.300795 0)
(0.537021 0.312739 0)
(0.489971 0.327845 0)
(0.414906 0.306227 0)
(0.352214 0.283569 0)
(0.339879 0.30753 0)
(0.332032 0.403072 0)
(0.28785 0.50905 0)
(0.19396 0.526617 0)
(0.0885959 0.447437 0)
(0.024326 0.243296 0)
(0.0489816 0.153384 0)
(3 4.51368e-17 0)
(3 4.21306e-16 0)
(3 5.97742e-16 0)
(3 -5.30469e-17 0)
(3 -5.6552e-16 0)
(3 -1.7884e-18 0)
(3 4.19953e-16 0)
(3 3.87613e-16 0)
(3 4.12374e-16 0)
(3 4.1808e-16 0)
(3 5.35169e-16 0)
(3 1.3985e-15 0)
(3 1.88019e-15 0)
(3 1.42056e-15 0)
(3 1.66697e-16 0)
(3 -8.46934e-16 0)
(3 -1.39988e-15 0)
(3 -1.11831e-15 0)
(3 -8.44028e-16 0)
(3 -8.15494e-16 0)
(3 9.47287e-17 0)
(3 1.96347e-16 0)
(2.99934 0.0249471 0)
(1.09224 0.308344 0)
(0.732556 0.280198 0)
(0.699926 0.249489 0)
(0.649782 0.244642 0)
(0.612134 0.273969 0)
(0.57482 0.304658 0)
(0.538936 0.306382 0)
(0.484449 0.283496 0)
(0.41116 0.273244 0)
(0.368564 0.315764 0)
(0.357227 0.374113 0)
(0.362122 0.38962 0)
(0.310266 0.412538 0)
(0.196616 0.437485 0)
(0.0651242 0.439509 0)
(0.0144211 0.494423 0)
(0.0544561 0.502641 0)
(3 6.83632e-17 0)
(3 1.31526e-16 0)
(3 -1.4727e-16 0)
(3 3.39579e-16 0)
(3 1.53258e-16 0)
(3 -3.91122e-17 0)
(3 7.49265e-16 0)
(3 -2.43778e-17 0)
(3 2.98948e-16 0)
(3 1.18427e-16 0)
(3 -5.26079e-16 0)
(3 7.27106e-16 0)
(3 8.25344e-16 0)
(3 -3.05603e-16 0)
(3 -1.9301e-16 0)
(3 -7.59742e-16 0)
(3 -1.16341e-15 0)
(3 -8.07044e-16 0)
(3 -1.65403e-16 0)
(3 -7.31881e-16 0)
(3 -9.20545e-16 0)
(3 -5.70369e-16 0)
(3.00384 0.00415746 0)
(1.13922 0.324043 0)
(0.73679 0.287934 0)
(0.697415 0.263872 0)
(0.650163 0.269133 0)
(0.61612 0.292185 0)
(0.575973 0.311482 0)
(0.529887 0.305123 0)
(0.470936 0.257693 0)
(0.421463 0.273324 0)
(0.403912 0.356866 0)
(0.36856 0.409997 0)
(0.354149 0.383663 0)
(0.28668 0.275799 0)
(0.219899 0.270084 0)
(0.12358 0.446605 0)
(0.0717239 0.605889 0)
(0.0686764 0.69714 0)
(3 1.03437e-16 0)
(3 1.49629e-17 0)
(3 -5.43096e-16 0)
(3 1.26683e-16 0)
(3 6.36226e-16 0)
(3 1.5418e-16 0)
(3 -1.01767e-17 0)
(3 -5.19563e-17 0)
(3 6.80592e-16 0)
(3 6.12705e-16 0)
(3 1.92289e-16 0)
(3 -2.64863e-16 0)
(3 -4.10465e-16 0)
(3 -7.15873e-16 0)
(3 -1.6772e-16 0)
(3 -5.24252e-16 0)
(3 -3.50352e-16 0)
(3 -1.89464e-16 0)
(3 -1.75023e-16 0)
(3 2.37586e-17 0)
(3 -7.694e-17 0)
(3 8.78148e-17 0)
(3.0002 0.00012746 0)
(1.20369 0.3384 0)
(0.740226 0.297182 0)
(0.696914 0.276167 0)
(0.655779 0.286576 0)
(0.623813 0.309759 0)
(0.577024 0.331126 0)
(0.514421 0.301923 0)
(0.465695 0.275164 0)
(0.437306 0.296291 0)
(0.434904 0.384533 0)
(0.379334 0.423807 0)
(0.320337 0.375067 0)
(0.27321 0.272626 0)
(0.235669 0.273419 0)
(0.194655 0.349901 0)
(0.127156 0.570729 0)
(0.0778639 0.653276 0)
(3 3.45118e-17 0)
(3 -1.04111e-18 0)
(3 -2.45297e-16 0)
(3 3.11507e-16 0)
(3 1.21476e-15 0)
(3 8.53613e-16 0)
(3 2.62596e-16 0)
(3 1.28173e-16 0)
(3 6.44267e-17 0)
(3 -2.07174e-16 0)
(3 -1.18022e-16 0)
(3 -1.2087e-15 0)
(3 -9.21798e-16 0)
(3 -1.78175e-16 0)
(3 8.29408e-16 0)
(3 8.55221e-16 0)
(3 5.85744e-17 0)
(3 -8.59154e-16 0)
(3 -3.51567e-16 0)
(3 4.68318e-16 0)
(3 7.75353e-16 0)
(3 3.74349e-16 0)
(3 6.0141e-07 0)
(1.28573 0.349862 0)
(0.748151 0.306627 0)
(0.698573 0.291585 0)
(0.661363 0.312412 0)
(0.624726 0.321527 0)
(0.57762 0.307291 0)
(0.506112 0.299169 0)
(0.472859 0.314929 0)
(0.461387 0.381833 0)
(0.455021 0.412922 0)
(0.382565 0.439758 0)
(0.279624 0.374739 0)
(0.26162 0.279871 0)
(0.25469 0.29574 0)
(0.225647 0.34585 0)
(0.171879 0.374022 0)
(0.077206 0.354708 0)
(3 -3.33907e-16 0)
(3 -6.83065e-16 0)
(3 -3.59703e-17 0)
(3 -5.48891e-16 0)
(3 5.42697e-16 0)
(3 6.66791e-16 0)
(3 5.06745e-16 0)
(3 -1.77568e-16 0)
(3 -3.96572e-16 0)
(3 -1.73596e-16 0)
(3 -3.63127e-16 0)
(3 -7.2632e-16 0)
(3 -2.30778e-16 0)
(3 2.41837e-16 0)
(3 8.51683e-16 0)
(3 6.39384e-16 0)
(3 3.02582e-16 0)
(3 -1.87507e-16 0)
(3 -7.89476e-17 0)
(3 -5.09389e-17 0)
(3 7.16733e-17 0)
(3 -5.35933e-16 0)
(3 1.871e-10 0)
(1.38088 0.352656 0)
(0.757127 0.317556 0)
(0.703437 0.319353 0)
(0.65932 0.335606 0)
(0.619305 0.32339 0)
(0.565938 0.284851 0)
(0.515219 0.29266 0)
(0.503404 0.398346 0)
(0.468491 0.45348 0)
(0.455702 0.433863 0)
(0.381996 0.392414 0)
(0.276419 0.396925 0)
(0.265145 0.471778 0)
(0.257982 0.472692 0)
(0.229947 0.430874 0)
(0.168554 0.388876 0)
(0.0648981 0.275815 0)
(3 -5.53186e-17 0)
(3 -1.85617e-16 0)
(3 -7.05013e-16 0)
(3 -7.75746e-16 0)
(3 -1.03391e-16 0)
(3 7.01384e-16 0)
(3 1.13632e-16 0)
(3 4.87277e-16 0)
(3 3.09397e-16 0)
(3 3.23228e-16 0)
(3 1.26311e-17 0)
(3 1.96899e-16 0)
(3 4.23467e-16 0)
(3 3.07865e-16 0)
(3 1.89124e-16 0)
(3 4.79984e-16 0)
(3 1.87316e-16 0)
(3 -3.22968e-16 0)
(3 -7.35938e-18 0)
(3 -6.11392e-16 0)
(3 -9.26988e-16 0)
(3 -7.79762e-16 0)
(3 6.18318e-15 0)
(1.48344 0.35623 0)
(0.771031 0.332952 0)
(0.703997 0.343417 0)
(0.655424 0.343136 0)
(0.604566 0.309116 0)
(0.563083 0.291954 0)
(0.539393 0.341671 0)
(0.533253 0.433012 0)
(0.478762 0.460294 0)
(0.436995 0.435356 0)
(0.379939 0.367352 0)
(0.311911 0.420949 0)
(0.315663 0.576241 0)
(0.279269 0.674736 0)
(0.192389 0.665981 0)
(0.126226 0.473609 0)
(0.0621981 0.324381 0)
(3 1.81123e-16 0)
(3 1.59556e-16 0)
(3 -4.19655e-16 0)
(3 -5.67983e-16 0)
(3 -7.49851e-16 0)
(3 -1.8692e-16 0)
(3 -5.41454e-16 0)
(3 6.91633e-16 0)
(3 -1.44202e-16 0)
(3 2.80272e-16 0)
(3 -1.60935e-16 0)
(3 1.02873e-16 0)
(3 -3.59303e-16 0)
(3 4.82095e-17 0)
(3 3.65567e-16 0)
(3 4.61933e-16 0)
(3 -5.15741e-17 0)
(3 -6.18023e-16 0)
(3 -1.86328e-16 0)
(3 -7.14079e-16 0)
(3 -9.32063e-16 0)
(3 -1.14654e-16 0)
(3 -1.71358e-15 0)
(1.59306 0.367168 0)
(0.783638 0.355238 0)
(0.701818 0.350609 0)
(0.646258 0.330774 0)
(0.594378 0.30972 0)
(0.569564 0.312083 0)
(0.571957 0.395773 0)
(0.5476 0.457193 0)
(0.488637 0.468377 0)
(0.419837 0.414517 0)
(0.380454 0.360088 0)
(0.351042 0.444614 0)
(0.363377 0.605098 0)
(0.299763 0.719149 0)
(0.190406 0.755947 0)
(0.0756946 0.691662 0)
(0.0574822 0.619674 0)
(3 -7.2561e-17 0)
(3 -2.1126e-17 0)
(3 1.57747e-16 0)
(3 -1.15007e-16 0)
(3 -1.31936e-15 0)
(3 -1.19379e-15 0)
(3 -1.02667e-15 0)
(3 -4.88923e-16 0)
(3 -4.06401e-16 0)
(3 -2.08106e-16 0)
(3 -4.33341e-16 0)
(3 -4.08569e-16 0)
(3 -7.99346e-16 0)
(3 -1.29606e-16 0)
(3 3.41697e-16 0)
(3 5.20561e-16 0)
(3 -2.4003e-16 0)
(3 -3.3486e-16 0)
(3 -2.54202e-16 0)
(3 -9.77162e-16 0)
(3 -3.56142e-16 0)
(3 2.82715e-16 0)
(3 -1.15372e-15 0)
(1.71022 0.369588 0)
(0.795183 0.370749 0)
(0.688021 0.361478 0)
(0.6345 0.329176 0)
(0.600065 0.318091 0)
(0.592658 0.372917 0)
(0.600103 0.404411 0)
(0.560777 0.45748 0)
(0.488911 0.44813 0)
(0.398957 0.406105 0)
(0.397897 0.419629 0)
(0.382988 0.471725 0)
(0.407755 0.559658 0)
(0.328054 0.662233 0)
(0.20225 0.733602 0)
(0.0787299 0.734161 0)
(0.077644 0.786587 0)
(3 -1.29964e-16 0)
(3 1.0773e-16 0)
(3 3.41975e-16 0)
(3 7.27451e-17 0)
(3 -4.86214e-16 0)
(3 -8.44927e-16 0)
(3 -6.7889e-16 0)
(3 -2.39344e-16 0)
(3 1.95938e-16 0)
(3 9.28106e-17 0)
(3 -6.51558e-17 0)
(3 -2.70121e-16 0)
(3 -1.22367e-15 0)
(3 -1.538e-15 0)
(3 6.80612e-17 0)
(3 4.56911e-16 0)
(3 4.90178e-16 0)
(3 5.7509e-16 0)
(3 1.18774e-16 0)
(3 -1.9435e-17 0)
(3 -7.54303e-16 0)
(3 -2.06816e-16 0)
(3 -1.17482e-15 0)
(1.82828 0.356979 0)
(0.801021 0.371948 0)
(0.672559 0.354918 0)
(0.63277 0.353621 0)
(0.616938 0.388072 0)
(0.606448 0.403367 0)
(0.612612 0.386666 0)
(0.56166 0.356251 0)
(0.492977 0.350397 0)
(0.412155 0.422574 0)
(0.421824 0.500728 0)
(0.392863 0.522032 0)
(0.402264 0.491751 0)
(0.317331 0.401105 0)
(0.2544 0.409972 0)
(0.146559 0.657871 0)
(0.0863105 0.782934 0)
(3 1.18878e-16 0)
(3 1.47872e-16 0)
(3 4.58675e-16 0)
(3 8.02789e-17 0)
(3 3.82896e-17 0)
(3 -4.6508e-16 0)
(3 -7.23231e-16 0)
(3 -2.5134e-16 0)
(3 -1.38881e-16 0)
(3 2.63098e-16 0)
(3 8.52242e-16 0)
(3 5.0307e-16 0)
(3 -1.37791e-15 0)
(3 -2.0568e-15 0)
(3 -1.04128e-15 0)
(3 -6.56375e-16 0)
(3 1.95679e-16 0)
(3 1.43634e-15 0)
(3 9.50952e-16 0)
(3 -2.81946e-16 0)
(3 -8.3161e-16 0)
(3 -7.09445e-16 0)
(3 -1.27751e-15 0)
(1.9512 0.348665 0)
(0.800332 0.37901 0)
(0.670274 0.359242 0)
(0.652874 0.389473 0)
(0.636583 0.433163 0)
(0.612608 0.428115 0)
(0.605177 0.390995 0)
(0.551318 0.309652 0)
(0.514523 0.335043 0)
(0.460522 0.433983 0)
(0.440099 0.554282 0)
(0.39103 0.566894 0)
(0.362915 0.488869 0)
(0.300353 0.374011 0)
(0.269395 0.351142 0)
(0.226977 0.396144 0)
(0.102307 0.454937 0)
(3 6.67428e-17 0)
(3 -2.43997e-16 0)
(3 2.05463e-16 0)
(3 1.68076e-16 0)
(3 -6.92912e-16 0)
(3 -1.07495e-15 0)
(3 -7.98408e-16 0)
(3 -7.72022e-16 0)
(3 3.81697e-17 0)
(3 2.40864e-16 0)
(3 2.12513e-16 0)
(3 1.44208e-16 0)
(3 -1.94581e-16 0)
(3 -1.49555e-15 0)
(3 -1.62751e-15 0)
(3 -1.3125e-15 0)
(3 5.4251e-16 0)
(3 6.47801e-16 0)
(3 6.67504e-16 0)
(3 -5.25688e-16 0)
(3 -8.94415e-16 0)
(3 -9.10526e-16 0)
(3 -1.93348e-15 0)
(2.08866 0.373228 0)
(0.804516 0.402581 0)
(0.693824 0.385374 0)
(0.693102 0.426146 0)
(0.663202 0.438865 0)
(0.631101 0.429827 0)
(0.592502 0.358361 0)
(0.555848 0.317848 0)
(0.542593 0.340253 0)
(0.51571 0.481411 0)
(0.463048 0.580106 0)
(0.389631 0.591004 0)
(0.311652 0.472162 0)
(0.285477 0.385465 0)
(0.284783 0.365901 0)
(0.244173 0.393955 0)
(0.107244 0.391497 0)
(3 -2.094e-16 0)
(3 -4.26637e-16 0)
(3 -8.32751e-16 0)
(3 -2.90953e-16 0)
(3 -8.82119e-16 0)
(3 -1.393e-15 0)
(3 -1.36886e-15 0)
(3 -9.84463e-16 0)
(3 6.50695e-16 0)
(3 1.01278e-15 0)
(3 -2.87942e-16 0)
(3 -8.11747e-16 0)
(3 -2.40947e-16 0)
(3 -4.00378e-16 0)
(3 -1.03093e-15 0)
(3 -8.31104e-16 0)
(3 4.44135e-16 0)
(3 2.41299e-16 0)
(3 -5.46746e-16 0)
(3 -6.20783e-16 0)
(3 -1.01208e-15 0)
(3 -6.29142e-16 0)
(3 -1.30448e-15 0)
(2.30536 0.402851 0)
(0.862492 0.4569 0)
(0.757283 0.420226 0)
(0.745421 0.426359 0)
(0.696993 0.429176 0)
(0.644072 0.38012 0)
(0.599229 0.353536 0)
(0.575227 0.355826 0)
(0.581724 0.439628 0)
(0.557202 0.531523 0)
(0.48228 0.578575 0)
(0.379423 0.54879 0)
(0.266239 0.481081 0)
(0.282923 0.411118 0)
(0.297549 0.398249 0)
(0.268348 0.435189 0)
(0.108538 0.424943 0)
(3 -8.59753e-17 0)
(3 -1.25747e-16 0)
(3 -5.13066e-16 0)
(3 -5.65598e-16 0)
(3 -9.02706e-16 0)
(3 -1.14461e-15 0)
(3 -1.1341e-15 0)
(3 -8.12667e-16 0)
(3 9.11506e-18 0)
(3 -2.30126e-16 0)
(3 -9.99687e-16 0)
(3 -1.20885e-15 0)
(3 -6.67924e-16 0)
(3 1.87135e-16 0)
(3 -3.01064e-16 0)
(3 1.61503e-17 0)
(3 -3.06866e-16 0)
(3 -5.68778e-16 0)
(3 -1.12845e-15 0)
(3 -8.27418e-16 0)
(3 -7.30955e-16 0)
(3 -1.03656e-16 0)
(3 -1.08673e-15 0)
(2.62081 0.36483 0)
(0.983875 0.498107 0)
(0.833201 0.437861 0)
(0.798922 0.415981 0)
(0.730834 0.37223 0)
(0.665785 0.35342 0)
(0.635529 0.365251 0)
(0.62028 0.477669 0)
(0.619066 0.547257 0)
(0.563358 0.570244 0)
(0.473701 0.521741 0)
(0.380107 0.495515 0)
(0.269205 0.551757 0)
(0.286564 0.664199 0)
(0.294609 0.562086 0)
(0.278707 0.533426 0)
(0.105471 0.474466 0)
(3 1.23407e-16 0)
(3 6.1985e-17 0)
(3 -2.28862e-16 0)
(3 -6.14197e-16 0)
(3 -5.05213e-16 0)
(3 -1.88965e-16 0)
(3 -1.1139e-16 0)
(3 -2.72869e-16 0)
(3 -4.93081e-16 0)
(3 -6.75987e-16 0)
(3 -1.32179e-15 0)
(3 -1.00292e-15 0)
(3 -1.2196e-16 0)
(3 1.67676e-16 0)
(3 4.23248e-16 0)
(3 5.95206e-16 0)
(3 -3.56478e-16 0)
(3 -1.24408e-15 0)
(3 -1.23724e-15 0)
(3 -7.1121e-16 0)
(3 -1.35302e-15 0)
(3 -1.60128e-15 0)
(3 -2.17865e-15 0)