/*--------------------------------*- C++ -*----------------------------------*\
  =========                 |
  \\      /  F ield         | OpenFOAM: The Open Source CFD Toolbox
   \\    /   O peration     | Website:  https://openfoam.org
    \\  /    A nd           | Version:  6.0
     \\/     M anipulation  |
\*---------------------------------------------------------------------------*/
FoamFile
{
    version     2.0;
    format      ascii;
    class       volScalarField;
    location    "1.5";
    object      p;
}
// * * * * * * * * * * * * * * * * * * * * * * * * * * * * * * * * * * * * * //

dimensions      [1 -1 -2 0 0 0 0];

internalField   nonuniform List<scalar> 
192000
(
0.758333
0.653495
0.6114
0.584043
0.566446
0.553517
0.54363
0.53582
0.52944
0.524065
0.519521
0.515568
0.512166
0.509066
0.506563
0.504043
0.504074
0.504578
0.507921
0.513173
0.541012
0.580803
0.763764
1.12471
2.42825
5.51427
5.64462
5.49384
5.13666
4.95247
4.95865
4.99871
5.10325
5.23928
5.35696
5.49337
5.68349
5.97321
6.40927
7.30217
0.758333
0.653494
0.611401
0.584044
0.566446
0.553517
0.543629
0.53582
0.52944
0.524065
0.519521
0.515569
0.512166
0.509067
0.506562
0.504044
0.504075
0.504554
0.50805
0.512953
0.541769
0.578279
0.769033
1.11845
2.43333
5.51167
5.64467
5.49393
5.13679
4.95312
4.95926
4.99921
5.10364
5.23934
5.3569
5.4933
5.68344
5.97307
6.40868
7.30154
0.758333
0.653494
0.611401
0.584044
0.566446
0.553517
0.543629
0.53582
0.52944
0.524065
0.519521
0.515569
0.512166
0.509067
0.506562
0.504044
0.504075
0.504553
0.508048
0.512948
0.541754
0.578234
0.768987
1.11814
2.43311
5.5107
5.64432
5.49341
5.13634
4.95428
4.96045
5.00034
5.1046
5.23941
5.35672
5.49312
5.68328
5.97262
6.40732
7.2997
0.758333
0.653495
0.6114
0.584043
0.566446
0.553517
0.54363
0.53582
0.52944
0.524065
0.519521
0.515569
0.512166
0.509066
0.506563
0.504042
0.504073
0.504575
0.507915
0.513156
0.540956
0.580663
0.763584
1.12403
2.42694
5.5122
5.64375
5.49238
5.13539
4.95607
4.96235
5.00227
5.10629
5.23949
5.35641
5.49282
5.68297
5.97175
6.40518
7.29628
0.758333
0.653495
0.6114
0.584043
0.566446
0.553517
0.54363
0.535819
0.52944
0.524065
0.519521
0.515568
0.512166
0.509065
0.506564
0.50404
0.504069
0.504563
0.507929
0.513154
0.540985
0.581054
0.762325
1.12626
2.42267
5.51085
5.64261
5.49103
5.13449
4.95856
4.96501
5.00502
5.10879
5.23971
5.3561
5.49245
5.68246
5.97044
6.40222
7.29208
0.758333
0.653495
0.6114
0.584043
0.566446
0.553517
0.54363
0.53582
0.52944
0.524065
0.519521
0.515568
0.512166
0.509065
0.506564
0.504037
0.504068
0.504567
0.507903
0.513131
0.540891
0.580535
0.763166
1.12339
2.42334
5.50734
5.64017
5.48881
5.13352
4.9616
4.96827
5.0085
5.11195
5.24011
5.35568
5.49181
5.68152
5.96842
6.39817
7.28666
0.758333
0.653494
0.611401
0.584044
0.566446
0.553517
0.543629
0.53582
0.52944
0.524065
0.519521
0.515569
0.512165
0.509066
0.506564
0.504032
0.504066
0.504535
0.508031
0.512903
0.541675
0.578295
0.767537
1.11876
2.42536
5.50015
5.63662
5.48598
5.13282
4.96544
4.97237
5.01297
5.11614
5.24105
5.35539
5.49108
5.68027
5.96583
6.3933
7.2808
0.758333
0.653494
0.6114
0.584044
0.566446
0.553517
0.543629
0.53582
0.52944
0.524065
0.51952
0.515569
0.512165
0.509067
0.506561
0.504044
0.504074
0.504569
0.50794
0.513139
0.540968
0.579742
0.764622
1.11806
2.42331
5.49453
5.63136
5.48168
5.13144
4.96952
4.97687
5.01809
5.12101
5.24225
5.3551
5.49012
5.67853
5.96242
6.3874
7.27384
0.758333
0.653494
0.611401
0.584044
0.566445
0.553517
0.543629
0.53582
0.52944
0.524066
0.51952
0.51557
0.512164
0.509068
0.50656
0.504045
0.504075
0.504551
0.508034
0.512912
0.541573
0.577791
0.767689
1.11324
2.42241
5.48547
5.62579
5.47729
5.13029
4.97417
4.98204
5.02414
5.12679
5.24382
5.35491
5.48904
5.67636
5.95826
6.38064
7.26646
0.758333
0.653494
0.611401
0.584044
0.566445
0.553517
0.543629
0.53582
0.529439
0.524066
0.51952
0.51557
0.512164
0.509069
0.50656
0.504045
0.504076
0.504551
0.508029
0.5129
0.541517
0.577616
0.76733
1.11134
2.41893
5.47547
5.61915
5.47209
5.12884
4.97909
4.98759
5.0308
5.13343
5.24586
5.35486
5.48784
5.67377
5.95339
6.37304
7.25842
0.758333
0.653494
0.6114
0.584044
0.566446
0.553517
0.543629
0.53582
0.52944
0.524065
0.51952
0.51557
0.512164
0.509069
0.50656
0.504047
0.504077
0.504573
0.507924
0.513112
0.540785
0.579333
0.763169
1.11294
2.41169
5.46514
5.61084
5.46556
5.127
4.98415
4.99334
5.03782
5.14073
5.24844
5.35507
5.48657
5.67079
5.94791
6.36465
7.24957
0.758334
0.653494
0.611401
0.584044
0.566445
0.553517
0.543629
0.53582
0.529439
0.524066
0.51952
0.51557
0.512164
0.509069
0.506561
0.504041
0.504072
0.504542
0.508027
0.51287
0.541378
0.577362
0.765619
1.10802
2.40755
5.45031
5.60149
5.45854
5.12562
4.98954
4.99937
5.04507
5.14839
5.25155
5.35568
5.48525
5.66742
5.94183
6.35556
7.2403
0.758334
0.653494
0.611401
0.584044
0.566445
0.553517
0.543629
0.53582
0.52944
0.524065
0.51952
0.51557
0.512165
0.509068
0.506562
0.504036
0.504071
0.504539
0.508028
0.512847
0.541255
0.576911
0.765123
1.10347
2.40272
5.43359
5.59033
5.45046
5.12433
4.99487
5.00535
5.05229
5.15614
5.25494
5.35649
5.48387
5.66362
5.93514
6.34581
7.23085
0.758334
0.653494
0.611401
0.584044
0.566445
0.553517
0.543629
0.53582
0.52944
0.524065
0.519521
0.515569
0.512167
0.509065
0.506566
0.504029
0.50406
0.504526
0.507993
0.512789
0.541083
0.576536
0.764203
1.10027
2.3953
5.41451
5.5781
5.44184
5.1232
5.00004
5.0112
5.05946
5.16401
5.25855
5.35735
5.48237
5.65941
5.92791
6.33553
7.2213
0.758334
0.653494
0.611401
0.584044
0.566445
0.553517
0.543629
0.53582
0.52944
0.524064
0.519523
0.515567
0.51217
0.50906
0.506571
0.50401
0.504042
0.504501
0.507921
0.512684
0.540842
0.576173
0.762801
1.09851
2.38465
5.39257
5.56536
5.43317
5.12236
5.00501
5.01692
5.06661
5.17195
5.26236
5.35815
5.48066
5.65468
5.92008
6.32468
7.21167
0.758334
0.653494
0.6114
0.584043
0.566446
0.553516
0.54363
0.535819
0.529442
0.524063
0.519525
0.515564
0.512174
0.509054
0.506578
0.503997
0.504023
0.504498
0.507763
0.512836
0.539875
0.577989
0.756902
1.10051
2.36896
5.36883
5.55141
5.42394
5.12171
5.00977
5.02249
5.07372
5.17992
5.26629
5.35896
5.47874
5.64938
5.91165
6.31322
7.20174
0.758334
0.653494
0.6114
0.584043
0.566446
0.553516
0.54363
0.535818
0.529442
0.524062
0.519526
0.515562
0.512177
0.509048
0.506585
0.50398
0.504003
0.50447
0.507705
0.512733
0.539636
0.577808
0.754427
1.09851
2.35428
5.34034
5.53563
5.4138
5.12142
5.01444
5.02796
5.08074
5.18766
5.2702
5.35989
5.47673
5.64348
5.90263
6.30115
7.19137
0.758334
0.653494
0.6114
0.584043
0.566446
0.553516
0.54363
0.535818
0.529443
0.524061
0.519527
0.51556
0.51218
0.509044
0.50659
0.503961
0.503986
0.504449
0.507653
0.51264
0.539312
0.576956
0.753305
1.09222
2.34242
5.30727
5.51763
5.40229
5.12104
5.01897
5.03328
5.08774
5.19454
5.27394
5.36085
5.47442
5.637
5.89302
6.28839
7.18057
0.758334
0.653494
0.611401
0.584044
0.566446
0.553516
0.54363
0.535818
0.529443
0.52406
0.519529
0.515558
0.512182
0.50904
0.506593
0.503952
0.503961
0.504407
0.507692
0.512297
0.53973
0.574166
0.755921
1.08144
2.33226
5.26838
5.49865
5.38948
5.11988
5.02339
5.03847
5.09462
5.20028
5.27732
5.3616
5.4717
5.62994
5.88279
6.2749
7.1694
0.758334
0.653494
0.611401
0.584044
0.566446
0.553516
0.543631
0.535818
0.529444
0.52406
0.51953
0.515556
0.512185
0.509036
0.506597
0.503942
0.503941
0.504385
0.507598
0.512165
0.539324
0.573204
0.754527
1.07363
2.31763
5.22631
5.47897
5.37539
5.11755
5.02749
5.04332
5.101
5.20508
5.2801
5.36183
5.46838
5.62217
5.87179
6.26056
7.158
0.758334
0.653494
0.6114
0.584043
0.566446
0.553516
0.543631
0.535817
0.529445
0.524058
0.519531
0.515554
0.512188
0.509031
0.506604
0.503923
0.503926
0.504381
0.50741
0.512258
0.538262
0.574604
0.747865
1.07259
2.29449
5.18246
5.45806
5.36
5.11429
5.03109
5.04769
5.10682
5.20911
5.2822
5.36144
5.46436
5.61353
5.85987
6.24527
7.14624
0.758334
0.653494
0.6114
0.584043
0.566447
0.553516
0.543632
0.535816
0.529445
0.524057
0.519533
0.515552
0.512191
0.509026
0.506608
0.503914
0.503893
0.504335
0.507359
0.512139
0.53792
0.574118
0.744626
1.06769
2.27184
5.13341
5.43582
5.34355
5.11043
5.0342
5.05154
5.11198
5.21234
5.28352
5.36029
5.45957
5.60395
5.84684
6.22883
7.13378
0.758334
0.653494
0.6114
0.584043
0.566447
0.553516
0.543632
0.535816
0.529445
0.524056
0.519534
0.51555
0.512193
0.509023
0.506611
0.503903
0.503862
0.504302
0.507251
0.511995
0.537404
0.57332
0.741473
1.06068
2.24891
5.07921
5.41169
5.32584
5.10622
5.03673
5.05475
5.11632
5.21467
5.28393
5.35825
5.45392
5.59329
5.83258
6.21102
7.12019
0.758334
0.653494
0.6114
0.584043
0.566447
0.553516
0.543632
0.535815
0.529446
0.524055
0.519535
0.515549
0.512196
0.50902
0.506612
0.503899
0.503827
0.504252
0.50719
0.511843
0.536973
0.572285
0.738849
1.05214
2.22553
5.0196
5.38568
5.30686
5.1017
5.03857
5.05717
5.11967
5.21591
5.28333
5.35519
5.44727
5.58133
5.81692
6.19164
7.10522
0.758334
0.653494
0.611401
0.584043
0.566447
0.553515
0.543632
0.535815
0.529446
0.524054
0.519536
0.515547
0.512198
0.509017
0.506614
0.503892
0.503794
0.50421
0.507115
0.511687
0.536535
0.571167
0.736004
1.04251
2.20062
4.95439
5.35804
5.28689
5.09684
5.03964
5.05875
5.12193
5.21588
5.28147
5.35084
5.43933
5.56788
5.79965
6.17039
7.08853
0.758335
0.653494
0.611401
0.584043
0.566447
0.553515
0.543632
0.535814
0.529447
0.524053
0.519537
0.515545
0.512201
0.509013
0.506619
0.50388
0.503758
0.504164
0.507008
0.51151
0.535954
0.570114
0.732406
1.0331
2.17253
4.88395
5.32903
5.26591
5.09154
5.04
5.05951
5.12305
5.21467
5.27805
5.34499
5.42987
5.55275
5.78044
6.14692
7.06975
0.758335
0.653494
0.611401
0.584043
0.566447
0.553515
0.543632
0.535814
0.529448
0.524052
0.519539
0.515543
0.512204
0.509007
0.506624
0.503862
0.503732
0.504144
0.506859
0.511306
0.535308
0.568711
0.729084
1.02154
2.14361
4.80758
5.29906
5.24386
5.08551
5.03982
5.05953
5.12297
5.21182
5.27301
5.33736
5.41856
5.53567
5.75881
6.1208
7.04855
0.758335
0.653494
0.611401
0.584042
0.566447
0.553514
0.543634
0.535813
0.52945
0.524051
0.519542
0.51554
0.512209
0.509002
0.506629
0.503849
0.503684
0.504068
0.506799
0.51112
0.53479
0.567347
0.725398
1.0102
2.11142
4.72448
5.26877
5.22105
5.07875
5.03907
5.05892
5.12196
5.20736
5.26625
5.32782
5.40518
5.51641
5.73412
6.09137
7.02414
0.758337
0.653492
0.6114
0.584042
0.566447
0.553515
0.543633
0.535814
0.529449
0.524051
0.519542
0.515539
0.512211
0.508997
0.506634
0.503833
0.503661
0.504058
0.506635
0.510879
0.53403
0.56592
0.721039
0.997535
2.07703
4.6342
5.23781
5.19765
5.07166
5.03736
5.05739
5.11961
5.20114
5.25749
5.3161
5.38941
5.49478
5.70563
6.05799
6.99589
0.758339
0.65349
0.6114
0.584043
0.566446
0.553516
0.543632
0.535815
0.529449
0.524052
0.519543
0.515538
0.512213
0.508993
0.506638
0.503819
0.503621
0.504016
0.506484
0.510631
0.533252
0.564062
0.716885
0.982522
2.04097
4.53612
5.2066
5.17435
5.0649
5.03512
5.05508
5.11586
5.19324
5.24674
5.30206
5.37089
5.47056
5.67228
6.01973
6.96241
0.758339
0.65349
0.6114
0.584043
0.566445
0.553517
0.543631
0.535815
0.529449
0.524051
0.519544
0.515536
0.512215
0.508989
0.506639
0.503811
0.503557
0.503929
0.50646
0.510236
0.532998
0.561423
0.713558
0.964129
2.00365
4.42796
5.17555
5.15135
5.05873
5.03234
5.05179
5.11035
5.18351
5.23391
5.2856
5.34944
5.44294
5.63413
5.97568
6.92198
0.758339
0.65349
0.611401
0.584043
0.566445
0.553517
0.543631
0.535815
0.529449
0.524051
0.519545
0.515535
0.512218
0.508984
0.506642
0.5038
0.503499
0.503863
0.506297
0.509976
0.532066
0.559609
0.707701
0.946749
1.96164
4.31086
5.14575
5.12937
5.05317
5.02908
5.04752
5.10292
5.17175
5.21873
5.26635
5.32462
5.41132
5.59063
5.92456
6.87208
0.758339
0.653491
0.611401
0.584044
0.566446
0.553516
0.543632
0.535814
0.52945
0.524049
0.519547
0.515531
0.512224
0.508976
0.506648
0.50378
0.503426
0.503769
0.506115
0.509651
0.531084
0.557884
0.701108
0.931218
1.91185
4.18298
5.11775
5.10871
5.04801
5.02523
5.04222
5.09355
5.15795
5.2011
5.24409
5.29604
5.3751
5.54106
5.86452
6.80947
0.758339
0.65349
0.611401
0.584044
0.566446
0.553516
0.543632
0.535813
0.529451
0.524047
0.519549
0.515528
0.512228
0.508969
0.506654
0.503761
0.503357
0.503685
0.505809
0.509426
0.529534
0.556944
0.691983
0.921122
1.8508
4.04626
5.0913
5.08967
5.04321
5.02026
5.0354
5.08195
5.1418
5.18079
5.21863
5.26337
5.3338
5.4851
5.79272
6.72994
0.758339
0.65349
0.611401
0.584045
0.566446
0.553516
0.543632
0.535812
0.529451
0.524045
0.519552
0.515525
0.512232
0.508964
0.506655
0.50375
0.50327
0.503575
0.505597
0.509052
0.52839
0.554786
0.684267
0.90379
1.79103
3.89557
5.06715
5.07629
5.03776
5.01385
5.02688
5.06797
5.12268
5.1572
5.18948
5.22609
5.28648
5.42108
5.70614
6.62841
0.758338
0.653491
0.611402
0.584045
0.566445
0.553516
0.543632
0.535811
0.529452
0.524044
0.519553
0.515522
0.512234
0.508962
0.506648
0.503757
0.503157
0.503439
0.505462
0.508555
0.527562
0.551447
0.677812
0.878192
1.73375
3.72542
5.04805
5.06801
5.03275
5.00588
5.01653
5.0513
5.10014
5.12953
5.15585
5.18358
5.232
5.34646
5.60246
6.49821
0.75834
0.653489
0.611401
0.584045
0.566444
0.553517
0.543631
0.535813
0.529451
0.524045
0.519552
0.515524
0.512233
0.508966
0.506637
0.503767
0.503059
0.503325
0.505129
0.508142
0.525748
0.548548
0.666895
0.858768
1.66225
3.53901
5.03344
5.06225
5.0284
4.99551
5.00365
5.03156
5.07357
5.09719
5.11652
5.13447
5.16779
5.25747
5.47622
6.32884
0.758348
0.653481
0.6114
0.584047
0.566441
0.553523
0.543626
0.535821
0.529445
0.524053
0.519545
0.515532
0.512224
0.508976
0.506621
0.50378
0.502991
0.503258
0.504231
0.510071
0.518248
0.561913
0.622295
0.907835
1.51631
3.36565
5.01904
5.05517
5.02234
4.98082
4.98639
5.00705
5.04164
5.05926
5.07112
5.07816
5.0918
5.15207
5.32132
6.1023
0.758348
0.65348
0.6114
0.584048
0.56644
0.553524
0.543624
0.535822
0.529443
0.524056
0.519543
0.515536
0.512219
0.508983
0.506603
0.503797
0.502869
0.503103
0.503947
0.50975
0.517262
0.558903
0.613738
0.885875
1.43084
3.15242
5.0016
5.04632
5.0132
4.96001
4.96159
4.97408
5.00052
5.01228
5.01608
5.0113
4.99833
5.0257
5.12639
5.78595
0.758347
0.653481
0.6114
0.584049
0.566439
0.553524
0.543623
0.535823
0.529442
0.524058
0.51954
0.515541
0.512212
0.508996
0.506577
0.503827
0.502716
0.502919
0.503695
0.509092
0.516094
0.554866
0.606007
0.855459
1.35102
2.92234
4.96893
5.03688
5.00087
4.93381
4.9241
4.93047
4.94753
4.95304
4.94899
4.93014
4.88568
4.87113
4.87343
5.30982
1.05253
1.04336
1.01972
0.99249
0.973631
0.957363
0.94458
0.934001
0.925009
0.917336
0.910694
0.904876
0.899712
0.895108
0.891118
0.887955
0.8882
0.890028
0.894302
0.912967
0.945802
1.06733
1.3114
2.10276
4.29511
9.94674
9.85878
9.36629
8.75874
8.57568
8.60483
8.70662
8.916
9.12117
9.30857
9.53629
9.83999
10.2907
10.8935
11.8141
1.05253
1.04336
1.01972
0.992488
0.973631
0.957364
0.94458
0.934001
0.925009
0.917336
0.910694
0.904877
0.899712
0.89511
0.891115
0.887988
0.888263
0.889723
0.896183
0.909258
0.9559
1.04802
1.34525
2.05874
4.31938
9.94004
9.8582
9.36546
8.75868
8.57677
8.60582
8.70741
8.91639
9.12105
9.30832
9.53598
9.83965
10.29
10.8896
11.8146
1.05253
1.04336
1.01972
0.992488
0.973631
0.957364
0.94458
0.934001
0.925009
0.917336
0.910694
0.904877
0.899712
0.89511
0.891114
0.887989
0.888264
0.889724
0.896184
0.909254
0.955866
1.04799
1.34495
2.05845
4.3184
9.93772
9.85589
9.36238
8.75752
8.5785
8.60763
8.7092
8.91744
9.12079
9.30774
9.5352
9.83876
10.2879
10.8829
11.8104
1.05253
1.04336
1.01972
0.992489
0.973631
0.957363
0.94458
0.934001
0.925009
0.917336
0.910694
0.904877
0.899712
0.895108
0.891117
0.887957
0.888202
0.890024
0.894318
0.912903
0.945672
1.06701
1.31069
2.10161
4.29201
9.9406
9.85228
9.35747
8.75549
8.58098
8.61037
8.71216
8.91938
9.12042
9.30679
9.53394
9.8371
10.2842
10.8741
11.8003
1.05253
1.04336
1.01972
0.992489
0.973632
0.957363
0.94458
0.934001
0.925009
0.917336
0.910694
0.904876
0.899712
0.895107
0.891118
0.887958
0.88821
0.890023
0.894468
0.912811
0.945835
1.06681
1.31006
2.10341
4.28488
9.9357
9.84729
9.35171
8.7531
8.58421
8.61398
8.71623
8.92209
9.11998
9.30553
9.53209
9.83445
10.2789
10.8619
11.7897
1.05253
1.04336
1.01972
0.992489
0.973631
0.957363
0.94458
0.934001
0.925009
0.917336
0.910694
0.904876
0.899712
0.895107
0.891118
0.887949
0.888193
0.890001
0.894299
0.912786
0.945564
1.06655
1.31018
2.0995
4.28666
9.92763
9.83909
9.3435
8.75005
8.58779
8.61824
8.72165
8.92513
9.11944
9.3039
9.52957
9.83071
10.2718
10.8469
11.7775
1.05253
1.04336
1.01972
0.992488
0.973631
0.957364
0.944581
0.934002
0.925009
0.917336
0.910693
0.904876
0.899711
0.895109
0.891115
0.88797
0.888237
0.889677
0.896049
0.909075
0.955499
1.04712
1.34339
2.05634
4.30526
9.9105
9.82911
9.33491
8.74706
8.59209
8.62333
8.7285
8.92862
9.11898
9.30204
9.52639
9.82574
10.2629
10.8286
11.7655
1.05253
1.04336
1.01972
0.992489
0.973631
0.957364
0.94458
0.934002
0.925009
0.917336
0.910693
0.904877
0.89971
0.895112
0.891112
0.887974
0.888229
0.889945
0.894619
0.91236
0.946939
1.0627
1.31656
2.08524
4.2887
9.89985
9.81475
9.32277
8.74259
8.5961
8.62855
8.73614
8.93255
9.11857
9.29984
9.52249
9.81946
10.2517
10.8081
11.7514
1.05253
1.04336
1.01972
0.992489
0.973631
0.957364
0.94458
0.934001
0.925009
0.917337
0.910693
0.904878
0.89971
0.895113
0.891111
0.887992
0.888267
0.889715
0.896171
0.909137
0.955547
1.04702
1.34257
2.05012
4.29776
9.87931
9.80018
9.31097
8.73819
8.60042
8.63413
8.74437
8.93695
9.11817
9.29731
9.51787
9.81189
10.2388
10.7855
11.7359
1.05253
1.04336
1.01972
0.992489
0.973631
0.957364
0.94458
0.934001
0.925008
0.917337
0.910693
0.904879
0.899709
0.895113
0.891111
0.887992
0.888267
0.889717
0.89616
0.909132
0.955446
1.04683
1.34155
2.04765
4.29003
9.85856
9.78254
9.29761
8.73283
8.60438
8.63958
8.7528
8.94158
9.1177
9.29437
9.51241
9.80286
10.2239
10.7603
11.7191
1.05253
1.04336
1.01972
0.99249
0.973631
0.957363
0.944579
0.934001
0.925008
0.917337
0.910693
0.904879
0.899709
0.895114
0.89111
0.887975
0.888228
0.889969
0.894559
0.91239
0.946625
1.0623
1.31345
2.07799
4.26476
9.83861
9.76115
9.28184
8.72672
8.60797
8.64475
8.76103
8.94625
9.11713
9.29097
9.50611
9.79239
10.2072
10.733
11.7004
1.05253
1.04336
1.01972
0.992489
0.97363
0.957363
0.94458
0.934001
0.925008
0.917336
0.910693
0.904879
0.899709
0.895115
0.891109
0.887993
0.888268
0.889705
0.896186
0.909039
0.955308
1.04601
1.33936
2.03991
4.26964
9.80713
9.73776
9.26527
8.72105
8.61163
8.64984
8.76878
8.95084
9.1163
9.28701
9.49895
9.78052
10.1888
10.7039
11.6803
1.05253
1.04336
1.01972
0.992488
0.97363
0.957363
0.94458
0.934001
0.925009
0.917336
0.910693
0.904878
0.89971
0.895113
0.89111
0.887994
0.888276
0.889704
0.896277
0.908976
0.955315
1.04552
1.33783
2.03241
4.26019
9.77411
9.70997
9.24721
8.71486
8.61462
8.65431
8.77582
8.95511
9.11509
9.28232
9.49078
9.76713
10.1689
10.6732
11.6591
1.05253
1.04336
1.01972
0.992488
0.97363
0.957363
0.94458
0.934001
0.92501
0.917335
0.910695
0.904876
0.899713
0.895108
0.891116
0.887978
0.888256
0.889676
0.896216
0.908859
0.954995
1.04482
1.33594
2.02721
4.24564
9.73712
9.68014
9.22953
8.70824
8.61678
8.65798
8.78202
8.95882
9.11337
9.27675
9.48143
9.75204
10.1471
10.6409
11.6367
1.05253
1.04336
1.01972
0.992488
0.973631
0.957362
0.944581
0.934
0.925011
0.917334
0.910698
0.904872
0.899718
0.895099
0.891125
0.887941
0.888206
0.889615
0.895993
0.908655
0.954298
1.04382
1.33338
2.02423
4.22482
9.69517
9.64855
9.21301
8.7011
8.61794
8.66069
8.78723
8.9618
9.11107
9.27018
9.47085
9.73523
10.1235
10.6069
11.6126
1.05253
1.04336
1.01972
0.992488
0.973631
0.957361
0.944581
0.933999
0.925013
0.917332
0.910701
0.904868
0.899724
0.895088
0.891138
0.887888
0.888127
0.889821
0.894197
0.911904
0.944342
1.06068
1.30039
2.05887
4.1817
9.65166
9.61328
9.1964
8.69308
8.6178
8.6623
8.79134
8.96369
9.10787
9.26256
9.45894
9.71667
10.0982
10.571
11.5866
1.05253
1.04336
1.01972
0.992488
0.973632
0.957361
0.944582
0.933998
0.925014
0.917331
0.910704
0.904864
0.89973
0.895078
0.89115
0.887853
0.888088
0.889788
0.89413
0.911733
0.943895
1.0597
1.29642
2.05481
4.15486
9.5986
9.57439
9.17868
8.68488
8.6168
8.66313
8.7946
8.96434
9.10369
9.25383
9.44553
9.69634
10.0711
10.533
11.5587
1.05253
1.04336
1.01972
0.992488
0.973632
0.957361
0.944582
0.933998
0.925016
0.917329
0.910706
0.90486
0.899735
0.89507
0.891158
0.887827
0.888055
0.889704
0.894011
0.911442
0.943331
1.05838
1.29409
2.04365
4.13437
9.53723
9.53065
9.15861
8.67628
8.61476
8.66318
8.79703
8.96355
9.09849
9.2441
9.43055
9.67419
10.0423
10.4931
11.5293
1.05253
1.04336
1.01972
0.992487
0.973631
0.957361
0.944583
0.933998
0.925017
0.917327
0.910708
0.904857
0.899739
0.895064
0.891163
0.887818
0.888056
0.8894
0.895571
0.907807
0.952325
1.03958
1.32168
1.99353
4.13014
9.46341
9.48746
9.13449
8.66722
8.61207
8.66248
8.79823
8.96119
9.09215
9.23314
9.41399
9.65014
10.0117
10.4512
11.4982
1.05253
1.04336
1.01972
0.992487
0.973632
0.957361
0.944583
0.933997
0.925018
0.917325
0.910711
0.904853
0.899744
0.895056
0.891171
0.887792
0.888023
0.889365
0.895423
0.907656
0.951661
1.0382
1.31807
1.98282
4.10102
9.38659
9.44276
9.10705
8.6568
8.60842
8.6607
8.79782
8.95708
9.08436
9.22071
9.39572
9.62403
9.97903
10.4073
11.4657
1.05253
1.04336
1.01972
0.992488
0.973633
0.95736
0.944584
0.933995
0.925018
0.917323
0.910714
0.90485
0.89975
0.895047
0.891184
0.887737
0.887939
0.88958
0.893561
0.910864
0.941739
1.05427
1.28398
2.01187
4.04459
9.30966
9.39546
9.07735
8.64478
8.60345
8.65746
8.79572
8.9511
9.0748
9.20649
9.37546
9.59563
9.94412
10.3611
11.4312
1.05253
1.04336
1.01972
0.992488
0.973633
0.95736
0.944584
0.933993
0.925019
0.917321
0.910716
0.904846
0.899755
0.895039
0.891192
0.887713
0.887913
0.889523
0.893592
0.910518
0.941323
1.05236
1.27923
2.00212
4.00344
9.22155
9.34583
9.04668
8.63182
8.59731
8.65283
8.7916
8.94311
9.06319
9.1902
9.35294
9.56463
9.90661
10.312
11.3943
1.05253
1.04336
1.01972
0.992488
0.973634
0.95736
0.944585
0.933993
0.92502
0.917319
0.910718
0.904843
0.899759
0.895033
0.891199
0.887676
0.887856
0.889473
0.893183
0.910495
0.939912
1.05212
1.27266
1.99163
3.96203
9.12437
9.29173
9.01429
8.61788
8.5899
8.64668
8.78559
8.93302
9.04943
9.17177
9.32799
9.53079
9.86637
10.2599
11.3544
1.05253
1.04336
1.01972
0.992488
0.973634
0.95736
0.944585
0.933992
0.925021
0.917317
0.91072
0.90484
0.899763
0.895027
0.891203
0.887662
0.887842
0.889366
0.893329
0.909911
0.939472
1.04938
1.26831
1.97593
3.92072
9.01862
9.23429
8.98082
8.60319
8.58131
8.63905
8.77759
8.92075
9.03341
9.15097
9.30054
9.4939
9.823
10.2041
11.3109
1.05253
1.04336
1.01972
0.992488
0.973634
0.95736
0.944586
0.933991
0.925022
0.917316
0.910722
0.904837
0.899768
0.895021
0.891209
0.887634
0.887805
0.88929
0.893259
0.909454
0.939177
1.04599
1.26486
1.95756
3.87709
8.90353
9.17356
8.94614
8.58772
8.57154
8.62991
8.76753
8.90614
9.01489
9.12749
9.27029
9.45383
9.7762
10.1445
11.2629
1.05253
1.04336
1.01972
0.992488
0.973634
0.957359
0.944586
0.93399
0.925023
0.917314
0.910725
0.904833
0.899773
0.895012
0.891217
0.887595
0.887755
0.8892
0.893057
0.909134
0.937947
1.04462
1.25774
1.94257
3.82666
8.77929
9.10997
8.90917
8.57136
8.56067
8.61935
8.7554
8.88911
8.99357
9.10099
9.23689
9.41032
9.7254
10.0805
11.2099
1.05253
1.04336
1.01972
0.992487
0.973634
0.957358
0.944586
0.933989
0.925024
0.917312
0.910728
0.90483
0.899779
0.895002
0.891228
0.887542
0.887683
0.889138
0.892642
0.908958
0.936767
1.0426
1.25134
1.92489
3.7738
8.64481
9.04659
8.86803
8.55412
8.54878
8.60737
8.74119
8.86953
8.96942
9.07127
9.19997
9.36303
9.66983
10.0113
11.1506
1.05253
1.04336
1.01972
0.992487
0.973634
0.957358
0.944586
0.933989
0.925025
0.917311
0.910731
0.904826
0.899784
0.894992
0.891237
0.887509
0.887645
0.889012
0.892749
0.908174
0.936644
1.03795
1.24758
1.9012
3.71915
8.49873
8.98385
8.82466
8.53647
8.5358
8.594
8.72487
8.8471
8.9421
9.03806
9.15913
9.31162
9.60859
9.93595
11.0843
1.05253
1.04336
1.01972
0.992485
0.973635
0.957356
0.944588
0.933987
0.925028
0.917309
0.910735
0.904821
0.899791
0.894981
0.891247
0.887463
0.887588
0.888911
0.89252
0.907721
0.935122
1.03597
1.23879
1.8818
3.6569
8.34061
8.91937
8.78015
8.5188
8.52117
8.57943
8.70653
8.82186
8.91155
9.00118
9.11412
9.25579
9.54044
9.85327
11.0093
1.05253
1.04336
1.01972
0.992483
0.973636
0.957354
0.944589
0.933985
0.925031
0.917306
0.910739
0.904816
0.899797
0.89497
0.891258
0.887407
0.887514
0.888797
0.892192
0.907203
0.934026
1.03248
1.23182
1.85656
3.59398
8.16923
8.85369
8.73538
8.5012
8.5056
8.56314
8.68545
8.79357
8.87754
8.96033
9.06439
9.19511
9.46453
9.76215
10.9235
1.05253
1.04336
1.01972
0.992482
0.973636
0.957353
0.94459
0.933984
0.925033
0.917303
0.910742
0.904811
0.899803
0.894961
0.891265
0.88737
0.887463
0.888502
0.893439
0.903717
0.940965
1.01385
1.24974
1.79552
3.54464
7.97741
8.78905
8.69067
8.48498
8.4898
8.54512
8.66137
8.76218
8.83993
8.91523
9.00937
9.12821
9.38015
9.6607
10.8242
1.05253
1.04336
1.01972
0.992483
0.973636
0.957353
0.944591
0.933983
0.925035
0.9173
0.910746
0.904805
0.899811
0.894948
0.891276
0.887318
0.887394
0.888406
0.893183
0.903337
0.93956
1.01002
1.24145
1.76525
3.47074
7.77315
8.72663
8.64628
8.4689
8.47335
8.52529
8.63413
8.72759
8.79853
8.8656
8.94873
9.05444
9.28661
9.54748
10.7076
1.05253
1.04336
1.01972
0.992484
0.973637
0.957353
0.944591
0.933981
0.925036
0.917297
0.910751
0.904798
0.89982
0.894931
0.891294
0.887241
0.887288
0.888219
0.892822
0.902457
0.937805
1.006
1.2308
1.73817
3.38346
7.55283
8.66917
8.60455
8.45307
8.45628
8.50349
8.60352
8.68953
8.75301
8.81101
8.8818
8.97262
9.18206
9.41969
10.5695
1.05253
1.04336
1.01972
0.992484
0.973638
0.957352
0.944592
0.933978
0.925038
0.917293
0.910755
0.904791
0.899831
0.894913
0.891313
0.887158
0.887183
0.888163
0.891144
0.904427
0.928255
1.01675
1.19345
1.74493
3.26541
7.31847
8.61428
8.56517
8.43766
8.43821
8.47945
8.56956
8.64781
8.70314
8.75127
8.80833
8.88228
9.06561
9.27449
10.4037
1.05253
1.04336
1.01973
0.992485
0.973637
0.957352
0.944592
0.933977
0.925038
0.91729
0.910759
0.904785
0.899839
0.8949
0.891323
0.887095
0.88707
0.887957
0.89081
0.90357
0.926468
1.01193
1.18148
1.71227
3.16438
7.05677
8.56351
8.53022
8.42272
8.41749
8.45286
8.53215
8.60195
8.64838
8.68566
8.72738
8.78174
8.93481
9.10796
10.2033
1.05253
1.04336
1.01973
0.992485
0.973636
0.957353
0.944591
0.933977
0.925039
0.917289
0.910761
0.904782
0.899843
0.894893
0.891321
0.887072
0.886879
0.887653
0.891639
0.900193
0.931696
0.992844
1.19233
1.64139
3.07967
6.76091
8.52089
8.50106
8.40794
8.39391
8.42284
8.49064
8.55138
8.58836
8.61412
8.63876
8.66951
8.78727
8.91493
9.95625
1.05253
1.04336
1.01973
0.992483
0.973636
0.957352
0.944592
0.933977
0.92504
0.917287
0.910763
0.904778
0.899847
0.894887
0.891317
0.887045
0.886714
0.887439
0.891223
0.89931
0.92945
0.987005
1.17856
1.60171
2.96
6.44225
8.48732
8.47678
8.39332
8.36708
8.38878
8.44406
8.49497
8.52189
8.53553
8.54245
8.54327
8.61993
8.68901
9.64841
1.05253
1.04336
1.01973
0.992476
0.973641
0.957345
0.944597
0.933971
0.925045
0.917283
0.910768
0.904773
0.899852
0.894879
0.891318
0.887011
0.88659
0.887347
0.889984
0.900766
0.921602
0.994115
1.13894
1.60609
2.78503
6.10998
8.45832
8.45498
8.37859
8.3357
8.3504
8.39187
8.43196
8.44846
8.44925
8.43678
8.3992
8.43312
8.42061
9.25391
1.05253
1.04336
1.01973
0.992476
0.973641
0.957344
0.944596
0.933972
0.925044
0.917284
0.910767
0.904776
0.899848
0.894881
0.891305
0.886987
0.886399
0.887099
0.889508
0.899853
0.919313
0.988151
1.12302
1.56392
2.64191
5.7389
8.42989
8.43602
8.36223
8.29831
8.3053
8.3323
8.36119
8.36708
8.35643
8.32103
8.23922
8.21781
8.09706
8.73583
1.05253
1.04336
1.01973
0.992477
0.973639
0.957346
0.944594
0.933974
0.925041
0.917289
0.910761
0.904784
0.899837
0.894895
0.891274
0.886985
0.886154
0.886773
0.889006
0.898597
0.916834
0.981103
1.10676
1.51507
2.50231
5.3437
8.40069
8.42645
8.34776
8.25569
8.24919
8.26375
8.282
8.27897
8.2554
8.19517
8.06977
7.97719
7.70672
8.00187
1.06613
1.10993
1.11434
1.11126
1.10353
1.0929
1.08435
1.07618
1.06884
1.0624
1.05663
1.05143
1.04664
1.04244
1.03851
1.03642
1.03685
1.03962
1.04489
1.07041
1.11033
1.26755
1.56714
2.56344
5.31587
12.5081
12.1278
11.1864
10.507
10.3901
10.4485
10.6191
10.8824
11.1019
11.311
11.5659
11.8885
12.3293
12.8269
13.4361
1.06613
1.10994
1.11434
1.11126
1.10353
1.09291
1.08434
1.07618
1.06884
1.0624
1.05663
1.05143
1.04664
1.04244
1.0385
1.03646
1.03693
1.03899
1.04745
1.06422
1.12407
1.24131
1.60703
2.51642
5.34398
12.5013
12.1255
11.1836
10.5063
10.3914
10.4498
10.6205
10.8826
11.1015
11.3105
11.5651
11.8875
12.3275
12.8206
13.4334
1.06613
1.10994
1.11434
1.11126
1.10353
1.09291
1.08434
1.07618
1.06884
1.0624
1.05663
1.05143
1.04664
1.04244
1.0385
1.03646
1.03693
1.03899
1.04745
1.06422
1.12405
1.24125
1.60676
2.51599
5.34269
12.4975
12.12
11.1769
10.5038
10.393
10.4519
10.6231
10.883
11.1007
11.3095
11.5634
11.8852
12.3229
12.8088
13.4265
1.06613
1.10993
1.11434
1.11126
1.10353
1.0929
1.08435
1.07618
1.06884
1.0624
1.05663
1.05143
1.04664
1.04244
1.0385
1.03642
1.03685
1.03962
1.04495
1.07027
1.11037
1.26695
1.56655
2.56186
5.3123
12.4971
12.112
11.1672
10.5
10.3951
10.4548
10.6272
10.8839
11.0996
11.3079
11.5609
11.8815
12.3151
12.7926
13.4151
1.06613
1.10993
1.11434
1.11126
1.10353
1.0929
1.08434
1.07618
1.06884
1.0624
1.05663
1.05143
1.04664
1.04244
1.0385
1.03642
1.03687
1.03961
1.04575
1.06904
1.114
1.25992
1.57545
2.55234
5.30979
12.4876
12.1014
11.1552
10.495
10.3972
10.458
10.632
10.8848
11.0979
11.3056
11.5572
11.8758
12.3043
12.7711
13.4012
1.06613
1.10993
1.11434
1.11126
1.10353
1.0929
1.08435
1.07618
1.06884
1.0624
1.05663
1.05143
1.04664
1.04244
1.0385
1.03641
1.03684
1.03957
1.04497
1.06996
1.11042
1.26626
1.56601
2.55909
5.30667
12.4752
12.0863
11.1405
10.4888
10.3991
10.4613
10.6375
10.8857
11.0958
11.3025
11.5522
11.8681
12.2905
12.7456
13.3838
1.06613
1.10994
1.11434
1.11126
1.10353
1.0929
1.08435
1.07618
1.06884
1.0624
1.05663
1.05143
1.04664
1.04244
1.03849
1.03645
1.03691
1.03878
1.04773
1.06309
1.12557
1.23771
1.60971
2.50668
5.32923
12.4525
12.0686
11.124
10.4818
10.4009
10.4646
10.6435
10.8864
11.0932
11.2985
11.5458
11.858
12.2737
12.7157
13.3639
1.06613
1.10993
1.11434
1.11126
1.10353
1.0929
1.08434
1.07618
1.06884
1.0624
1.05663
1.05143
1.04664
1.04244
1.03849
1.03645
1.0369
1.03939
1.04548
1.06896
1.11124
1.26334
1.56728
2.55011
5.30442
12.435
12.0456
11.1042
10.4731