/*--------------------------------*- C++ -*----------------------------------*\
  =========                 |
  \\      /  F ield         | OpenFOAM: The Open Source CFD Toolbox
   \\    /   O peration     | Website:  https://openfoam.org
    \\  /    A nd           | Version:  6.0
     \\/     M anipulation  |
\*---------------------------------------------------------------------------*/
FoamFile
{
    version     2.0;
    format      ascii;
    class       volVectorField;
    location    "4.000310994";
    object      U;
}
// * * * * * * * * * * * * * * * * * * * * * * * * * * * * * * * * * * * * * //

dimensions      [0 1 -1 0 0 0 0];

internalField   nonuniform List<vector> 
24000
(
(3 1.36096e-15 0)
(3 -3.66137e-16 0)
(3 1.04273e-15 0)
(3 -1.09048e-15 0)
(3 -6.82035e-16 0)
(3 -1.89174e-16 0)
(3 -4.41348e-16 0)
(3 8.35855e-17 0)
(3 1.70317e-15 0)
(3 7.14514e-16 0)
(1.29341 0.00802382 0)
(0.720163 0.00838559 0)
(0.646164 0.00994341 0)
(0.576175 0.0108431 0)
(0.501881 0.0115682 0)
(0.425004 0.012393 0)
(0.344216 0.0132964 0)
(0.257463 0.0147085 0)
(0.1624 0.0160009 0)
(0.0620239 0.0186463 0)
(3 8.54e-16 0)
(3 1.96062e-16 0)
(3 1.98443e-16 0)
(3 -1.65896e-15 0)
(3 -1.26275e-15 0)
(3 6.32079e-16 0)
(3 3.48408e-16 0)
(3 1.29474e-16 0)
(3 2.79318e-15 0)
(3 1.08957e-15 0)
(1.29219 0.0285487 0)
(0.715154 0.0258512 0)
(0.640171 0.0288671 0)
(0.570063 0.0317136 0)
(0.495621 0.0339979 0)
(0.418826 0.0366626 0)
(0.338621 0.0396519 0)
(0.253204 0.0442472 0)
(0.159841 0.0484468 0)
(0.061377 0.0565702 0)
(3 4.58804e-16 0)
(3 -5.05638e-16 0)
(3 -3.6083e-16 0)
(3 -6.44146e-16 0)
(3 -1.2339e-16 0)
(3 -1.41904e-16 0)
(3 -8.59397e-16 0)
(3 1.50777e-15 0)
(3 9.47009e-16 0)
(3 -2.53303e-16 0)
(1.30272 0.050228 0)
(0.715849 0.0440583 0)
(0.638708 0.0488741 0)
(0.567421 0.0534392 0)
(0.491771 0.0570816 0)
(0.413821 0.0612528 0)
(0.332763 0.0658031 0)
(0.247544 0.073067 0)
(0.155539 0.0798655 0)
(0.0600123 0.0934087 0)
(3 5.92975e-16 0)
(3 6.73417e-16 0)
(3 1.80447e-16 0)
(3 1.01014e-15 0)
(3 6.01176e-16 0)
(3 -4.08475e-16 0)
(3 -1.0904e-16 0)
(3 -1.04482e-15 0)
(3 -1.59637e-15 0)
(3 -1.64546e-15 0)
(1.32074 0.0710788 0)
(0.719307 0.0624585 0)
(0.640773 0.0689346 0)
(0.568974 0.0754188 0)
(0.49228 0.0806833 0)
(0.412874 0.0866008 0)
(0.330054 0.0926853 0)
(0.243613 0.102189 0)
(0.151462 0.110933 0)
(0.058235 0.129308 0)
(3 4.12581e-16 0)
(3 5.29556e-16 0)
(3 8.38599e-16 0)
(3 4.37196e-16 0)
(3 1.03351e-15 0)
(3 4.74155e-16 0)
(3 7.26248e-17 0)
(3 -3.21906e-16 0)
(3 1.28178e-15 0)
(3 -1.54057e-15 0)
(1.34391 0.0913622 0)
(0.723177 0.0810904 0)
(0.643287 0.0891156 0)
(0.571652 0.0974936 0)
(0.494757 0.104472 0)
(0.414732 0.11234 0)
(0.330567 0.120138 0)
(0.24264 0.131831 0)
(0.149363 0.142029 0)
(0.0573555 0.164407 0)
(3 -6.27599e-16 0)
(3 -5.89849e-16 0)
(3 -7.90713e-16 0)
(3 -1.41068e-15 0)
(3 -6.88708e-16 0)
(3 -2.96176e-16 0)
(3 -3.16303e-16 0)
(3 -1.4267e-16 0)
(3 -2.38282e-16 0)
(3 -4.97786e-16 0)
(1.37241 0.111364 0)
(0.727172 0.0999019 0)
(0.6457 0.109329 0)
(0.574614 0.119561 0)
(0.498007 0.128339 0)
(0.417955 0.138376 0)
(0.33284 0.148158 0)
(0.243304 0.162152 0)
(0.148136 0.173473 0)
(0.0562661 0.199053 0)
(3 -8.76551e-16 0)
(3 8.72156e-16 0)
(3 7.64528e-16 0)
(3 1.76812e-17 0)
(3 -1.52639e-15 0)
(3 -9.9314e-16 0)
(3 -3.80006e-16 0)
(3 -5.74834e-16 0)
(3 6.15086e-16 0)
(3 -1.51974e-15 0)
(1.40687 0.131354 0)
(0.73145 0.119029 0)
(0.647792 0.129532 0)
(0.577484 0.141512 0)
(0.501552 0.152123 0)
(0.422101 0.164523 0)
(0.336847 0.176587 0)
(0.246508 0.193125 0)
(0.149613 0.205508 0)
(0.0570221 0.233745 0)
(3 2.94643e-17 0)
(3 8.2792e-16 0)
(3 4.62645e-16 0)
(3 -2.09756e-16 0)
(3 -2.72922e-16 0)
(3 9.00942e-18 0)
(3 -2.02335e-15 0)
(3 7.90009e-16 0)
(3 1.14595e-16 0)
(3 -1.63798e-15 0)
(1.44809 0.15143 0)
(0.7364 0.138673 0)
(0.649691 0.149743 0)
(0.580229 0.163278 0)
(0.505245 0.175697 0)
(0.426795 0.19063 0)
(0.341569 0.20538 0)
(0.250094 0.224898 0)
(0.150746 0.238442 0)
(0.0566401 0.26887 0)
(3 1.0309e-15 0)
(3 1.3374e-15 0)
(3 -4.24385e-16 0)
(3 3.92085e-16 0)
(3 -1.30389e-15 0)
(3 -1.30074e-15 0)
(3 -6.49925e-16 0)
(3 4.53925e-16 0)
(3 2.28543e-16 0)
(3 -1.16541e-15 0)
(1.49683 0.17154 0)
(0.74236 0.15904 0)
(0.65163 0.170024 0)
(0.582937 0.184841 0)
(0.509019 0.198985 0)
(0.432023 0.216555 0)
(0.347747 0.234307 0)
(0.256424 0.257193 0)
(0.155287 0.272236 0)
(0.0589033 0.304748 0)
(3 -7.68122e-17 0)
(3 -5.46028e-16 0)
(3 -2.6798e-16 0)
(3 -7.97084e-16 0)
(3 -9.69118e-16 0)
(3 -9.05362e-16 0)
(3 2.32809e-15 0)
(3 -2.2051e-16 0)
(3 -2.12519e-16 0)
(3 -1.47868e-15 0)
(1.55377 0.191552 0)
(0.749562 0.180307 0)
(0.653826 0.190439 0)
(0.585832 0.206207 0)
(0.513095 0.221929 0)
(0.437749 0.2422 0)
(0.354367 0.263392 0)
(0.262596 0.290364 0)
(0.15868 0.307546 0)
(0.0592115 0.342017 0)
(3 -4.14948e-16 0)
(3 -1.36864e-15 0)
(3 -8.94203e-16 0)
(3 -1.16466e-15 0)
(3 1.44939e-15 0)
(3 3.56738e-16 0)
(3 1.39591e-15 0)
(3 2.19629e-16 0)
(3 -2.78427e-16 0)
(3 -2.3479e-15 0)
(1.61959 0.21129 0)
(0.758174 0.20262 0)
(0.656429 0.211042 0)
(0.589011 0.227392 0)
(0.517505 0.244495 0)
(0.444218 0.267433 0)
(0.362759 0.292282 0)
(0.272165 0.32377 0)
(0.16644 0.343886 0)
(0.0631415 0.380775 0)
(3 5.46731e-17 0)
(3 -4.56833e-16 0)
(3 -8.68966e-16 0)
(3 6.05085e-16 0)
(3 2.80337e-16 0)
(3 -1.49515e-15 0)
(3 -1.96124e-15 0)
(3 1.92003e-17 0)
(3 5.09893e-16 0)
(3 -1.09283e-15 0)
(1.69489 0.230609 0)
(0.768359 0.226098 0)
(0.659611 0.231852 0)
(0.592739 0.248416 0)
(0.522454 0.266694 0)
(0.451125 0.292293 0)
(0.371184 0.321269 0)
(0.280825 0.358323 0)
(0.171892 0.382666 0)
(0.0638237 0.42207 0)
(3 6.49382e-16 0)
(3 6.71469e-16 0)
(3 9.35367e-17 0)
(3 -6.7927e-16 0)
(3 -4.01289e-16 0)
(3 -1.79764e-15 0)
(3 6.52932e-17 0)
(3 1.0691e-15 0)
(3 4.52088e-16 0)
(3 -4.59519e-16 0)
(1.78032 0.249278 0)
(0.780245 0.25086 0)
(0.663294 0.252864 0)
(0.596951 0.26925 0)
(0.528153 0.288422 0)
(0.459403 0.316528 0)
(0.382266 0.349704 0)
(0.294349 0.392687 0)
(0.18377 0.422581 0)
(0.0699613 0.465689 0)
(3 -2.54205e-16 0)
(3 -1.309e-16 0)
(3 -1.98335e-16 0)
(3 1.83387e-15 0)
(3 1.88806e-15 0)
(3 1.07465e-15 0)
(3 2.8833e-16 0)
(3 -2.97766e-16 0)
(3 -6.74786e-16 0)
(3 -9.38464e-16 0)
(1.87666 0.267444 0)
(0.794233 0.277094 0)
(0.667797 0.27413 0)
(0.601798 0.290017 0)
(0.534215 0.309836 0)
(0.467996 0.340366 0)
(0.393491 0.3781 0)
(0.307283 0.428481 0)
(0.192949 0.466394 0)
(0.0714719 0.513782 0)
(3 -4.86955e-16 0)
(3 -1.84891e-15 0)
(3 1.41361e-15 0)
(3 8.53792e-16 0)
(3 7.4452e-16 0)
(3 1.41836e-15 0)
(3 6.17627e-16 0)
(3 -1.31922e-15 0)
(3 -3.51474e-16 0)
(3 -2.26494e-15 0)
(1.98548 0.284025 0)
(0.811324 0.304734 0)
(0.673662 0.295335 0)
(0.608167 0.310384 0)
(0.542242 0.330354 0)
(0.479007 0.363037 0)
(0.40778 0.405529 0)
(0.326359 0.463336 0)
(0.211288 0.511482 0)
(0.0809487 0.565723 0)
(3 4.14945e-16 0)
(3 1.5684e-15 0)
(3 7.2242e-16 0)
(3 9.35743e-16 0)
(3 5.65927e-16 0)
(3 3.81916e-16 0)
(3 4.03484e-16 0)
(3 3.23473e-16 0)
(3 2.11491e-16 0)
(3 -1.20412e-15 0)
(2.10694 0.299565 0)
(0.832068 0.334395 0)
(0.680294 0.317479 0)
(0.61407 0.331496 0)
(0.54879 0.351217 0)
(0.48899 0.385784 0)
(0.423155 0.432757 0)
(0.344716 0.499772 0)
(0.227021 0.562926 0)
(0.0836561 0.625995 0)
(3 -3.10598e-16 0)
(3 4.37087e-16 0)
(3 5.04588e-16 0)
(3 1.34534e-15 0)
(3 6.79105e-16 0)
(3 2.67581e-15 0)
(3 8.55135e-16 0)
(3 2.43875e-16 0)
(3 7.36144e-16 0)
(3 -7.25778e-16 0)
(2.23975 0.308975 0)
(0.858111 0.364604 0)
(0.691855 0.337732 0)
(0.62588 0.351361 0)
(0.560987 0.370098 0)
(0.503755 0.405876 0)
(0.442768 0.457142 0)
(0.370103 0.534879 0)
(0.256145 0.615559 0)
(0.100392 0.693648 0)
(3 4.80504e-16 0)
(3 -2.2074e-16 0)
(3 -8.35044e-17 0)
(3 2.02918e-16 0)
(3 -2.46083e-16 0)
(3 -8.14792e-16 0)
(3 -2.74994e-16 0)
(3 -8.83933e-16 0)
(3 -5.89698e-16 0)
(3 6.23638e-16 0)
(2.38111 0.315671 0)
(0.883039 0.400066 0)
(0.6971 0.362663 0)
(0.631843 0.375069 0)
(0.566877 0.391566 0)
(0.514644 0.427135 0)
(0.459141 0.481633 0)
(0.398093 0.570307 0)
(0.284828 0.677775 0)
(0.106705 0.779873 0)
(3 2.2938e-16 0)
(3 2.86811e-16 0)
(3 3.00401e-16 0)
(3 5.19436e-16 0)
(3 -5.39073e-16 0)
(3 -1.7798e-15 0)
(3 -7.09636e-16 0)
(3 7.92065e-17 0)
(3 1.96735e-15 0)
(3 -3.47537e-15 0)
(2.57645 0.318131 0)
(0.93402 0.434053 0)
(0.725489 0.383928 0)
(0.6595 0.397896 0)
(0.589592 0.412519 0)
(0.53486 0.446842 0)
(0.480055 0.504429 0)
(0.432362 0.604055 0)
(0.335802 0.738511 0)
(0.134268 0.877927 0)
(3 -6.74018e-16 0)
(3 9.38781e-16 0)
(3 -9.07139e-17 0)
(3 6.33593e-17 0)
(3 -2.90645e-16 0)
(3 2.01388e-16 0)
(3 1.1135e-16 0)
(3 6.53572e-16 0)
(3 1.35218e-15 0)
(3 2.98934e-16 0)
(2.82813 0.278791 0)
(1.01262 0.4656 0)
(0.781978 0.401032 0)
(0.717263 0.41542 0)
(0.640707 0.430657 0)
(0.575541 0.465661 0)
(0.515717 0.524985 0)
(0.475222 0.632592 0)
(0.402702 0.805524 0)
(0.201567 1.03827 0)
(3 5.6115e-16 0)
(3 1.03431e-15 0)
(3 1.27652e-16 0)
(3 3.87643e-16 0)
(3 4.82521e-16 0)
(3 1.91895e-16 0)
(3 -5.65833e-17 0)
(3 9.44571e-16 0)
(3 1.81779e-16 0)
(3 -4.63915e-16 0)
(1.29341 0.00802382 0)
(0.720163 0.00838559 0)
(0.646164 0.00994341 0)
(0.576175 0.0108431 0)
(0.501881 0.0115682 0)
(0.425004 0.012393 0)
(0.344216 0.0132964 0)
(0.257463 0.0147085 0)
(0.1624 0.0160009 0)
(0.0620239 0.0186463 0)
(3 1.86271e-16 0)
(3 1.287e-16 0)
(3 -5.83388e-16 0)
(3 -6.26783e-17 0)
(3 6.03e-16 0)
(3 2.167e-16 0)
(3 -9.33956e-17 0)
(3 4.82964e-16 0)
(3 5.80982e-16 0)
(3 -3.82223e-16 0)
(1.29219 0.0285487 0)
(0.715154 0.0258512 0)
(0.640171 0.0288671 0)
(0.570063 0.0317136 0)
(0.495621 0.0339979 0)
(0.418826 0.0366626 0)
(0.338621 0.0396519 0)
(0.253204 0.0442472 0)
(0.159841 0.0484468 0)
(0.061377 0.0565702 0)
(3 -6.05492e-16 0)
(3 -4.55847e-16 0)
(3 -6.00095e-16 0)
(3 -3.22801e-16 0)
(3 3.28471e-16 0)
(3 5.74415e-16 0)
(3 -2.18554e-16 0)
(3 -1.09557e-15 0)
(3 -2.60961e-16 0)
(3 1.38093e-16 0)
(1.30272 0.050228 0)
(0.715849 0.0440583 0)
(0.638708 0.0488741 0)
(0.567421 0.0534392 0)
(0.491771 0.0570816 0)
(0.413821 0.0612528 0)
(0.332763 0.0658031 0)
(0.247544 0.073067 0)
(0.155539 0.0798655 0)
(0.0600123 0.0934087 0)
(3 -1.36073e-16 0)
(3 6.24944e-16 0)
(3 5.224e-16 0)
(3 1.72606e-16 0)
(3 2.26221e-16 0)
(3 3.0987e-16 0)
(3 -5.75272e-16 0)
(3 -5.99957e-16 0)
(3 -1.04684e-15 0)
(3 -4.52496e-17 0)
(1.32074 0.0710788 0)
(0.719307 0.0624585 0)
(0.640773 0.0689346 0)
(0.568974 0.0754188 0)
(0.49228 0.0806833 0)
(0.412874 0.0866008 0)
(0.330054 0.0926853 0)
(0.243613 0.102189 0)
(0.151462 0.110933 0)
(0.058235 0.129308 0)
(3 4.88781e-16 0)
(3 5.48593e-16 0)
(3 1.34758e-15 0)
(3 7.79738e-16 0)
(3 1.76517e-16 0)
(3 3.47161e-16 0)
(3 1.01168e-16 0)
(3 -3.15508e-16 0)
(3 -5.47827e-17 0)
(3 1.48662e-16 0)
(1.34391 0.0913622 0)
(0.723177 0.0810904 0)
(0.643287 0.0891156 0)
(0.571652 0.0974936 0)
(0.494757 0.104472 0)
(0.414732 0.11234 0)
(0.330567 0.120138 0)
(0.24264 0.131831 0)
(0.149363 0.142029 0)
(0.0573555 0.164407 0)
(3 -2.07839e-17 0)
(3 4.35596e-17 0)
(3 8.79781e-18 0)
(3 1.9282e-16 0)
(3 -3.47016e-16 0)
(3 -3.75228e-16 0)
(3 -4.65777e-16 0)
(3 -8.15328e-16 0)
(3 -6.37221e-16 0)
(3 -4.03831e-16 0)
(1.37241 0.111364 0)
(0.727172 0.0999019 0)
(0.6457 0.109329 0)
(0.574614 0.119561 0)
(0.498007 0.128339 0)
(0.417955 0.138376 0)
(0.33284 0.148158 0)
(0.243304 0.162152 0)
(0.148136 0.173473 0)
(0.0562661 0.199053 0)
(3 -6.72717e-17 0)
(3 3.06076e-16 0)
(3 1.84472e-16 0)
(3 -3.5037e-16 0)
(3 -7.259e-16 0)
(3 -7.43648e-16 0)
(3 -8.43328e-16 0)
(3 -4.76271e-16 0)
(3 4.23344e-16 0)
(3 -4.6167e-16 0)
(1.40687 0.131354 0)
(0.73145 0.119029 0)
(0.647792 0.129532 0)
(0.577484 0.141512 0)
(0.501552 0.152123 0)
(0.422101 0.164523 0)
(0.336847 0.176587 0)
(0.246508 0.193125 0)
(0.149613 0.205508 0)
(0.0570221 0.233745 0)
(3 -2.53996e-17 0)
(3 3.04467e-16 0)
(3 2.49317e-16 0)
(3 5.20559e-17 0)
(3 3.45206e-17 0)
(3 -5.84673e-16 0)
(3 -6.59286e-16 0)
(3 -7.36753e-16 0)
(3 5.7788e-16 0)
(3 -8.6326e-16 0)
(1.44809 0.15143 0)
(0.7364 0.138673 0)
(0.649691 0.149743 0)
(0.580229 0.163278 0)
(0.505245 0.175697 0)
(0.426795 0.19063 0)
(0.341569 0.20538 0)
(0.250094 0.224898 0)
(0.150746 0.238442 0)
(0.0566401 0.26887 0)
(3 3.22463e-17 0)
(3 -1.91659e-16 0)
(3 -2.43649e-16 0)
(3 -1.32696e-17 0)
(3 -2.5275e-16 0)
(3 -9.30882e-17 0)
(3 -2.77185e-16 0)
(3 -4.8871e-16 0)
(3 1.1488e-17 0)
(3 -2.49155e-16 0)
(1.49683 0.17154 0)
(0.74236 0.15904 0)
(0.65163 0.170024 0)
(0.582937 0.184841 0)
(0.509019 0.198985 0)
(0.432023 0.216555 0)
(0.347747 0.234307 0)
(0.256424 0.257193 0)
(0.155287 0.272236 0)
(0.0589033 0.304748 0)
(3 -1.90945e-16 0)
(3 -2.36642e-16 0)
(3 2.19383e-16 0)
(3 9.95162e-17 0)
(3 -2.60781e-16 0)
(3 -1.59085e-16 0)
(3 1.70132e-16 0)
(3 1.84512e-16 0)
(3 -9.84725e-16 0)
(3 4.19819e-17 0)
(1.55377 0.191552 0)
(0.749562 0.180307 0)
(0.653826 0.190439 0)
(0.585832 0.206207 0)
(0.513095 0.221929 0)
(0.437749 0.2422 0)
(0.354367 0.263392 0)
(0.262596 0.290364 0)
(0.15868 0.307546 0)
(0.0592115 0.342017 0)
(3 -1.79637e-16 0)
(3 7.12311e-17 0)
(3 1.4536e-16 0)
(3 1.93267e-16 0)
(3 5.1862e-16 0)
(3 -3.488e-16 0)
(3 -2.9568e-16 0)
(3 3.24877e-16 0)
(3 -4.24437e-16 0)
(3 -2.8204e-16 0)
(1.61959 0.21129 0)
(0.758174 0.20262 0)
(0.656429 0.211042 0)
(0.589011 0.227392 0)
(0.517505 0.244495 0)
(0.444218 0.267433 0)
(0.362759 0.292282 0)
(0.272165 0.32377 0)
(0.16644 0.343886 0)
(0.0631415 0.380775 0)
(3 -2.72816e-16 0)
(3 -3.8697e-16 0)
(3 -5.57978e-16 0)
(3 -8.75113e-16 0)
(3 -6.13034e-16 0)
(3 -3.7423e-16 0)
(3 -4.06851e-16 0)
(3 -1.6619e-16 0)
(3 -1.57847e-17 0)
(3 -7.51558e-16 0)
(1.69489 0.230609 0)
(0.768359 0.226098 0)
(0.659611 0.231852 0)
(0.592739 0.248416 0)
(0.522454 0.266694 0)
(0.451125 0.292293 0)
(0.371184 0.321269 0)
(0.280825 0.358323 0)
(0.171892 0.382666 0)
(0.0638237 0.42207 0)
(3 2.77191e-16 0)
(3 -2.56987e-18 0)
(3 -3.43807e-16 0)
(3 -7.02134e-16 0)
(3 -7.13457e-16 0)
(3 -1.69067e-16 0)
(3 -2.70372e-16 0)
(3 -3.62376e-16 0)
(3 -1.95924e-16 0)
(3 -5.80864e-16 0)
(1.78032 0.249278 0)
(0.780245 0.25086 0)
(0.663294 0.252864 0)
(0.596951 0.26925 0)
(0.528153 0.288422 0)
(0.459403 0.316528 0)
(0.382266 0.349704 0)
(0.294349 0.392687 0)
(0.18377 0.422581 0)
(0.0699613 0.465689 0)
(3 1.03834e-16 0)
(3 -1.97863e-16 0)
(3 1.20568e-16 0)
(3 -4.8756e-17 0)
(3 -2.13404e-16 0)
(3 -2.41313e-16 0)
(3 -1.30627e-16 0)
(3 -1.7288e-16 0)
(3 -1.16104e-16 0)
(3 -7.12464e-16 0)
(1.87666 0.267444 0)
(0.794233 0.277094 0)
(0.667797 0.27413 0)
(0.601798 0.290017 0)
(0.534215 0.309836 0)
(0.467996 0.340366 0)
(0.393491 0.3781 0)
(0.307283 0.428481 0)
(0.192949 0.466394 0)
(0.0714719 0.513782 0)
(3 -1.09181e-16 0)
(3 -3.03682e-16 0)
(3 -3.25025e-17 0)
(3 2.47927e-16 0)
(3 -1.079e-16 0)
(3 3.89048e-17 0)
(3 5.0377e-16 0)
(3 6.1678e-16 0)
(3 3.8184e-16 0)
(3 9.57872e-17 0)
(1.98548 0.284025 0)
(0.811324 0.304734 0)
(0.673662 0.295335 0)
(0.608167 0.310384 0)
(0.542242 0.330354 0)
(0.479007 0.363037 0)
(0.40778 0.405529 0)
(0.326359 0.463336 0)
(0.211288 0.511482 0)
(0.0809487 0.565723 0)
(3 -1.32992e-16 0)
(3 3.41366e-16 0)
(3 1.63011e-16 0)
(3 1.90892e-17 0)
(3 4.96423e-16 0)
(3 7.03058e-16 0)
(3 6.39262e-16 0)
(3 4.89105e-16 0)
(3 6.79737e-16 0)
(3 1.04679e-15 0)
(2.10694 0.299565 0)
(0.832068 0.334395 0)
(0.680294 0.317479 0)
(0.61407 0.331496 0)
(0.54879 0.351217 0)
(0.48899 0.385784 0)
(0.423155 0.432757 0)
(0.344716 0.499772 0)
(0.227021 0.562926 0)
(0.0836561 0.625995 0)
(3 -1.04215e-16 0)
(3 7.41606e-17 0)
(3 4.02035e-16 0)
(3 -9.41945e-17 0)
(3 7.85513e-16 0)
(3 1.66657e-15 0)
(3 9.15267e-16 0)
(3 9.57093e-16 0)
(3 9.90274e-16 0)
(3 6.21633e-16 0)
(2.23975 0.308975 0)
(0.858111 0.364604 0)
(0.691855 0.337732 0)
(0.62588 0.351361 0)
(0.560987 0.370098 0)
(0.503755 0.405876 0)
(0.442768 0.457142 0)
(0.370103 0.534879 0)
(0.256145 0.615559 0)
(0.100392 0.693648 0)
(3 -8.23127e-17 0)
(3 8.76677e-17 0)
(3 -1.65996e-16 0)
(3 3.61725e-16 0)
(3 7.51958e-17 0)
(3 5.42506e-17 0)
(3 4.57227e-16 0)
(3 1.35684e-15 0)
(3 8.07011e-16 0)
(3 8.30682e-16 0)
(2.38111 0.315671 0)
(0.883039 0.400066 0)
(0.6971 0.362663 0)
(0.631843 0.375069 0)
(0.566877 0.391566 0)
(0.514644 0.427135 0)
(0.459141 0.481633 0)
(0.398093 0.570307 0)
(0.284828 0.677775 0)
(0.106705 0.779873 0)
(3 3.1748e-17 0)
(3 6.22747e-17 0)
(3 9.33617e-18 0)
(3 7.19592e-16 0)
(3 1.73325e-16 0)
(3 1.078e-16 0)
(3 5.90564e-16 0)
(3 1.50278e-16 0)
(3 8.63199e-17 0)
(3 -1.91672e-16 0)
(2.57645 0.318131 0)
(0.93402 0.434053 0)
(0.725489 0.383928 0)
(0.6595 0.397896 0)
(0.589592 0.412519 0)
(0.53486 0.446842 0)
(0.480055 0.504429 0)
(0.432362 0.604055 0)
(0.335802 0.738511 0)
(0.134268 0.877927 0)
(3 2.60893e-16 0)
(3 5.89594e-16 0)
(3 1.08708e-15 0)
(3 1.3515e-15 0)
(3 6.66741e-16 0)
(3 7.14075e-16 0)
(3 5.86479e-16 0)
(3 4.39884e-16 0)
(3 1.09192e-16 0)
(3 -1.27933e-16 0)
(2.82813 0.278791 0)
(1.01262 0.4656 0)
(0.781978 0.401032 0)
(0.717263 0.41542 0)
(0.640707 0.430657 0)
(0.575541 0.465661 0)
(0.515717 0.524985 0)
(0.475222 0.632592 0)
(0.402702 0.805524 0)
(0.201567 1.03827 0)
(3 2.17541e-16 0)
(3 2.24568e-16 0)
(3 1.26608e-16 0)
(3 1.25939e-16 0)
(3 3.49899e-16 0)
(3 2.89029e-16 0)
(3 -9.64885e-17 0)
(3 5.81634e-16 0)
(3 3.22537e-16 0)
(3 -1.22816e-15 0)
(1.29341 0.00802382 0)
(0.720163 0.00838559 0)
(0.646164 0.00994341 0)
(0.576175 0.0108431 0)
(0.501881 0.0115682 0)
(0.425004 0.012393 0)
(0.344216 0.0132964 0)
(0.257463 0.0147085 0)
(0.1624 0.0160009 0)
(0.0620239 0.0186463 0)
(3 1.3359e-17 0)
(3 -1.32613e-17 0)
(3 -4.57015e-16 0)
(3 -2.10624e-16 0)
(3 5.43315e-16 0)
(3 4.99325e-16 0)
(3 1.06886e-16 0)
(3 2.79857e-16 0)
(3 3.51111e-16 0)
(3 -6.11604e-16 0)
(1.29219 0.0285487 0)
(0.715154 0.0258512 0)
(0.640171 0.0288671 0)
(0.570063 0.0317136 0)
(0.495621 0.0339979 0)
(0.418826 0.0366626 0)
(0.338621 0.0396519 0)
(0.253204 0.0442472 0)
(0.159841 0.0484468 0)
(0.061377 0.0565702 0)
(3 -4.73888e-16 0)
(3 -2.75737e-16 0)
(3 -2.9005e-16 0)
(3 -3.14296e-16 0)
(3 3.67204e-16 0)
(3 7.35549e-16 0)
(3 2.11302e-16 0)
(3 -6.97414e-16 0)
(3 -2.61169e-16 0)
(3 5.01018e-16 0)
(1.30272 0.050228 0)
(0.715849 0.0440583 0)
(0.638708 0.0488741 0)
(0.567421 0.0534392 0)
(0.491771 0.0570816 0)
(0.413821 0.0612528 0)
(0.332763 0.0658031 0)
(0.247544 0.073067 0)
(0.155539 0.0798655 0)
(0.0600123 0.0934087 0)
(3 1.87703e-16 0)
(3 1.9108e-16 0)
(3 4.07886e-16 0)
(3 3.5617e-16 0)
(3 3.59749e-16 0)
(3 1.97854e-16 0)
(3 -3.29487e-17 0)
(3 -2.14005e-16 0)
(3 -2.97172e-16 0)
(3 1.70841e-17 0)
(1.32074 0.0710788 0)
(0.719307 0.0624585 0)
(0.640773 0.0689346 0)
(0.568974 0.0754188 0)
(0.49228 0.0806833 0)
(0.412874 0.0866008 0)
(0.330054 0.0926853 0)
(0.243613 0.102189 0)
(0.151462 0.110933 0)
(0.058235 0.129308 0)
(3 1.68353e-16 0)
(3 2.47739e-16 0)
(3 3.96821e-16 0)
(3 4.9221e-16 0)
(3 4.02252e-16 0)
(3 -2.06485e-16 0)
(3 9.14047e-17 0)
(3 -1.57061e-16 0)
(3 -2.29832e-16 0)
(3 8.26708e-17 0)
(1.34391 0.0913622 0)
(0.723177 0.0810904 0)
(0.643287 0.0891156 0)
(0.571652 0.0974936 0)
(0.494757 0.104472 0)
(0.414732 0.11234 0)
(0.330567 0.120138 0)
(0.24264 0.131831 0)
(0.149363 0.142029 0)
(0.0573555 0.164407 0)
(3 -5.3114e-17 0)
(3 3.24812e-16 0)
(3 2.61321e-16 0)
(3 1.89453e-16 0)
(3 -2.73679e-16 0)
(3 -3.257e-16 0)
(3 -6.41818e-16 0)
(3 -6.58196e-16 0)
(3 -4.78856e-16 0)
(3 -6.2899e-16 0)
(1.37241 0.111364 0)
(0.727172 0.0999019 0)
(0.6457 0.109329 0)
(0.574614 0.119561 0)
(0.498007 0.128339 0)
(0.417955 0.138376 0)
(0.33284 0.148158 0)
(0.243304 0.162152 0)
(0.148136 0.173473 0)
(0.0562661 0.199053 0)
(3 5.42969e-17 0)
(3 6.93951e-16 0)
(3 4.88292e-16 0)
(3 -3.71543e-17 0)
(3 -3.79819e-16 0)
(3 -3.87269e-16 0)
(3 -8.8474e-16 0)
(3 -8.12311e-16 0)
(3 -1.22741e-16 0)
(3 -6.15592e-16 0)
(1.40687 0.131354 0)
(0.73145 0.119029 0)
(0.647792 0.129532 0)
(0.577484 0.141512 0)
(0.501552 0.152123 0)
(0.422101 0.164523 0)
(0.336847 0.176587 0)
(0.246508 0.193125 0)
(0.149613 0.205508 0)
(0.0570221 0.233745 0)
(3 -1.85799e-17 0)
(3 -1.04866e-16 0)
(3 3.13475e-16 0)
(3 1.0675e-16 0)
(3 -3.02577e-16 0)
(3 -3.84461e-16 0)
(3 -3.12998e-16 0)
(3 -8.59779e-16 0)
(3 3.57946e-16 0)
(3 -5.25427e-16 0)
(1.44809 0.15143 0)
(0.7364 0.138673 0)
(0.649691 0.149743 0)
(0.580229 0.163278 0)
(0.505245 0.175697 0)
(0.426795 0.19063 0)
(0.341569 0.20538 0)
(0.250094 0.224898 0)
(0.150746 0.238442 0)
(0.0566401 0.26887 0)
(3 -4.06715e-17 0)
(3 -4.65429e-16 0)
(3 -2.27098e-16 0)
(3 3.34852e-16 0)
(3 -2.39065e-16 0)
(3 -4.92303e-16 0)
(3 -2.18068e-16 0)
(3 -1.2187e-16 0)
(3 -1.41344e-16 0)
(3 -1.72435e-16 0)
(1.49683 0.17154 0)
(0.74236 0.15904 0)
(0.65163 0.170024 0)
(0.582937 0.184841 0)
(0.509019 0.198985 0)
(0.432023 0.216555 0)
(0.347747 0.234307 0)
(0.256424 0.257193 0)
(0.155287 0.272236 0)
(0.0589033 0.304748 0)
(3 7.35723e-17 0)
(3 1.0027e-16 0)
(3 8.87196e-17 0)
(3 1.1569e-16 0)
(3 -1.93656e-16 0)
(3 -3.99044e-16 0)
(3 -4.34745e-16 0)
(3 1.88871e-16 0)
(3 -4.44711e-16 0)
(3 -1.94686e-16 0)
(1.55377 0.191552 0)
(0.749562 0.180307 0)
(0.653826 0.190439 0)
(0.585832 0.206207 0)
(0.513095 0.221929 0)
(0.437749 0.2422 0)
(0.354367 0.263392 0)
(0.262596 0.290364 0)
(0.15868 0.307546 0)
(0.0592115 0.342017 0)
(3 6.99706e-17 0)
(3 2.26208e-16 0)
(3 1.89124e-16 0)
(3 -2.69424e-16 0)
(3 -1.85553e-16 0)
(3 -5.5582e-16 0)
(3 -4.63748e-16 0)
(3 5.25666e-17 0)
(3 -6.85927e-16 0)
(3 -4.77609e-16 0)
(1.61959 0.21129 0)
(0.758174 0.20262 0)
(0.656429 0.211042 0)
(0.589011 0.227392 0)
(0.517505 0.244495 0)
(0.444218 0.267433 0)
(0.362759 0.292282 0)
(0.272165 0.32377 0)
(0.16644 0.343886 0)
(0.0631415 0.380775 0)
(3 -6.00801e-17 0)
(3 -1.77043e-16 0)
(3 -4.41736e-16 0)
(3 -7.184e-16 0)
(3 -6.02685e-16 0)
(3 -6.5118e-16 0)
(3 -1.26473e-16 0)
(3 -2.08187e-16 0)
(3 -9.65034e-17 0)
(3 -6.837e-16 0)
(1.69489 0.230609 0)
(0.768359 0.226098 0)
(0.659611 0.231852 0)
(0.592739 0.248416 0)
(0.522454 0.266694 0)
(0.451125 0.292293 0)
(0.371184 0.321269 0)
(0.280825 0.358323 0)
(0.171892 0.382666 0)
(0.0638237 0.42207 0)
(3 1.86719e-16 0)
(3 4.15183e-17 0)
(3 -1.57141e-16 0)
(3 -1.67461e-16 0)
(3 -3.25951e-16 0)
(3 1.74791e-17 0)
(3 -2.34437e-16 0)
(3 -2.21776e-16 0)
(3 2.32945e-16 0)
(3 -1.85731e-16 0)
(1.78032 0.249278 0)
(0.780245 0.25086 0)
(0.663294 0.252864 0)
(0.596951 0.26925 0)
(0.528153 0.288422 0)
(0.459403 0.316528 0)
(0.382266 0.349704 0)
(0.294349 0.392687 0)
(0.18377 0.422581 0)
(0.0699613 0.465689 0)
(3 1.06338e-16 0)
(3 1.09009e-16 0)
(3 2.19511e-17 0)
(3 3.57603e-17 0)
(3 2.43119e-16 0)
(3 -2.59312e-16 0)
(3 -3.91744e-16 0)
(3 -2.57897e-17 0)
(3 8.29613e-17 0)
(3 -6.50488e-16 0)
(1.87666 0.267444 0)
(0.794233 0.277094 0)
(0.667797 0.27413 0)
(0.601798 0.290017 0)
(0.534215 0.309836 0)
(0.467996 0.340366 0)
(0.393491 0.3781 0)
(0.307283 0.428481 0)
(0.192949 0.466394 0)
(0.0714719 0.513782 0)
(3 -9.98981e-17 0)
(3 -5.14546e-16 0)
(3 -1.71275e-16 0)
(3 1.00854e-16 0)
(3 1.51682e-16 0)
(3 9.5214e-17 0)
(3 2.63451e-16 0)
(3 3.5498e-16 0)
(3 2.40777e-16 0)
(3 1.25166e-16 0)
(1.98548 0.284025 0)
(0.811324 0.304734 0)
(0.673662 0.295335 0)
(0.608167 0.310384 0)
(0.542242 0.330354 0)
(0.479007 0.363037 0)
(0.40778 0.405529 0)
(0.326359 0.463336 0)
(0.211288 0.511482 0)
(0.0809487 0.565723 0)
(3 -6.7176e-17 0)
(3 -1.37383e-17 0)
(3 1.48866e-16 0)
(3 2.15758e-16 0)
(3 2.58015e-16 0)
(3 1.34175e-15 0)
(3 1.15022e-15 0)
(3 6.97366e-16 0)
(3 6.02917e-16 0)
(3 8.91539e-17 0)
(2.10694 0.299565 0)
(0.832068 0.334395 0)
(0.680294 0.317479 0)
(0.61407 0.331496 0)
(0.54879 0.351217 0)
(0.48899 0.385784 0)
(0.423155 0.432757 0)
(0.344716 0.499772 0)
(0.227021 0.562926 0)
(0.0836561 0.625995 0)
(3 -8.33011e-17 0)
(3 3.41207e-16 0)
(3 2.47499e-16 0)
(3 2.64463e-16 0)
(3 4.81657e-16 0)
(3 4.18913e-16 0)
(3 8.0518e-16 0)
(3 5.97261e-16 0)
(3 7.82304e-16 0)
(3 5.08541e-16 0)
(2.23975 0.308975 0)
(0.858111 0.364604 0)
(0.691855 0.337732 0)
(0.62588 0.351361 0)
(0.560987 0.370098 0)
(0.503755 0.405876 0)
(0.442768 0.457142 0)
(0.370103 0.534879 0)
(0.256145 0.615559 0)
(0.100392 0.693648 0)
(3 -1.78379e-16 0)
(3 1.83476e-16 0)
(3 -1.98752e-16 0)
(3 2.2694e-16 0)
(3 2.58668e-16 0)
(3 4.62047e-17 0)
(3 4.28462e-16 0)
(3 1.16127e-15 0)
(3 5.90765e-16 0)
(3 9.36109e-16 0)
(2.38111 0.315671 0)
(0.883039 0.400066 0)
(0.6971 0.362663 0)
(0.631843 0.375069 0)
(0.566877 0.391566 0)
(0.514644 0.427135 0)
(0.459141 0.481633 0)
(0.398093 0.570307 0)
(0.284828 0.677775 0)
(0.106705 0.779873 0)
(3 -6.03966e-17 0)
(3 -1.28493e-16 0)
(3 2.59754e-16 0)
(3 5.0206e-16 0)
(3 3.77321e-16 0)
(3 1.2016e-15 0)
(3 9.28658e-16 0)
(3 6.96305e-16 0)
(3 -1.9076e-17 0)
(3 -5.46708e-16 0)
(2.57645 0.318131 0)
(0.93402 0.434053 0)
(0.725489 0.383928 0)
(0.6595 0.397896 0)
(0.589592 0.412519 0)
(0.53486 0.446842 0)
(0.480055 0.504429 0)
(0.432362 0.604055 0)
(0.335802 0.738511 0)
(0.134268 0.877927 0)
(3 3.9412e-17 0)
(3 3.73329e-16 0)
(3 8.87044e-16 0)
(3 7.39859e-16 0)
(3 9.61905e-16 0)
(3 1.04159e-15 0)
(3 5.05411e-16 0)
(3 -3.88826e-16 0)
(3 -2.16837e-16 0)
(3 -3.23239e-16 0)
(2.82813 0.278791 0)
(1.01262 0.4656 0)
(0.781978 0.401032 0)
(0.717263 0.41542 0)
(0.640707 0.430657 0)
(0.575541 0.465661 0)
(0.515717 0.524985 0)
(0.475222 0.632592 0)
(0.402702 0.805524 0)
(0.201567 1.03827 0)
(3 4.04031e-17 0)
(3 -6.75491e-18 0)
(3 7.64377e-18 0)
(3 -6.7279e-17 0)
(3 2.72395e-16 0)
(3 2.46886e-16 0)
(3 3.02914e-16 0)
(3 3.42872e-16 0)
(3 6.5581e-17 0)
(3 -1.87766e-16 0)
(1.29341 0.00802382 0)
(0.720163 0.00838559 0)
(0.646164 0.00994341 0)
(0.576175 0.0108431 0)
(0.501881 0.0115682 0)
(0.425004 0.012393 0)
(0.344216 0.0132964 0)
(0.257463 0.0147085 0)
(0.1624 0.0160009 0)
(0.0620239 0.0186463 0)
(3 -7.7498e-17 0)
(3 -1.19979e-16 0)
(3 -2.00092e-16 0)
(3 -2.3952e-16 0)
(3 3.53049e-16 0)
(3 6.50139e-16 0)
(3 3.75684e-16 0)
(3 -1.65139e-17 0)
(3 6.10758e-17 0)
(3 -1.86317e-16 0)
(1.29219 0.0285487 0)
(0.715154 0.0258512 0)
(0.640171 0.0288671 0)
(0.570063 0.0317136 0)
(0.495621 0.0339979 0)
(0.418826 0.0366626 0)
(0.338621 0.0396519 0)
(0.253204 0.0442472 0)
(0.159841 0.0484468 0)
(0.061377 0.0565702 0)
(3 -2.30265e-16 0)
(3 -1.86463e-16 0)
(3 -5.3983e-16 0)
(3 -3.15466e-16 0)
(3 1.3154e-16 0)
(3 9.35801e-16 0)
(3 4.91976e-16 0)
(3 -1.22586e-16 0)
(3 1.65842e-16 0)
(3 -3.98098e-16 0)
(1.30272 0.050228 0)
(0.715849 0.0440583 0)
(0.638708 0.0488741 0)
(0.567421 0.0534392 0)
(0.491771 0.0570816 0)
(0.413821 0.0612528 0)
(0.332763 0.0658031 0)
(0.247544 0.073067 0)
(0.155539 0.0798655 0)
(0.0600123 0.0934087 0)
(3 3.09661e-16 0)
(3 -3.50575e-17 0)
(3 -1.414e-16 0)
(3 4.2357e-17 0)
(3 1.76807e-16 0)
(3 -3.05134e-16 0)
(3 2.64701e-16 0)
(3 1.81431e-16 0)
(3 -1.65093e-16 0)
(3 -6.85803e-16 0)
(1.32074 0.0710788 0)
(0.719307 0.0624585 0)
(0.640773 0.0689346 0)
(0.568974 0.0754188 0)
(0.49228 0.0806833 0)
(0.412874 0.0866008 0)
(0.330054 0.0926853 0)
(0.243613 0.102189 0)
(0.151462 0.110933 0)
(0.058235 0.129308 0)
(3 3.18279e-16 0)
(3 1.68349e-16 0)
(3 4.92431e-16 0)
(3 3.77217e-16 0)
(3 5.58284e-16 0)
(3 -1.72498e-16 0)
(3 1.69223e-16 0)
(3 -3.69139e-17 0)
(3 -2.61272e-16 0)
(3 -1.81643e-16 0)
(1.34391 0.0913622 0)
(0.723177 0.0810904 0)
(0.643287 0.0891156 0)
(0.571652 0.0974936 0)
(0.494757 0.104472 0)
(0.414732 0.11234 0)
(0.330567 0.120138 0)
(0.24264 0.131831 0)
(0.149363 0.142029 0)
(0.0573555 0.164407 0)
(3 -5.6497e-17 0)
(3 3.43798e-16 0)
(3 5.17258e-16 0)
(3 2.99126e-16 0)
(3 -2.37855e-17 0)
(3 -3.67569e-16 0)
(3 -6.44907e-16 0)
(3 -2.22018e-16 0)
(3 6.78651e-18 0)
(3 -1.52892e-16 0)
(1.37241 0.111364 0)
(0.727172 0.0999019 0)
(0.6457 0.109329 0)
(0.574614 0.119561 0)
(0.498007 0.128339 0)
(0.417955 0.138376 0)
(0.33284 0.148158 0)
(0.243304 0.162152 0)
(0.148136 0.173473 0)
(0.0562661 0.199053 0)
(3 1.51979e-16 0)
(3 4.15961e-16 0)
(3 4.45799e-16 0)
(3 6.09714e-17 0)
(3 -6.91081e-16 0)
(3 -2.34199e-16 0)
(3 -1.01243e-15 0)
(3 -1.08427e-15 0)
(3 -6.07067e-16 0)
(3 6.70022e-16 0)
(1.40687 0.131354 0)
(0.73145 0.119029 0)
(0.647792 0.129532 0)
(0.577484 0.141512 0)
(0.501552 0.152123 0)
(0.422101 0.164523 0)
(0.336847 0.176587 0)
(0.246508 0.193125 0)
(0.149613 0.205508 0)
(0.0570221 0.233745 0)
(3 -8.86743e-17 0)
(3 1.43185e-17 0)
(3 4.3706e-16 0)
(3 1.62438e-16 0)
(3 -3.83083e-16 0)
(3 -1.5173e-16 0)
(3 -6.46363e-16 0)
(3 -1.28727e-15 0)
(3 -2.26478e-16 0)
(3 4.19439e-16 0)
(1.44809 0.15143 0)
(0.7364 0.138673 0)
(0.649691 0.149743 0)
(0.580229 0.163278 0)
(0.505245 0.175697 0)
(0.426795 0.19063 0)
(0.341569 0.20538 0)
(0.250094 0.224898 0)
(0.150746 0.238442 0)
(0.0566401 0.26887 0)
(3 -2.20333e-16 0)
(3 -2.22624e-16 0)
(3 -1.78895e-16 0)
(3 5.37084e-16 0)
(3 -3.37374e-16 0)
(3 -9.5121e-16 0)
(3 -3.49742e-16 0)
(3 3.3149e-17 0)
(3 2.236e-16 0)
(3 -1.32894e-15 0)
(1.49683 0.17154 0)
(0.74236 0.15904 0)
(0.65163 0.170024 0)
(0.582937 0.184841 0)
(0.509019 0.198985 0)
(0.432023 0.216555 0)
(0.347747 0.234307 0)
(0.256424 0.257193 0)
(0.155287 0.272236 0)
(0.0589033 0.304748 0)
(3 2.15786e-18 0)
(3 5.73921e-17 0)
(3 -1.70813e-16 0)
(3 3.42258e-17 0)
(3 -4.44089e-16 0)
(3 -1.17008e-15 0)
(3 -5.45558e-16 0)
(3 3.60944e-16 0)
(3 -1.82731e-16 0)
(3 -4.3916e-16 0)
(1.55377 0.191552 0)
(0.749562 0.180307 0)
(0.653826 0.190439 0)
(0.585832 0.206207 0)
(0.513095 0.221929 0)
(0.437749 0.2422 0)
(0.354367 0.263392 0)
(0.262596 0.290364 0)
(0.15868 0.307546 0)
(0.0592115 0.342017 0)
(3 3.72816e-16 0)
(3 2.32806e-16 0)
(3 -5.35111e-17 0)
(3 -5.57932e-16 0)
(3 -1.65123e-16 0)
(3 -5.25117e-16 0)
(3 -5.88231e-17 0)
(3 -6.92295e-17 0)
(3 -8.14443e-16 0)
(3 -6.50491e-16 0)
(1.61959 0.21129 0)
(0.758174 0.20262 0)
(0.656429 0.211042 0)
(0.589011 0.227392 0)
(0.517505 0.244495 0)
(0.444218 0.267433 0)
(0.362759 0.292282 0)
(0.272165 0.32377 0)
(0.16644 0.343886 0)
(0.0631415 0.380775 0)
(3 -7.29829e-17 0)
(3 -1.80722e-16 0)
(3 -1.46708e-16 0)
(3 -5.24555e-16 0)
(3 -3.15757e-16 0)
(3 -1.83252e-16 0)
(3 -1.85859e-16 0)
(3 1.97855e-17 0)
(3 4.41523e-17 0)
(3 -7.63722e-16 0)
(1.69489 0.230609 0)
(0.768359 0.226098 0)
(0.659611 0.231852 0)
(0.592739 0.248416 0)
(0.522454 0.266694 0)
(0.451125 0.292293 0)
(0.371184 0.321269 0)
(0.280825 0.358323 0)
(0.171892 0.382666 0)
(0.0638237 0.42207 0)
(3 1.21157e-16 0)
(3 5.40464e-17 0)
(3 1.00277e-16 0)
(3 -1.8516e-16 0)
(3 -1.56281e-16 0)
(3 -2.12333e-16 0)
(3 -3.21622e-16 0)
(3 -1.99573e-16 0)
(3 3.37944e-16 0)
(3 -1.79957e-16 0)
(1.78032 0.249278 0)
(0.780245 0.25086 0)
(0.663294 0.252864 0)
(0.596951 0.26925 0)