/*--------------------------------*- C++ -*----------------------------------*\
  =========                 |
  \\      /  F ield         | OpenFOAM: The Open Source CFD Toolbox
   \\    /   O peration     | Website:  https://openfoam.org
    \\  /    A nd           | Version:  6.0
     \\/     M anipulation  |
\*---------------------------------------------------------------------------*/
FoamFile
{
    version     2.0;
    format      ascii;
    class       volScalarField;
    location    "4.000201177";
    object      rho;
}
// * * * * * * * * * * * * * * * * * * * * * * * * * * * * * * * * * * * * * //

dimensions      [1 -3 0 0 0 0 0];

internalField   nonuniform List<scalar> 
192000
(
1.39997
1.39997
1.39997
1.39997
1.39997
1.39997
1.39997
1.39997
1.39997
1.39997
1.39997
1.39997
1.39997
1.39997
1.39997
1.39997
1.39997
1.39997
1.39997
1.39997
2.52676
5.16219
5.44849
5.48543
5.53923
5.58933
5.63825
5.68368
5.72449
5.76
5.79118
5.81928
5.84581
5.87226
5.89895
5.92421
5.94516
5.95916
5.96753
5.97443
1.39997
1.39997
1.39997
1.39997
1.39997
1.39997
1.39997
1.39997
1.39997
1.39997
1.39997
1.39997
1.39997
1.39997
1.39997
1.39997
1.39997
1.39997
1.39997
1.39997
2.52334
5.15429
5.4457
5.48341
5.53787
5.58896
5.6388
5.68492
5.72577
5.76067
5.79055
5.81771
5.84468
5.87233
5.89971
5.92422
5.94388
5.95738
5.9663
5.97362
1.39997
1.39997
1.39997
1.39997
1.39997
1.39997
1.39997
1.39997
1.39997
1.39997
1.39997
1.39997
1.39997
1.39997
1.39997
1.39997
1.39997
1.39997
1.39997
1.39997
2.51607
5.13989
5.43782
5.47806
5.53421
5.58686
5.63807
5.68517
5.72612
5.76039
5.7891
5.81544
5.8428
5.8717
5.89988
5.92391
5.94223
5.95497
5.96427
5.97205
1.39997
1.39997
1.39997
1.39997
1.39997
1.39997
1.39997
1.39997
1.39997
1.39997
1.39997
1.39997
1.39997
1.39997
1.39997
1.39997
1.39997
1.39997
1.39997
1.39997
2.50314
5.12333
5.42945
5.47257
5.5306
5.58472
5.63723
5.68486
5.72556
5.75909
5.78731
5.81361
5.84128
5.87073
5.89902
5.92232
5.9397
5.95208
5.96157
5.96952
1.39997
1.39997
1.39997
1.39997
1.39997
1.39997
1.39997
1.39997
1.39997
1.39997
1.39997
1.39997
1.39997
1.39997
1.39997
1.39997
1.39997
1.39997
1.39997
1.39997
2.48527
5.11051
5.42537
5.46888
5.52759
5.58262
5.63568
5.68296
5.72306
5.75624
5.78492
5.81206
5.84019
5.86933
5.89681
5.91942
5.93669
5.94905
5.95828
5.96592
1.39997
1.39997
1.39997
1.39997
1.39997
1.39997
1.39997
1.39997
1.39997
1.39997
1.39997
1.39997
1.39997
1.39997
1.39997
1.39997
1.39997
1.39997
1.39997
1.39997
2.46276
5.10367
5.42533
5.46764
5.52621
5.58121
5.6338
5.68048
5.71998
5.75312
5.78238
5.81052
5.83907
5.86716
5.89328
5.91564
5.93337
5.94584
5.95438
5.96136
1.39997
1.39997
1.39997
1.39997
1.39997
1.39997
1.39997
1.39997
1.39997
1.39997
1.39997
1.39997
1.39997
1.39997
1.39997
1.39997
1.39997
1.39997
1.39997
1.39997
2.43631
5.10377
5.42788
5.46774
5.52539
5.57981
5.63178
5.67798
5.71712
5.75017
5.77978
5.80846
5.83678
5.8639
5.88927
5.91174
5.9298
5.94207
5.94972
5.95602
1.39997
1.39997
1.39997
1.39997
1.39997
1.39997
1.39997
1.39997
1.39997
1.39997
1.39997
1.39997
1.39997
1.39997
1.39997
1.39997
1.39997
1.39997
1.39997
1.39997
2.40867
5.10426
5.43372
5.46906
5.52475
5.57835
5.62994
5.6758
5.71472
5.74761
5.77703
5.80529
5.83309
5.85996
5.88546
5.90807
5.9258
5.93739
5.94427
5.95019
1.39997
1.39997
1.39997
1.39997
1.39997
1.39997
1.39997
1.39997
1.39997
1.39997
1.39997
1.39997
1.39997
1.39997
1.39997
1.39997
1.39997
1.39997
1.39997
1.39997
2.37024
5.08143
5.43165
5.46699
5.52277
5.5765
5.62831
5.67432
5.71329
5.74575
5.77401
5.80095
5.82841
5.85595
5.88214
5.9045
5.92108
5.93157
5.93804
5.94401
1.39997
1.39997
1.39997
1.39997
1.39997
1.39997
1.39997
1.39997
1.39997
1.39997
1.39997
1.39997
1.39997
1.39997
1.39997
1.39997
1.39997
1.39997
1.39997
1.39997
2.32971
5.05084
5.42992
5.46799
5.52407
5.57713
5.62844
5.67412
5.71266
5.74397
5.77055
5.79604
5.82335
5.85191
5.87878
5.90052
5.91548
5.92483
5.9313
5.9376
1.39997
1.39997
1.39997
1.39997
1.39997
1.39997
1.39997
1.39997
1.39997
1.39997
1.39997
1.39997
1.39997
1.39997
1.39997
1.39997
1.39997
1.39997
1.39997
1.39997
2.28511
5.01326
5.42621
5.4681
5.52572
5.57857
5.62937
5.67463
5.71204
5.74172
5.76671
5.79141
5.81894
5.84814
5.87505
5.89562
5.909
5.91763
5.92423
5.93069
1.39997
1.39997
1.39997
1.39997
1.39997
1.39997
1.39997
1.39997
1.39997
1.39997
1.39997
1.39997
1.39997
1.39997
1.39997
1.39997
1.39997
1.39997
1.39997
1.39997
2.23674
4.97566
5.42268
5.46841
5.52809
5.58092
5.63111
5.67495
5.7107
5.73852
5.76231
5.78691
5.81478
5.84391
5.87011
5.88952
5.90202
5.91044
5.91694
5.9232
1.39997
1.39997
1.39997
1.39997
1.39997
1.39997
1.39997
1.39997
1.39997
1.39997
1.39997
1.39997
1.39997
1.39997
1.39997
1.39997
1.39997
1.39997
1.39997
1.39997
2.18511
4.9431
5.42241
5.46908
5.5301
5.58236
5.6317
5.6743
5.70822
5.73432
5.7574
5.78226
5.81053
5.83923
5.86423
5.88267
5.89499
5.90343
5.90928
5.91482
1.39997
1.39997
1.39997
1.39997
1.39997
1.39997
1.39997
1.39997
1.39997
1.39997
1.39997
1.39997
1.39997
1.39997
1.39997
1.39997
1.39997
1.39997
1.39997
1.39997
2.13079
4.91475
5.42804
5.4714
5.53093
5.58189
5.62985
5.67121
5.70422
5.7299
5.75285
5.77773
5.80577
5.83349
5.85722
5.87527
5.88795
5.89638
5.90108
5.90571
1.39997
1.39997
1.39997
1.39997
1.39997
1.39997
1.39997
1.39997
1.39997
1.39997
1.39997
1.39997
1.39997
1.39997
1.39997
1.39997
1.39997
1.39997
1.39997
1.39997
2.07009
4.88937
5.43713
5.47288
5.52999
5.58034
5.62746
5.6674
5.69916
5.7244
5.74738
5.77222
5.79979
5.82657
5.84962
5.86788
5.88102
5.88906
5.89218
5.89576
1.39997
1.39997
1.39997
1.39997
1.39997
1.39997
1.39997
1.39997
1.39997
1.39997
1.39997
1.39997
1.39997
1.39997
1.39997
1.39997
1.39997
1.39997
1.39997
1.39997
2.0097
4.8574
5.44341
5.47246
5.52553
5.57352
5.61951
5.65943
5.69192
5.71842
5.74228
5.7669
5.79328
5.81898
5.84174
5.86028
5.87345
5.88079
5.8825
5.88544
1.39997
1.39997
1.39997
1.39997
1.39997
1.39997
1.39997
1.39997
1.39997
1.39997
1.39997
1.39997
1.39997
1.39997
1.39997
1.39997
1.39997
1.39997
1.39997
1.39997
1.95052
4.8162
5.44474
5.46994
5.5222
5.56878
5.61281
5.65134
5.68396
5.71167
5.73658
5.76118
5.78657
5.81145
5.834
5.8524
5.86489
5.87135
5.87217
5.87475
1.39997
1.39997
1.39997
1.39997
1.39997
1.39997
1.39997
1.39997
1.39997
1.39997
1.39997
1.39997
1.39997
1.39997
1.39997
1.39997
1.39997
1.39997
1.39997
1.39997
1.89101
4.74386
5.43965
5.46225
5.51397
5.55977
5.60348
5.64212
5.67567
5.70464
5.73053
5.75523
5.77998
5.80422
5.82631
5.84383
5.85485
5.86048
5.86128
5.86393
1.39997
1.39997
1.39997
1.39997
1.39997
1.39997
1.39997
1.39997
1.39997
1.39997
1.39997
1.39997
1.39997
1.39997
1.39997
1.39997
1.39997
1.39997
1.39997
1.39997
1.83118
4.66118
5.43307
5.45508
5.5061
5.55046
5.59399
5.63313
5.66761
5.69745
5.72395
5.74888
5.77347
5.79729
5.81855
5.83441
5.84346
5.84847
5.84988
5.85266
1.39997
1.39997
1.39997
1.39997
1.39997
1.39997
1.39997
1.39997
1.39997
1.39997
1.39997
1.39997
1.39997
1.39997
1.39997
1.39997
1.39997
1.39997
1.39997
1.39997
1.77271
4.58256
5.4309
5.44809
5.49884
5.54128
5.58469
5.62452
5.65982
5.69006
5.71659
5.74156
5.76619
5.78971
5.80992
5.82394
5.83118
5.83584
5.8379
5.84054
1.39997
1.39997
1.39997
1.39997
1.39997
1.39997
1.39997
1.39997
1.39997
1.39997
1.39997
1.39997
1.39997
1.39997
1.39997
1.39997
1.39997
1.39997
1.39997
1.39997
1.70885
4.51689
5.43798
5.44563
5.49148
5.53297
5.5761
5.61641
5.65204
5.68218
5.70848
5.73347
5.75812
5.7811
5.79996
5.81233
5.81839
5.82284
5.82506
5.82718
1.39997
1.39997
1.39997
1.39997
1.39997
1.39997
1.39997
1.39997
1.39997
1.39997
1.39997
1.39997
1.39997
1.39997
1.39997
1.39997
1.39997
1.39997
1.39997
1.39997
1.64556
4.48941
5.46695
5.45392
5.48993
5.52765
5.56927
5.60881
5.64385
5.67357
5.69978
5.72486
5.74912
5.77089
5.78816
5.79955
5.80549
5.8097
5.81109
5.81205
1.39997
1.39997
1.39997
1.39997
1.39997
1.39997
1.39997
1.39997
1.39997
1.39997
1.39997
1.39997
1.39997
1.39997
1.39997
1.39997
1.39997
1.39997
1.39997
1.39997
1.56899
4.44231
5.4916
5.46239
5.49425
5.52693
5.56546
5.60227
5.63523
5.66412
5.69066
5.71616
5.73976
5.75972
5.77507
5.7857
5.792
5.79567
5.79553
5.79529
1.39997
1.39997
1.39997
1.39997
1.39997
1.39997
1.39997
1.39997
1.39997
1.39997
1.39997
1.39997
1.39997
1.39997
1.39997
1.39997
1.39997
1.39997
1.39997
1.39997
1.48673
4.35634
5.48955
5.46891
5.49978
5.53028
5.56455
5.597
5.62669
5.65442
5.68128
5.707
5.72957
5.7476
5.76118
5.77112
5.77754
5.78025
5.7782
5.77665
1.39997
1.39997
1.39997
1.39997
1.39997
1.39997
1.39997
1.39997
1.39997
1.39997
1.39997
1.39997
1.39997
1.39997
1.39997
1.39997
1.39997
1.39997
1.39997
1.39997
1.44087
4.24773
5.4542
5.46281
5.50337
5.53319
5.56492
5.59303
5.61944
5.64559
5.67181
5.69674
5.71791
5.73446
5.74679
5.75584
5.76121
5.76223
5.75876
5.7567
1.39997
1.39997
1.39997
1.39997
1.39997
1.39997
1.39997
1.39997
1.39997
1.39997
1.39997
1.39997
1.39997
1.39997
1.39997
1.39997
1.39997
1.39997
1.39997
1.39997
1.40994
4.12739
5.41249
5.44859
5.49464
5.53138
5.56314
5.58977
5.61414
5.63842
5.66244
5.68494
5.70422
5.71982
5.73153
5.73953
5.74302
5.74169
5.73715
5.73498
1.39997
1.39997
1.39997
1.39997
1.39997
1.39997
1.39997
1.39997
1.39997
1.39997
1.39997
1.39997
1.39997
1.39997
1.39997
1.39997
1.39997
1.39997
1.39997
1.39997
1.4013
3.99391
5.36016
5.42221
5.47578
5.52008
5.55728
5.58587
5.61036
5.63299
5.65374
5.67244
5.68908
5.7036
5.71466
5.72109
5.72189
5.71824
5.71336
5.71191
1.39997
1.39997
1.39997
1.39997
1.39997
1.39997
1.39997
1.39997
1.39997
1.39997
1.39997
1.39997
1.39997
1.39997
1.39997
1.39997
1.39997
1.39997
1.39997
1.39997
1.40002
3.85919
5.31491
5.38931
5.45127
5.50224
5.54524
5.57926
5.60633
5.62806
5.64533
5.65996
5.67376
5.6867
5.69622
5.70062
5.69844
5.69263
5.68768
5.6863
1.39997
1.39997
1.39997
1.39997
1.39997
1.39997
1.39997
1.39997
1.39997
1.39997
1.39997
1.39997
1.39997
1.39997
1.39997
1.39997
1.39997
1.39997
1.39997
1.39997
1.39997
3.71919
5.27369
5.36277
5.42486
5.48175
5.52945
5.56952
5.60015
5.62204
5.63654
5.64769
5.65873
5.6693
5.676
5.67745
5.67236
5.66467
5.65944
5.65807
1.39997
1.39997
1.39997
1.39997
1.39997
1.39997
1.39997
1.39997
1.39997
1.39997
1.39997
1.39997
1.39997
1.39997
1.39997
1.39997
1.39997
1.39997
1.39997
1.39997
1.39997
3.57945
5.23847
5.34057
5.4007
5.45935
5.51249
5.55685
5.59073
5.61345
5.62629
5.63485
5.64336
5.65106
5.65446
5.65254
5.64478
5.63524
5.62858
5.62529
1.39997
1.39997
1.39997
1.39997
1.39997
1.39997
1.39997
1.39997
1.39997
1.39997
1.39997
1.39997
1.39997
1.39997
1.39997
1.39997
1.39997
1.39997
1.39997
1.39997
1.39997
3.43651
5.20892
5.32308
5.38024
5.43753
5.49276
5.54047
5.57751
5.60168
5.61428
5.62114
5.62703
5.63155
5.63181
5.62658
5.61606
5.60319
5.59332
5.58812
1.39997
1.39997
1.39997
1.39997
1.39997
1.39997
1.39997
1.39997
1.39997
1.39997
1.39997
1.39997
1.39997
1.39997
1.39997
1.39997
1.39997
1.39997
1.39997
1.39997
1.39997
3.29158
5.18398
5.30797
5.36379
5.4179
5.47164
5.52117
5.56013
5.58654
5.60073
5.60664
5.60912
5.61024
5.60764
5.59947
5.58629
5.56911
5.55391
5.54431
1.39997
1.39997
1.39997
1.39997
1.39997
1.39997
1.39997
1.39997
1.39997
1.39997
1.39997
1.39997
1.39997
1.39997
1.39997
1.39997
1.39997
1.39997
1.39997
1.39997
1.39997
3.14291
5.15968
5.29605
5.34876
5.39866
5.44902
5.49784
5.53886
5.56902
5.5862
5.592
5.59092
5.58797
5.58249
5.57179
5.55502
5.53094
5.50785
5.49457
1.39997
1.39997
1.39997
1.39997
1.39997
1.39997
1.39997
1.39997
1.39997
1.39997
1.39997
1.39997
1.39997
1.39997
1.39997
1.39997
1.39997
1.39997
1.39997
1.39997
1.39997
2.99093
5.1319
5.28912
5.33621
5.38281
5.42843
5.47433
5.51728
5.54993
5.57027
5.57717
5.57288
5.56542
5.55633
5.54201
5.52086
5.48945
5.45625
5.43529
1.39997
1.39997
1.39997
1.39997
1.39997
1.39997
1.39997
1.39997
1.39997
1.39997
1.39997
1.39997
1.39997
1.39997
1.39997
1.39997
1.39997
1.39997
1.39997
1.39997
1.39997
2.8348
5.09758
5.28968
5.32661
5.36873
5.4115
5.45356
5.49628
5.53215
5.5526
5.56026
5.55454
5.54334
5.53002
5.51078
5.48354
5.44156
5.39454
5.3672
1.39997
1.39997
1.39997
1.39997
1.39997
1.39997
1.39997
1.39997
1.39997
1.39997
1.39997
1.39997
1.39997
1.39997
1.39997
1.39997
1.39997
1.39997
1.39997
1.39997
1.39997
2.67586
5.05383
5.29873
5.32084
5.35688
5.39716
5.43617
5.47605
5.51198
5.53324
5.54112
5.53527
5.52094
5.503
5.47706
5.44155
5.38852
5.32493
5.2832
1.39997
1.39997
1.39997
1.39997
1.39997
1.39997
1.39997
1.39997
1.39997
1.39997
1.39997
1.39997
1.39997
1.39997
1.39997
1.39997
1.39997
1.39997
1.39997
1.39997
1.39997
2.51297
4.99606
5.31301
5.31947
5.34633
5.38331
5.42023
5.45558
5.48955
5.51378
5.51969
5.51473
5.49749
5.47468
5.44161
5.39628
5.32739
5.23831
5.18111
1.39997
1.39997
1.39997
1.39997
1.39997
1.39997
1.39997
1.39997
1.39997
1.39997
1.39997
1.39997
1.39997
1.39997
1.39997
1.39997
1.39997
1.39997
1.39997
1.39997
1.39997
2.34728
4.92905
5.33962
5.32628
5.34474
5.37306
5.40635
5.43664
5.46647
5.49196
5.49973
5.49328
5.47226
5.4447
5.40416
5.34696
5.26097
5.14149
5.04633
1.39997
1.39997
1.39997
1.39997
1.39997
1.39997
1.39997
1.39997
1.39997
1.39997
1.39997
1.39997
1.39997
1.39997
1.39997
1.39997
1.39997
1.39997
1.39997
1.39997
1.39997
2.16625
4.85639
5.37782
5.34743
5.35428
5.36872
5.39262
5.42095
5.44584
5.46801
5.47958
5.47033
5.44641
5.41404
5.36603
5.29621
5.18867
5.01841
4.85461
1.39997
1.39997
1.39997
1.39997
1.39997
1.39997
1.39997
1.39997
1.39997
1.39997
1.39997
1.39997
1.39997
1.39997
1.39997
1.39997
1.39997
1.39997
1.39997
1.39997
1.39997
1.95628
4.81247
5.41926
5.36979
5.37208
5.37568
5.38625
5.40487
5.42349
5.43956
5.44949
5.44151
5.41841
5.38488
5.32977
5.24417
5.11239
4.90262
4.63821
1.39997
1.39997
1.39997
1.39997
1.39997
1.39997
1.39997
1.39997
1.39997
1.39997
1.39997
1.39997
1.39997
1.39997
1.39997
1.39997
1.39997
1.39997
1.39997
1.39997
2.52677
5.1622
5.44849
5.48543
5.53923
5.58933
5.63825
5.68368
5.72449
5.76
5.79118
5.81928
5.84581
5.87226
5.89896
5.92421
5.94516
5.95916
5.96754
5.97443
1.39997
1.39997
1.39997
1.39997
1.39997
1.39997
1.39997
1.39997
1.39997
1.39997
1.39997
1.39997
1.39997
1.39997
1.39997
1.39997
1.39997
1.39997
1.39997
1.39997
2.52335
5.15429
5.4457
5.48341
5.53787
5.58896
5.6388
5.68492
5.72577
5.76067
5.79055
5.81771
5.84469
5.87233
5.89971
5.92422
5.94388
5.95738
5.9663
5.97362
1.39997
1.39997
1.39997
1.39997
1.39997
1.39997
1.39997
1.39997
1.39997
1.39997
1.39997
1.39997
1.39997
1.39997
1.39997
1.39997
1.39997
1.39997
1.39997
1.39997
2.51608
5.1399
5.43782
5.47806
5.53421
5.58686
5.63807
5.68517
5.72612
5.76039
5.7891
5.81544
5.8428
5.8717
5.89988
5.92391
5.94223
5.95497
5.96427
5.97205
1.39997
1.39997
1.39997
1.39997
1.39997
1.39997
1.39997
1.39997
1.39997
1.39997
1.39997
1.39997
1.39997
1.39997
1.39997
1.39997
1.39997
1.39997
1.39997
1.39997
2.50315
5.12334
5.42945
5.47257
5.5306
5.58472
5.63723
5.68486
5.72556
5.75909
5.78731
5.81361
5.84129
5.87073
5.89902
5.92232
5.9397
5.95208
5.96157
5.96952
1.39997
1.39997
1.39997
1.39997
1.39997
1.39997
1.39997
1.39997
1.39997
1.39997
1.39997
1.39997
1.39997
1.39997
1.39997
1.39997
1.39997
1.39997
1.39997
1.39997
2.48528
5.11052
5.42537
5.46888
5.52759
5.58262
5.63568
5.68296
5.72306
5.75624
5.78492
5.81206
5.84019
5.86933
5.89681
5.91942
5.93669
5.94906
5.95828
5.96592
1.39997
1.39997
1.39997
1.39997
1.39997
1.39997
1.39997
1.39997
1.39997
1.39997
1.39997
1.39997
1.39997
1.39997
1.39997
1.39997
1.39997
1.39997
1.39997
1.39997
2.46277
5.10367
5.42533
5.46764
5.52621
5.58121
5.6338
5.68048
5.71998
5.75312
5.78239
5.81052
5.83907
5.86716
5.89328
5.91564
5.93337
5.94584
5.95438
5.96136
1.39997
1.39997
1.39997
1.39997
1.39997
1.39997
1.39997
1.39997
1.39997
1.39997
1.39997
1.39997
1.39997
1.39997
1.39997
1.39997
1.39997
1.39997
1.39997
1.39997
2.43632
5.10377
5.42788
5.46774
5.52539
5.57982
5.63178
5.67799
5.71713
5.75017
5.77978
5.80846
5.83678
5.8639
5.88927
5.91174
5.9298
5.94207
5.94972
5.95602
1.39997
1.39997
1.39997
1.39997
1.39997
1.39997
1.39997
1.39997
1.39997
1.39997
1.39997
1.39997
1.39997
1.39997
1.39997
1.39997
1.39997
1.39997
1.39997
1.39997
2.40868
5.10427
5.43372
5.46906
5.52475
5.57835
5.62994
5.6758
5.71472
5.74761
5.77703
5.8053
5.83309
5.85996
5.88546
5.90807
5.9258
5.93739
5.94427
5.95019
1.39997
1.39997
1.39997
1.39997
1.39997
1.39997
1.39997
1.39997
1.39997
1.39997
1.39997
1.39997
1.39997
1.39997
1.39997
1.39997
1.39997
1.39997
1.39997
1.39997
2.37025
5.08143
5.43165
5.46699
5.52277
5.5765
5.62832
5.67432
5.71329
5.74575
5.77401
5.80095
5.82841
5.85595
5.88214
5.9045
5.92108
5.93157
5.93804
5.94401
1.39997
1.39997
1.39997
1.39997
1.39997
1.39997
1.39997
1.39997
1.39997
1.39997
1.39997
1.39997
1.39997
1.39997
1.39997
1.39997
1.39997
1.39997
1.39997
1.39997
2.32972
5.05085
5.42992
5.46799
5.52407
5.57713
5.62844
5.67412
5.71266
5.74397
5.77055
5.79604
5.82335
5.85191
5.87878
5.90052
5.91548
5.92483
5.9313
5.9376
1.39997
1.39997
1.39997
1.39997
1.39997
1.39997
1.39997
1.39997
1.39997
1.39997
1.39997
1.39997
1.39997
1.39997
1.39997
1.39997
1.39997
1.39997
1.39997
1.39997
2.28512
5.01327
5.42621
5.4681
5.52572
5.57857
5.62937
5.67463
5.71204
5.74172
5.76671
5.79141
5.81894
5.84814
5.87505
5.89562
5.909
5.91764
5.92423
5.93069
1.39997
1.39997
1.39997
1.39997
1.39997
1.39997
1.39997
1.39997
1.39997
1.39997
1.39997
1.39997
1.39997
1.39997
1.39997
1.39997
1.39997
1.39997
1.39997
1.39997
2.23675
4.97566
5.42268
5.46841
5.52809
5.58092
5.63111
5.67495
5.7107
5.73852
5.76231
5.78691
5.81478
5.84391
5.87011
5.88952
5.90202
5.91044
5.91695
5.9232
1.39997
1.39997
1.39997
1.39997
1.39997
1.39997
1.39997
1.39997
1.39997
1.39997
1.39997
1.39997
1.39997
1.39997
1.39997
1.39997
1.39997
1.39997
1.39997
1.39997
2.18512
4.9431
5.42241
5.46908
5.5301
5.58236
5.6317
5.6743
5.70823
5.73432
5.7574
5.78226
5.81053
5.83923
5.86423
5.88267
5.89499
5.90343
5.90928
5.91482
1.39997
1.39997
1.39997
1.39997
1.39997
1.39997
1.39997
1.39997
1.39997
1.39997
1.39997
1.39997
1.39997
1.39997
1.39997
1.39997
1.39997
1.39997
1.39997
1.39997
2.1308
4.91476
5.42804
5.4714
5.53094
5.58189
5.62985
5.67121
5.70422
5.7299
5.75285
5.77773
5.80577
5.83349
5.85722
5.87527
5.88795
5.89638
5.90108
5.90571
1.39997
1.39997
1.39997
1.39997
1.39997
1.39997
1.39997
1.39997
1.39997
1.39997
1.39997
1.39997
1.39997
1.39997
1.39997
1.39997
1.39997
1.39997
1.39997
1.39997
2.0701
4.88937
5.43713
5.47288
5.52999
5.58034
5.62746
5.6674
5.69916
5.7244
5.74738
5.77222
5.79979
5.82658
5.84962
5.86788
5.88102
5.88907
5.89218
5.89576
1.39997
1.39997
1.39997
1.39997
1.39997
1.39997
1.39997
1.39997
1.39997
1.39997
1.39997
1.39997
1.39997
1.39997
1.39997
1.39997
1.39997
1.39997
1.39997
1.39997
2.00971
4.85741
5.44341
5.47246
5.52553
5.57352
5.61951
5.65943
5.69192
5.71842
5.74228
5.7669
5.79328
5.81898
5.84174
5.86028
5.87345
5.88079
5.8825
5.88544
1.39997
1.39997
1.39997
1.39997
1.39997
1.39997
1.39997
1.39997
1.39997
1.39997
1.39997
1.39997
1.39997
1.39997
1.39997
1.39997
1.39997
1.39997
1.39997
1.39997
1.95053
4.8162
5.44474
5.46994
5.5222
5.56878
5.61282
5.65134
5.68396
5.71167
5.73658
5.76118
5.78658
5.81145
5.834
5.8524
5.86489
5.87135
5.87217
5.87475
1.39997
1.39997
1.39997
1.39997
1.39997
1.39997
1.39997
1.39997
1.39997
1.39997
1.39997
1.39997
1.39997
1.39997
1.39997
1.39997
1.39997
1.39997
1.39997
1.39997
1.89102
4.74386
5.43965
5.46225
5.51397
5.55977
5.60348
5.64212
5.67567
5.70464
5.73053
5.75523
5.77998
5.80422
5.82631
5.84383
5.85486
5.86048
5.86128
5.86393
1.39997
1.39997
1.39997
1.39997
1.39997
1.39997
1.39997
1.39997
1.39997
1.39997
1.39997
1.39997
1.39997
1.39997
1.39997
1.39997
1.39997
1.39997
1.39997
1.39997
1.83119
4.66119
5.43307
5.45508
5.5061
5.55046
5.59399
5.63313
5.66761
5.69745
5.72395
5.74888
5.77347
5.79729
5.81855
5.83441
5.84346
5.84847
5.84988
5.85266
1.39997
1.39997
1.39997
1.39997
1.39997
1.39997
1.39997
1.39997
1.39997
1.39997
1.39997
1.39997
1.39997
1.39997
1.39997
1.39997
1.39997
1.39997
1.39997
1.39997
1.77271
4.58256
5.4309
5.44809
5.49884
5.54128
5.58469
5.62452
5.65983
5.69006
5.71659
5.74156
5.76619
5.78971
5.80992
5.82394
5.83119
5.83584
5.8379
5.84054
1.39997
1.39997
1.39997
1.39997
1.39997
1.39997
1.39997
1.39997
1.39997
1.39997
1.39997
1.39997
1.39997
1.39997
1.39997
1.39997
1.39997
1.39997
1.39997
1.39997
1.70886
4.51689
5.43798
5.44563
5.49148
5.53297
5.5761
5.61641
5.65204
5.68218
5.70848
5.73347
5.75812
5.7811
5.79996
5.81233
5.8184
5.82284
5.82506
5.82719
1.39997
1.39997
1.39997
1.39997
1.39997
1.39997
1.39997
1.39997
1.39997
1.39997
1.39997
1.39997
1.39997
1.39997
1.39997
1.39997
1.39997
1.39997
1.39997
1.39997
1.64556
4.48942
5.46695
5.45392
5.48993
5.52765
5.56927
5.60881
5.64385
5.67357
5.69978
5.72486
5.74912
5.77089
5.78817
5.79955
5.8055
5.8097
5.81109
5.81205
1.39997
1.39997
1.39997
1.39997
1.39997
1.39997
1.39997
1.39997
1.39997
1.39997
1.39997
1.39997
1.39997
1.39997
1.39997
1.39997
1.39997
1.39997
1.39997
1.39997
1.569
4.44232
5.4916
5.46239
5.49426
5.52693
5.56546
5.60227
5.63523
5.66412
5.69066
5.71616
5.73976
5.75972
5.77507
5.7857
5.792
5.79567
5.79553
5.7953
1.39997
1.39997
1.39997
1.39997
1.39997
1.39997
1.39997
1.39997
1.39997
1.39997
1.39997
1.39997
1.39997
1.39997
1.39997
1.39997
1.39997
1.39997
1.39997
1.39997
1.48673
4.35635
5.48955
5.46891
5.49978
5.53028
5.56455
5.597
5.62669
5.65443
5.68128
5.707
5.72957
5.74761
5.76118
5.77112
5.77754
5.78026
5.7782
5.77666
1.39997
1.39997
1.39997
1.39997
1.39997
1.39997
1.39997
1.39997
1.39997
1.39997
1.39997
1.39997
1.39997
1.39997
1.39997
1.39997
1.39997
1.39997
1.39997
1.39997
1.44087
4.24774
5.4542
5.46281
5.50337
5.53319
5.56492
5.59303
5.61944
5.64559
5.67181
5.69674
5.71791
5.73446
5.7468
5.75584
5.76122
5.76223
5.75876
5.7567
1.39997
1.39997
1.39997
1.39997
1.39997
1.39997
1.39997
1.39997
1.39997
1.39997
1.39997
1.39997
1.39997
1.39997
1.39997
1.39997
1.39997
1.39997
1.39997
1.39997
1.40994
4.1274
5.4125
5.44859
5.49465
5.53138
5.56314
5.58977
5.61414
5.63842
5.66244
5.68494
5.70422
5.71983
5.73153
5.73953
5.74302
5.74169
5.73715
5.73499
1.39997
1.39997
1.39997
1.39997
1.39997
1.39997
1.39997
1.39997
1.39997
1.39997
1.39997
1.39997
1.39997
1.39997
1.39997
1.39997
1.39997
1.39997
1.39997
1.39997
1.40131
3.99392
5.36016
5.42221
5.47578
5.52008
5.55728
5.58587
5.61036
5.633
5.65374
5.67244
5.68908
5.7036
5.71466
5.72109
5.72189
5.71824
5.71336
5.71191
1.39997
1.39997
1.39997
1.39997
1.39997
1.39997
1.39997
1.39997
1.39997
1.39997
1.39997
1.39997
1.39997
1.39997
1.39997
1.39997
1.39997
1.39997
1.39997
1.39997
1.40002
3.8592
5.31492
5.38931
5.45127
5.50224
5.54524
5.57926
5.60633
5.62806
5.64533
5.65996
5.67376
5.6867
5.69622
5.70063
5.69844
5.69264
5.68768
5.6863
1.39997
1.39997
1.39997
1.39997
1.39997
1.39997
1.39997
1.39997
1.39997
1.39997
1.39997
1.39997
1.39997
1.39997
1.39997
1.39997
1.39997
1.39997
1.39997
1.39997
1.39997
3.7192
5.27369
5.36277
5.42486
5.48175
5.52945
5.56952
5.60015
5.62204
5.63654
5.64769
5.65874
5.6693
5.676
5.67745
5.67236
5.66467
5.65945
5.65808
1.39997
1.39997
1.39997
1.39997
1.39997
1.39997
1.39997
1.39997
1.39997
1.39997
1.39997
1.39997
1.39997
1.39997
1.39997
1.39997
1.39997
1.39997
1.39997
1.39997
1.39997
3.57945
5.23847
5.34057
5.40071
5.45935
5.51249
5.55685
5.59073
5.61345
5.62629
5.63485
5.64336
5.65106
5.65446
5.65254
5.64478
5.63524
5.62858
5.62529
1.39997
1.39997
1.39997
1.39997
1.39997
1.39997
1.39997
1.39997
1.39997
1.39997
1.39997
1.39997
1.39997
1.39997
1.39997
1.39997
1.39997
1.39997
1.39997
1.39997
1.39997
3.43652
5.20892
5.32308
5.38024
5.43753
5.49276
5.54047
5.57752
5.60168
5.61428
5.62114
5.62703
5.63155
5.63181
5.62658
5.61606
5.60319
5.59333
5.58813
1.39997
1.39997
1.39997
1.39997
1.39997
1.39997
1.39997
1.39997
1.39997
1.39997
1.39997
1.39997
1.39997
1.39997
1.39997
1.39997
1.39997
1.39997
1.39997
1.39997
1.39997
3.29159
5.18398
5.30797
5.36379
5.4179
5.47164
5.52117
5.56013
5.58654
5.60073
5.60664
5.60912
5.61024
5.60764
5.59947
5.58629
5.56911
5.55391
5.54431
1.39997
1.39997
1.39997
1.39997
1.39997
1.39997
1.39997
1.39997
1.39997
1.39997
1.39997
1.39997
1.39997
1.39997
1.39997
1.39997
1.39997
1.39997
1.39997
1.39997
1.39997
3.14291
5.15968
5.29605
5.34876
5.39866
5.44902
5.49784
5.53886
5.56902
5.5862
5.592
5.59092
5.58797
5.5825
5.57179
5.55502
5.53094
5.50785
5.49457
1.39997
1.39997
1.39997
1.39997
1.39997
1.39997
1.39997
1.39997
1.39997
1.39997
1.39997
1.39997
1.39997
1.39997
1.39997
1.39997
1.39997
1.39997
1.39997
1.39997
1.39997
2.99094
5.1319
5.28912
5.33621
5.38281
5.42843
5.47433
5.51729
5.54993
5.57027
5.57717
5.57288
5.56542
5.55633
5.54201
5.52087
5.48945
5.45625
5.43529
1.39997
1.39997
1.39997
1.39997
1.39997
1.39997
1.39997
1.39997
1.39997
1.39997
1.39997
1.39997
1.39997
1.39997
1.39997
1.39997
1.39997
1.39997
1.39997
1.39997
1.39997
2.8348
5.09758
5.28968
5.32661
5.36873
5.4115
5.45356
5.49628
5.53215
5.5526
5.56026
5.55454
5.54334
5.53002
5.51078
5.48354
5.44156
5.39454
5.3672
1.39997
1.39997
1.39997
1.39997
1.39997
1.39997
1.39997
1.39997
1.39997
1.39997
1.39997
1.39997
1.39997
1.39997
1.39997
1.39997
1.39997
1.39997
1.39997
1.39997
1.39997
2.67587
5.05383
5.29873
5.32084
5.35688
5.39716
5.43617
5.47605
5.51198
5.53324
5.54112
5.53527
5.52094
5.50301
5.47706
5.44155
5.38852
5.32494
5.2832
1.39997
1.39997
1.39997
1.39997
1.39997
1.39997
1.39997
1.39997
1.39997
1.39997
1.39997
1.39997
1.39997
1.39997
1.39997
1.39997
1.39997
1.39997
1.39997
1.39997
1.39997
2.51298
4.99607
5.31301
5.31947
5.34633
5.38331
5.42023
5.45558
5.48955
5.51378
5.51969
5.51473
5.49749
5.47468
5.44161
5.39629
5.32739
5.23831
5.18111
1.39997
1.39997
1.39997
1.39997
1.39997
1.39997
1.39997
1.39997
1.39997
1.39997
1.39997
1.39997
1.39997
1.39997
1.39997
1.39997
1.39997
1.39997
1.39997
1.39997
1.39997
2.34728
4.92906
5.33962
5.32628
5.34474
5.37306
5.40635
5.43664
5.46648
5.49196
5.49973
5.49328
5.47226
5.4447
5.40416
5.34696
5.26098
5.14149
5.04634
1.39997
1.39997
1.39997
1.39997
1.39997
1.39997
1.39997
1.39997
1.39997
1.39997
1.39997
1.39997
1.39997
1.39997
1.39997
1.39997
1.39997
1.39997
1.39997
1.39997
1.39997
2.16626
4.85639
5.37782
5.34743
5.35428
5.36872
5.39262
5.42095
5.44585
5.46801
5.47958
5.47033
5.44641
5.41404
5.36604
5.29621
5.18867
5.01841
4.85461
1.39997
1.39997
1.39997
1.39997
1.39997
1.39997
1.39997
1.39997
1.39997
1.39997
1.39997
1.39997
1.39997
1.39997
1.39997
1.39997
1.39997
1.39997
1.39997
1.39997
1.39997
1.95629
4.81247
5.41926
5.36979
5.37208
5.37568
5.38625
5.40487
5.42349
5.43956
5.44949
5.44151
5.41841
5.38489
5.32977
5.24417
5.11239
4.90262
4.63821
1.39997
1.39997
1.39997
1.39997
1.39997
1.39997
1.39997
1.39997
1.39997
1.39997
1.39997
1.39997
1.39997
1.39997
1.39997
1.39997
1.39997
1.39997
1.39997
1.39997
2.52677
5.1622
5.44849
5.48543
5.53923
5.58933
5.63825
5.68368
5.72449
5.76
5.79118
5.81928
5.84581
5.87226
5.89896
5.92421
5.94516
5.95916
5.96754
5.97443
1.39997
1.39997
1.39997
1.39997
1.39997
1.39997
1.39997
1.39997
1.39997
1.39997
1.39997
1.39997
1.39997
1.39997
1.39997
1.39997
1.39997
1.39997
1.39997
1.39997
2.52335
5.15429
5.4457
5.48341
5.53787
5.58896
5.6388
5.68492
5.72577
5.76067
5.79055
5.81771
5.84469
5.87233
5.89971
5.92422
5.94388
5.95738
5.9663
5.97362
1.39997
1.39997
1.39997
1.39997
1.39997
1.39997
1.39997
1.39997
1.39997
1.39997
1.39997
1.39997
1.39997
1.39997
1.39997
1.39997
1.39997
1.39997
1.39997
1.39997
2.51608
5.1399
5.43782
5.47806
5.53421
5.58686
5.63807
5.68517
5.72612
5.76039
5.7891
5.81544
5.8428
5.8717
5.89988
5.92391
5.94223
5.95497
5.96427
5.97205
1.39997
1.39997
1.39997
1.39997
1.39997
1.39997
1.39997
1.39997
1.39997
1.39997
1.39997
1.39997
1.39997
1.39997
1.39997
1.39997
1.39997
1.39997
1.39997
1.39997
2.50315
5.12334
5.42945
5.47257
5.5306
5.58472
5.63723
5.68486
5.72556
5.75909
5.78731
5.81361
5.84129
5.87073
5.89902
5.92232
5.9397
5.95208
5.96157
5.96952
1.39997
1.39997
1.39997
1.39997
1.39997
1.39997
1.39997
1.39997
1.39997
1.39997
1.39997
1.39997
1.39997
1.39997
1.39997
1.39997
1.39997
1.39997
1.39997
1.39997
2.48528
5.11052
5.42537
5.46888
5.52759
5.58262
5.63568
5.68296
5.72306
5.75624
5.78492
5.81206
5.84019
5.86933
5.89681
5.91942
5.93669
5.94906
5.95828
5.96592
1.39997
1.39997
1.39997
1.39997
1.39997
1.39997
1.39997
1.39997
1.39997
1.39997
1.39997
1.39997
1.39997
1.39997
1.39997
1.39997
1.39997
1.39997
1.39997
1.39997
2.46277
5.10367
5.42533
5.46764
5.52621
5.58121
5.6338
5.68048
5.71998
5.75312
5.78239
5.81052
5.83907
5.86716
5.89328
5.91564
5.93337
5.94584
5.95438
5.96136
1.39997
1.39997
1.39997
1.39997
1.39997
1.39997
1.39997
1.39997
1.39997
1.39997
1.39997
1.39997
1.39997
1.39997
1.39997
1.39997
1.39997
1.39997
1.39997
1.39997
2.43632
5.10377
5.42788
5.46774
5.52539
5.57982
5.63178
5.67799
5.71713
5.75017
5.77978
5.80846
5.83678
5.8639
5.88927
5.91174
5.9298
5.94207
5.94972
5.95602
1.39997
1.39997
1.39997
1.39997
1.39997
1.39997
1.39997
1.39997
1.39997
1.39997
1.39997
1.39997
1.39997
1.39997
1.39997
1.39997
1.39997
1.39997
1.39997
1.39997
2.40868
5.10427
5.43372
5.46906
5.52475
5.57835
5.62994
5.6758
5.71472
5.74761
5.77703
5.8053
5.83309
5.85996
5.88546
5.90807
5.9258
5.93739
5.94427
5.95019
1.39997
1.39997
1.39997
1.39997
1.39997
1.39997
1.39997
1.39997
1.39997
1.39997
1.39997
1.39997
1.39997
1.39997
1.39997
1.39997
1.39997
1.39997
1.39997
1.39997
2.37025
5.08143
5.43165
5.46699
5.52277
5.5765
5.62832
5.67432
5.71329
5.74575
5.77401
5.80095
5.82841
5.85595
5.88214
5.9045
5.92108
5.93157
5.93804
5.94401
1.39997
1.39997
1.39997
1.39997
1.39997
1.39997
1.39997
1.39997
1.39997
1.39997
1.39997
1.39997
1.39997
1.39997
1.39997
1.39997
1.39997
1.39997
1.39997
1.39997
2.32972
5.05085
5.42992
5.46799
5.52407
5.57713
5.62844
5.67412
5.71266
5.74397
5.77055
5.79604
5.82335
5.85191
5.87878
5.90052
5.91548
5.92483
5.9313
5.9376
1.39997
1.39997
1.39997
1.39997
1.39997
1.39997
1.39997
1.39997
1.39997
1.39997
1.39997
1.39997
1.39997
1.39997
1.39997
1.39997
1.39997
1.39997
1.39997
1.39997
2.28512
5.01327
5.42621
5.4681
5.52572
5.57857
5.62937
5.67463
5.71204
5.74172
5.76671
5.79141
5.81894
5.84814
5.87505
5.89562
5.909
5.91764
5.92423
5.93069
1.39997
1.39997
1.39997
1.39997
1.39997
1.39997
1.39997
1.39997
1.39997
1.39997
1.39997
1.39997
1.39997
1.39997
1.39997
1.39997
1.39997
1.39997
1.39997
1.39997
2.23675
4.97566
5.42268
5.46841
5.52809
5.58092
5.63111
5.67495
5.7107
5.73852
5.76231
5.78691
5.81478
5.84391
5.87011
5.88952
5.90202
5.91044
5.91695
5.9232
1.39997
1.39997
1.39997
1.39997
1.39997
1.39997
1.39997