/*--------------------------------*- C++ -*----------------------------------*\
  =========                 |
  \\      /  F ield         | OpenFOAM: The Open Source CFD Toolbox
   \\    /   O peration     | Website:  https://openfoam.org
    \\  /    A nd           | Version:  6.0
     \\/     M anipulation  |
\*---------------------------------------------------------------------------*/
FoamFile
{
    version     2.0;
    format      ascii;
    class       volVectorField;
    location    "4.000201177";
    object      U;
}
// * * * * * * * * * * * * * * * * * * * * * * * * * * * * * * * * * * * * * //

dimensions      [0 1 -1 0 0 0 0];

internalField   nonuniform List<vector> 
192000
(
(3 8.41668e-16 0)
(3 -3.57661e-16 0)
(3 8.99607e-16 0)
(3 4.20173e-16 0)
(3 1.85277e-15 0)
(3 3.21792e-15 0)
(3 -2.76299e-15 0)
(3 -7.84902e-15 0)
(3 -1.37615e-15 0)
(3 2.75881e-16 0)
(3 -4.65853e-16 0)
(3 2.32232e-15 0)
(3 1.77956e-15 0)
(3 3.58578e-15 0)
(3 1.96182e-15 0)
(3 8.34093e-16 0)
(3 2.47405e-15 0)
(3 1.36214e-15 0)
(3 -1.80709e-16 0)
(3 2.7903e-15 0)
(2.04735 0.00244613 0)
(0.820488 0.003845 0)
(0.722636 0.00590252 0)
(0.687267 0.00597813 0)
(0.648309 0.00597736 0)
(0.610803 0.00590296 0)
(0.573791 0.0058505 0)
(0.537733 0.00588508 0)
(0.502244 0.0059926 0)
(0.466885 0.00614505 0)
(0.431455 0.00617925 0)
(0.395762 0.00610706 0)
(0.359237 0.00611707 0)
(0.321386 0.00633126 0)
(0.282007 0.00677788 0)
(0.240221 0.00739857 0)
(0.194401 0.00808535 0)
(0.143406 0.00879924 0)
(0.0880242 0.00930896 0)
(0.0310772 0.00991949 0)
(3 3.68888e-16 0)
(3 3.52246e-16 0)
(3 5.71185e-16 0)
(3 3.5176e-16 0)
(3 -4.98358e-16 0)
(3 3.30541e-15 0)
(3 3.02036e-15 0)
(3 9.22568e-16 0)
(3 3.41546e-15 0)
(3 2.64899e-16 0)
(3 1.02361e-15 0)
(3 1.34924e-15 0)
(3 2.8196e-15 0)
(3 1.2031e-15 0)
(3 1.24748e-15 0)
(3 6.16382e-16 0)
(3 4.19685e-16 0)
(3 4.61278e-16 0)
(3 1.26981e-15 0)
(3 -6.29002e-16 0)
(2.04393 0.0078378 0)
(0.816026 0.0126137 0)
(0.716582 0.0162447 0)
(0.680683 0.0159989 0)
(0.641621 0.0158255 0)
(0.604379 0.0156235 0)
(0.567748 0.0156674 0)
(0.531999 0.0158497 0)
(0.496761 0.0163725 0)
(0.461444 0.0169249 0)
(0.425942 0.0172338 0)
(0.390315 0.0172884 0)
(0.354199 0.0174742 0)
(0.317044 0.0182255 0)
(0.278355 0.0196325 0)
(0.237115 0.0217701 0)
(0.191865 0.0242388 0)
(0.141688 0.0265958 0)
(0.0872072 0.0280742 0)
(0.0309176 0.0298886 0)
(3 -2.20083e-15 0)
(3 -1.03055e-15 0)
(3 -1.10375e-15 0)
(3 3.9839e-17 0)
(3 1.81075e-15 0)
(3 -4.62006e-15 0)
(3 -4.98244e-16 0)
(3 3.72856e-16 0)
(3 -3.61343e-16 0)
(3 -1.61453e-15 0)
(3 -1.89236e-16 0)
(3 5.86232e-16 0)
(3 2.18358e-15 0)
(3 -1.82622e-15 0)
(3 -1.60948e-15 0)
(3 9.59425e-16 0)
(3 1.864e-15 0)
(3 -4.1489e-16 0)
(3 -4.12427e-16 0)
(3 -2.6016e-15 0)
(2.04051 0.015903 0)
(0.809801 0.0214088 0)
(0.708965 0.0265297 0)
(0.672897 0.0264909 0)
(0.633942 0.0265837 0)
(0.596921 0.0264682 0)
(0.560485 0.0263424 0)
(0.52488 0.0265116 0)
(0.489715 0.027057 0)
(0.454524 0.0277907 0)
(0.419169 0.028228 0)
(0.383712 0.0285527 0)
(0.347951 0.0292465 0)
(0.311347 0.0304702 0)
(0.273262 0.0324715 0)
(0.232626 0.0357028 0)
(0.188032 0.0397366 0)
(0.138772 0.043873 0)
(0.0854267 0.0465045 0)
(0.0303456 0.0495374 0)
(3 1.88115e-15 0)
(3 -3.98949e-15 0)
(3 -1.72601e-15 0)
(3 4.29238e-16 0)
(3 1.18708e-16 0)
(3 4.69345e-15 0)
(3 -3.08371e-15 0)
(3 -3.10795e-15 0)
(3 -4.07019e-15 0)
(3 3.20088e-15 0)
(3 -5.2331e-16 0)
(3 4.14347e-15 0)
(3 -2.85839e-15 0)
(3 -6.19644e-18 0)
(3 -3.82603e-15 0)
(3 -3.83114e-15 0)
(3 9.50279e-17 0)
(3 -1.17911e-15 0)
(3 -2.58091e-16 0)
(3 7.08837e-16 0)
(2.04285 0.0281857 0)
(0.805461 0.0324285 0)
(0.701869 0.0366606 0)
(0.664991 0.0363216 0)
(0.625761 0.0366458 0)
(0.588685 0.0367775 0)
(0.5523 0.0367986 0)
(0.516735 0.0369244 0)
(0.481587 0.037508 0)
(0.446359 0.0381999 0)
(0.411011 0.0386814 0)
(0.375705 0.0394207 0)
(0.340274 0.04075 0)
(0.304292 0.0426309 0)
(0.267033 0.0451932 0)
(0.227307 0.0493091 0)
(0.183766 0.0548519 0)
(0.135726 0.060825 0)
(0.0836106 0.0646346 0)
(0.0297751 0.0688433 0)
(3 3.93115e-16 0)
(3 -4.63493e-16 0)
(3 7.10026e-16 0)
(3 2.27858e-16 0)
(3 -1.77354e-15 0)
(3 -8.48462e-16 0)
(3 6.11984e-16 0)
(3 -2.98949e-15 0)
(3 1.24603e-16 0)
(3 1.48167e-15 0)
(3 -1.00344e-16 0)
(3 1.32872e-15 0)
(3 -2.8712e-15 0)
(3 -5.1003e-15 0)
(3 -3.07081e-15 0)
(3 -6.79869e-15 0)
(3 -3.85505e-15 0)
(3 -9.48886e-16 0)
(3 1.0444e-15 0)
(3 1.39233e-15 0)
(2.05544 0.0433567 0)
(0.805191 0.0444938 0)
(0.698561 0.0479753 0)
(0.660911 0.0474366 0)
(0.620891 0.0477381 0)
(0.582999 0.0478078 0)
(0.545837 0.0476454 0)
(0.509589 0.0475276 0)
(0.473885 0.0479472 0)
(0.438339 0.0486883 0)
(0.40289 0.0493813 0)
(0.367645 0.0504736 0)
(0.332423 0.052344 0)
(0.296768 0.0546678 0)
(0.260088 0.0575479 0)
(0.221309 0.0624433 0)
(0.179013 0.069527 0)
(0.132357 0.0773596 0)
(0.0815621 0.0823562 0)
(0.0291245 0.0877447 0)
(3 2.49681e-17 0)
(3 -2.2892e-16 0)
(3 -1.18455e-15 0)
(3 -1.84129e-15 0)
(3 -1.81455e-15 0)
(3 -3.10927e-15 0)
(3 5.22107e-16 0)
(3 -3.49943e-15 0)
(3 4.19773e-15 0)
(3 -6.81313e-16 0)
(3 8.69541e-16 0)
(3 -7.40735e-16 0)
(3 3.4221e-15 0)
(3 -1.29875e-15 0)
(3 -1.14131e-15 0)
(3 -2.68009e-15 0)
(3 -1.94874e-15 0)
(3 3.19588e-15 0)
(3 1.87103e-16 0)
(3 9.72581e-16 0)
(2.08111 0.0582365 0)
(0.810854 0.0575582 0)
(0.701442 0.0601102 0)
(0.662807 0.0592047 0)
(0.621646 0.0596554 0)
(0.582465 0.0596941 0)
(0.543898 0.0592646 0)
(0.506167 0.0588257 0)
(0.468989 0.0590293 0)
(0.432135 0.0597158 0)
(0.395738 0.0603879 0)
(0.359994 0.0615919 0)
(0.32463 0.0637039 0)
(0.289116 0.0662982 0)
(0.252938 0.0695085 0)
(0.215166 0.0753414 0)
(0.174222 0.0839706 0)
(0.12898 0.0935208 0)
(0.0794605 0.0996112 0)
(0.0284504 0.106186 0)
(3 -1.8789e-15 0)
(3 2.93018e-15 0)
(3 -1.03826e-16 0)
(3 7.3726e-16 0)
(3 -2.10718e-15 0)
(3 -1.64761e-16 0)
(3 2.70333e-16 0)
(3 1.47867e-15 0)
(3 1.01577e-15 0)
(3 -1.24927e-15 0)
(3 1.10777e-15 0)
(3 5.24125e-16 0)
(3 1.32268e-16 0)
(3 -1.86477e-15 0)
(3 -1.25083e-15 0)
(3 -7.20454e-16 0)
(3 5.18376e-16 0)
(3 -1.47892e-15 0)
(3 6.7178e-16 0)
(3 6.99298e-16 0)
(2.11681 0.0676344 0)
(0.82152 0.0690061 0)
(0.709955 0.071144 0)
(0.670109 0.0705563 0)
(0.627707 0.0710763 0)
(0.587168 0.0712682 0)
(0.547167 0.070939 0)
(0.507881 0.070557 0)
(0.468919 0.0710163 0)
(0.430113 0.0719364 0)
(0.391813 0.0725672 0)
(0.354428 0.073398 0)
(0.317888 0.07504 0)
(0.281862 0.0775312 0)
(0.245905 0.0811561 0)
(0.209024 0.088058 0)
(0.169387 0.0981677 0)
(0.125548 0.109263 0)
(0.0772919 0.11636 0)
(0.0277612 0.124152 0)
(3 -9.86336e-16 0)
(3 2.10724e-15 0)
(3 -9.60247e-17 0)
(3 4.23842e-15 0)
(3 2.06648e-17 0)
(3 -4.17091e-16 0)
(3 -2.14234e-15 0)
(3 -8.20147e-16 0)
(3 -4.39239e-17 0)
(3 -2.49867e-16 0)
(3 1.65904e-15 0)
(3 -3.56599e-16 0)
(3 -3.03886e-16 0)
(3 -2.86656e-16 0)
(3 -1.58483e-15 0)
(3 -2.07056e-15 0)
(3 -2.19607e-15 0)
(3 -2.15977e-15 0)
(3 -1.08441e-15 0)
(3 -2.44404e-15 0)
(2.15142 0.0732075 0)
(0.830853 0.0780425 0)
(0.717731 0.0830693 0)
(0.678165 0.0819349 0)
(0.635197 0.0824647 0)
(0.593965 0.0825696 0)
(0.553257 0.0821105 0)
(0.513122 0.0818848 0)
(0.472895 0.0829452 0)
(0.432302 0.0845904 0)
(0.391876 0.0855309 0)
(0.352262 0.0860029 0)
(0.313661 0.08697 0)
(0.276129 0.0889758 0)
(0.239593 0.0928053 0)
(0.20315 0.100652 0)
(0.164651 0.112084 0)
(0.122198 0.124564 0)
(0.0751921 0.132625 0)
(0.027115 0.141659 0)
(3 1.56833e-15 0)
(3 -9.42039e-16 0)
(3 7.08683e-16 0)
(3 -6.97991e-16 0)
(3 4.27314e-16 0)
(3 -3.25176e-15 0)
(3 -5.52086e-16 0)
(3 -1.19496e-15 0)
(3 8.25744e-16 0)
(3 3.3436e-15 0)
(3 3.06555e-15 0)
(3 -2.92345e-16 0)
(3 1.43672e-15 0)
(3 -2.15486e-16 0)
(3 5.23584e-16 0)
(3 1.68356e-15 0)
(3 2.53751e-15 0)
(3 2.94245e-15 0)
(3 -3.85223e-16 0)
(3 -1.34971e-15 0)
(2.18192 0.0789244 0)
(0.831838 0.0898376 0)
(0.716713 0.0949418 0)
(0.678661 0.0943567 0)
(0.636607 0.0950816 0)
(0.595653 0.0950095 0)
(0.555078 0.0944104 0)
(0.515351 0.0942385 0)
(0.475762 0.095665 0)
(0.435559 0.0977244 0)
(0.394705 0.0988383 0)
(0.353686 0.0991722 0)
(0.313008 0.0997453 0)
(0.273287 0.101395 0)
(0.235039 0.105006 0)
(0.19791 0.113169 0)
(0.159941 0.125542 0)
(0.118824 0.13933 0)
(0.07316 0.148444 0)
(0.0265419 0.158757 0)
(3 2.3678e-16 0)
(3 1.14222e-17 0)
(3 -8.40509e-16 0)
(3 3.58104e-16 0)
(3 1.06575e-15 0)
(3 1.96573e-16 0)
(3 2.01182e-15 0)
(3 -8.83137e-16 0)
(3 -9.18757e-16 0)
(3 1.997e-15 0)
(3 2.06179e-15 0)
(3 -1.13329e-15 0)
(3 -2.82061e-16 0)
(3 -3.20749e-15 0)
(3 4.21678e-15 0)
(3 5.88382e-16 0)
(3 -8.83452e-16 0)
(3 -3.43793e-15 0)
(3 8.478e-16 0)
(3 4.54866e-16 0)
(2.21296 0.0855248 0)
(0.833923 0.100895 0)
(0.713949 0.105782 0)
(0.677474 0.105474 0)
(0.637626 0.106485 0)
(0.598682 0.106497 0)
(0.5594 0.105926 0)
(0.520481 0.105969 0)
(0.481615 0.107868 0)
(0.441827 0.110495 0)
(0.40059 0.111956 0)
(0.358275 0.11244 0)
(0.315617 0.113109 0)
(0.27357 0.114746 0)
(0.233014 0.118039 0)
(0.194171 0.125951 0)
(0.155825 0.138681 0)
(0.115742 0.153623 0)
(0.0713977 0.163892 0)
(0.0261539 0.17552 0)
(3 -1.00088e-15 0)
(3 5.02297e-16 0)
(3 2.57492e-16 0)
(3 -5.52918e-16 0)
(3 5.41049e-17 0)
(3 1.81806e-15 0)
(3 -1.91099e-15 0)
(3 -1.61687e-15 0)
(3 -4.58911e-16 0)
(3 2.95895e-15 0)
(3 -1.89861e-15 0)
(3 -7.78222e-16 0)
(3 -1.36412e-15 0)
(3 -2.20985e-16 0)
(3 -3.75342e-15 0)
(3 2.00735e-15 0)
(3 -5.11476e-17 0)
(3 -5.93053e-16 0)
(3 1.08045e-15 0)
(3 3.17624e-15 0)
(2.2463 0.0943503 0)
(0.835131 0.113007 0)
(0.709251 0.116018 0)
(0.673846 0.115534 0)
(0.635864 0.117055 0)
(0.599279 0.117684 0)
(0.562413 0.117556 0)
(0.525722 0.117877 0)
(0.488585 0.120073 0)
(0.449492 0.123222 0)
(0.40775 0.125206 0)
(0.363927 0.126251 0)
(0.319256 0.127366 0)
(0.275071 0.129016 0)
(0.232355 0.131749 0)
(0.191554 0.138974 0)
(0.152243 0.151613 0)
(0.112752 0.16754 0)
(0.0695402 0.178997 0)
(0.0256761 0.191954 0)
(3 7.50155e-16 0)
(3 4.34229e-16 0)
(3 -2.74529e-16 0)
(3 1.27322e-15 0)
(3 2.03655e-16 0)
(3 1.08448e-15 0)
(3 2.77215e-16 0)
(3 -2.14237e-15 0)
(3 2.24362e-15 0)
(3 7.68273e-16 0)
(3 2.04846e-15 0)
(3 1.90939e-15 0)
(3 2.33389e-16 0)
(3 -3.36641e-15 0)
(3 -2.3198e-15 0)
(3 8.16188e-16 0)
(3 2.92357e-15 0)
(3 6.11949e-15 0)
(3 2.9345e-15 0)
(3 -1.04064e-15 0)
(2.2884 0.105954 0)
(0.84077 0.127361 0)
(0.707825 0.126589 0)
(0.673831 0.12579 0)
(0.637437 0.127206 0)
(0.602959 0.128078 0)
(0.568325 0.128093 0)
(0.533389 0.12845 0)
(0.496912 0.131441 0)
(0.457663 0.135713 0)
(0.415117 0.138789 0)
(0.370256 0.140642 0)
(0.324406 0.142219 0)
(0.278613 0.143898 0)
(0.233771 0.146067 0)
(0.190683 0.152477 0)
(0.149807 0.164761 0)
(0.110295 0.181396 0)
(0.0678228 0.193844 0)
(0.0251947 0.208005 0)
(3 5.61766e-16 0)
(3 -2.22342e-17 0)
(3 -3.17888e-16 0)
(3 1.90952e-16 0)
(3 -1.38116e-16 0)
(3 1.82405e-15 0)
(3 4.92562e-15 0)
(3 3.38578e-15 0)
(3 1.42737e-15 0)
(3 1.09054e-15 0)
(3 1.08404e-15 0)
(3 3.19659e-16 0)
(3 -1.59703e-15 0)
(3 1.58534e-15 0)
(3 -2.61466e-16 0)
(3 3.67967e-15 0)
(3 3.21118e-15 0)
(3 5.50815e-15 0)
(3 1.56728e-15 0)
(3 -1.70168e-15 0)
(2.34062 0.116923 0)
(0.85189 0.142101 0)
(0.711659 0.137854 0)
(0.679061 0.135387 0)
(0.643635 0.136597 0)
(0.610245 0.137604 0)
(0.576151 0.137813 0)
(0.540557 0.139303 0)
(0.503119 0.143485 0)
(0.463444 0.148856 0)
(0.421231 0.152859 0)
(0.376732 0.155406 0)
(0.330367 0.15748 0)
(0.282895 0.159324 0)
(0.235709 0.16099 0)
(0.190401 0.166542 0)
(0.148039 0.178291 0)
(0.108238 0.195328 0)
(0.0661487 0.208445 0)
(0.0246173 0.223634 0)
(3 -1.46919e-17 0)
(3 4.49286e-16 0)
(3 -2.49842e-15 0)
(3 -1.1575e-15 0)
(3 1.09756e-16 0)
(3 3.9987e-15 0)
(3 3.12262e-15 0)
(3 2.76012e-15 0)
(3 -1.50444e-15 0)
(3 7.81418e-16 0)
(3 9.52327e-16 0)
(3 4.69425e-16 0)
(3 -1.69598e-15 0)
(3 1.28792e-15 0)
(3 1.00673e-16 0)
(3 1.50586e-15 0)
(3 1.70219e-15 0)
(3 2.73809e-15 0)
(3 7.85344e-16 0)
(3 -1.16461e-15 0)
(2.40139 0.12532 0)
(0.867507 0.155618 0)
(0.720729 0.146933 0)
(0.688313 0.144162 0)
(0.653028 0.145306 0)
(0.619199 0.146831 0)
(0.583242 0.148414 0)
(0.546238 0.150513 0)
(0.508544 0.155042 0)
(0.469358 0.161198 0)
(0.427681 0.166396 0)
(0.383168 0.17021 0)
(0.335956 0.173209 0)
(0.287 0.17532 0)
(0.238177 0.176505 0)
(0.191372 0.181276 0)
(0.147767 0.192364 0)
(0.107357 0.209475 0)
(0.0651437 0.222901 0)
(0.0242513 0.238905 0)
(3 -1.97705e-16 0)
(3 5.92837e-16 0)
(3 8.99177e-16 0)
(3 3.42623e-15 0)
(3 3.06577e-15 0)
(3 -6.23831e-16 0)
(3 1.98783e-16 0)
(3 2.84993e-15 0)
(3 1.22674e-15 0)
(3 7.19294e-16 0)
(3 1.92304e-15 0)
(3 1.2977e-15 0)
(3 1.98004e-15 0)
(3 4.96906e-15 0)
(3 -1.44917e-15 0)
(3 6.28129e-16 0)
(3 4.43974e-16 0)
(3 1.92087e-15 0)
(3 6.82658e-16 0)
(3 -2.7284e-15 0)
(2.46777 0.130333 0)
(0.885591 0.167991 0)
(0.731575 0.156085 0)
(0.69865 0.152899 0)
(0.662038 0.154434 0)
(0.626623 0.157241 0)
(0.589187 0.159636 0)
(0.550427 0.162146 0)
(0.51124 0.167024 0)
(0.471573 0.174015 0)
(0.430196 0.18048 0)
(0.386206 0.185552 0)
(0.339323 0.18934 0)
(0.290314 0.191634 0)
(0.241078 0.192484 0)
(0.193498 0.196657 0)
(0.148732 0.206983 0)
(0.107278 0.223861 0)
(0.064463 0.237288 0)
(0.0238721 0.253944 0)
(3 2.10943e-16 0)
(3 -9.96561e-16 0)
(3 1.87938e-15 0)
(3 1.29417e-15 0)
(3 1.10124e-15 0)
(3 -5.25366e-16 0)
(3 -1.77049e-15 0)
(3 -1.13329e-15 0)
(3 3.70689e-15 0)
(3 1.06556e-15 0)
(3 2.50378e-15 0)
(3 3.33278e-16 0)
(3 3.86912e-16 0)
(3 3.02847e-15 0)
(3 1.83196e-16 0)
(3 4.98467e-16 0)
(3 4.18638e-16 0)
(3 2.07579e-15 0)
(3 8.80653e-16 0)
(3 -3.3247e-15 0)
(2.54064 0.128929 0)
(0.906538 0.17518 0)
(0.7418 0.164698 0)
(0.706216 0.162858 0)
(0.665499 0.165793 0)
(0.627172 0.169057 0)
(0.588437 0.171819 0)
(0.549043 0.174357 0)
(0.509499 0.179204 0)
(0.469977 0.18669 0)
(0.42931 0.194166 0)
(0.386453 0.200385 0)
(0.340953 0.205049 0)
(0.293323 0.207812 0)
(0.244936 0.208707 0)
(0.197247 0.212553 0)
(0.151358 0.2221 0)
(0.108498 0.238545 0)
(0.0646508 0.251772 0)
(0.0237952 0.268919 0)
(3 -1.69377e-15 0)
(3 9.49293e-16 0)
(3 2.26438e-16 0)
(3 -1.31492e-15 0)
(3 4.87668e-16 0)
(3 3.44379e-15 0)
(3 -7.18504e-16 0)
(3 -4.09787e-16 0)
(3 -1.22235e-15 0)
(3 5.29518e-16 0)
(3 1.47419e-15 0)
(3 -3.04243e-15 0)
(3 1.03546e-15 0)
(3 -2.69746e-15 0)
(3 6.14956e-16 0)
(3 -4.20025e-16 0)
(3 -2.59598e-17 0)
(3 -6.56601e-15 0)
(3 -1.98128e-15 0)
(3 -4.46245e-15 0)
(2.60439 0.122647 0)
(0.922173 0.185469 0)
(0.744178 0.176609 0)
(0.707595 0.175234 0)
(0.66621 0.177934 0)
(0.626415 0.181016 0)
(0.585772 0.183682 0)
(0.545162 0.186121 0)
(0.505285 0.191086 0)
(0.466159 0.199062 0)
(0.426521 0.207338 0)
(0.385394 0.214475 0)
(0.342242 0.220007 0)
(0.296976 0.223544 0)
(0.250025 0.224968 0)
(0.202337 0.228875 0)
(0.155075 0.237724 0)
(0.110392 0.253629 0)
(0.0652016 0.266549 0)
(0.0237388 0.284029 0)
(3 -6.03696e-16 0)
(3 -8.22568e-16 0)
(3 -2.57475e-16 0)
(3 1.12162e-16 0)
(3 9.26481e-16 0)
(3 2.50752e-15 0)
(3 4.78677e-16 0)
(3 6.25502e-16 0)
(3 -6.25745e-16 0)
(3 -4.19506e-16 0)
(3 1.94731e-15 0)
(3 2.89029e-15 0)
(3 1.30761e-15 0)
(3 3.44988e-15 0)
(3 2.53193e-15 0)
(3 1.00118e-15 0)
(3 1.07191e-15 0)
(3 -2.96233e-15 0)
(3 -1.66311e-15 0)
(3 -2.3627e-15 0)
(2.6529 0.117436 0)
(0.929202 0.198219 0)
(0.736826 0.187282 0)
(0.701347 0.186187 0)
(0.660584 0.189203 0)
(0.621211 0.192326 0)
(0.581013 0.195223 0)
(0.54104 0.197962 0)
(0.501963 0.203271 0)
(0.463802 0.211646 0)
(0.425415 0.220347 0)
(0.386077 0.227938 0)
(0.34525 0.234112 0)
(0.302238 0.238631 0)
(0.256549 0.241087 0)
(0.208674 0.245493 0)
(0.159886 0.253828 0)
(0.113237 0.269226 0)
(0.0665072 0.281811 0)
(0.0239475 0.299416 0)
(3 -6.29551e-16 0)
(3 -1.10319e-15 0)
(3 -1.15464e-15 0)
(3 -3.21031e-17 0)
(3 1.30982e-15 0)
(3 1.01328e-15 0)
(3 5.77079e-16 0)
(3 2.32604e-15 0)
(3 -1.44961e-15 0)
(3 -6.64175e-16 0)
(3 5.16042e-15 0)
(3 5.86802e-15 0)
(3 3.85653e-15 0)
(3 2.2989e-15 0)
(3 2.0084e-15 0)
(3 1.20541e-15 0)
(3 7.72051e-17 0)
(3 -2.54353e-16 0)
(3 1.55312e-16 0)
(3 -2.79119e-15 0)
(2.68858 0.11625 0)
(0.930482 0.210042 0)
(0.727068 0.194198 0)
(0.695148 0.19635 0)
(0.655878 0.200014 0)
(0.617867 0.203743 0)
(0.578959 0.207093 0)
(0.540286 0.210195 0)
(0.50237 0.215705 0)
(0.465192 0.224255 0)
(0.427755 0.2331 0)
(0.389616 0.240876 0)
(0.350368 0.247622 0)
(0.308953 0.253322 0)
(0.264108 0.257147 0)
(0.215862 0.26237 0)
(0.165528 0.27045 0)
(0.116888 0.285491 0)
(0.0684194 0.297753 0)
(0.0242939 0.315251 0)
(3 -7.92366e-17 0)
(3 -1.50948e-15 0)
(3 -1.58017e-15 0)
(3 -8.50345e-16 0)
(3 2.8135e-15 0)
(3 -1.23573e-15 0)
(3 3.50811e-15 0)
(3 2.71687e-15 0)
(3 -3.34613e-15 0)
(3 1.34393e-15 0)
(3 -6.26986e-16 0)
(3 7.86567e-16 0)
(3 2.09239e-15 0)
(3 -1.1372e-15 0)
(3 -1.44138e-15 0)
(3 -1.2526e-15 0)
(3 6.58969e-16 0)
(3 -7.72562e-16 0)
(3 -1.28388e-15 0)
(3 -3.2512e-15 0)
(2.73439 0.128381 0)
(0.942407 0.231331 0)
(0.726971 0.204177 0)
(0.697586 0.207832 0)
(0.658284 0.212012 0)
(0.620718 0.215788 0)
(0.582182 0.219185 0)
(0.544072 0.222339 0)
(0.506772 0.227811 0)
(0.470202 0.236409 0)
(0.433377 0.245397 0)
(0.39599 0.253418 0)
(0.357767 0.260769 0)
(0.317411 0.267665 0)
(0.27298 0.272996 0)
(0.224083 0.279371 0)
(0.172098 0.287661 0)
(0.121372 0.302604 0)
(0.0709224 0.314509 0)
(0.0247866 0.331606 0)
(3 2.86002e-16 0)
(3 7.8152e-16 0)
(3 -2.61531e-16 0)
(3 1.48903e-15 0)
(3 -5.37667e-15 0)
(3 -1.30226e-15 0)
(3 2.19559e-15 0)
(3 -4.17022e-15 0)
(3 2.05604e-15 0)
(3 7.82855e-16 0)
(3 1.55122e-15 0)
(3 8.29932e-16 0)
(3 -2.05314e-15 0)
(3 1.17797e-15 0)
(3 3.51796e-15 0)
(3 3.2504e-15 0)
(3 2.37009e-15 0)
(3 1.68935e-15 0)
(3 2.00555e-15 0)
(3 -1.33633e-15 0)
(2.81293 0.134485 0)
(0.976379 0.249262 0)
(0.743266 0.210267 0)
(0.713311 0.218191 0)
(0.671296 0.222395 0)
(0.631215 0.227359 0)
(0.590962 0.231209 0)
(0.551862 0.234433 0)
(0.51423 0.239654 0)
(0.477829 0.248126 0)
(0.441438 0.257314 0)
(0.404574 0.265801 0)
(0.366922 0.273942 0)
(0.327039 0.282113 0)
(0.282569 0.289029 0)
(0.232919 0.296793 0)
(0.179473 0.305668 0)
(0.12677 0.320648 0)
(0.0741452 0.332098 0)
(0.0255756 0.348575 0)
(3 6.29948e-16 0)
(3 1.99399e-15 0)
(3 7.14361e-16 0)
(3 1.93155e-15 0)
(3 4.28501e-16 0)
(3 -7.2799e-15 0)
(3 -3.08758e-15 0)
(3 -2.53872e-15 0)
(3 1.84382e-15 0)
(3 1.44821e-15 0)
(3 2.83554e-15 0)
(3 -9.42505e-16 0)
(3 -3.95502e-15 0)
(3 2.61082e-15 0)
(3 4.13467e-15 0)
(3 4.07409e-15 0)
(3 9.31429e-16 0)
(3 1.60882e-15 0)
(3 2.08589e-15 0)
(3 -1.84131e-15 0)
(2.92848 0.109078 0)
(1.03336 0.263589 0)
(0.778721 0.21681 0)
(0.742946 0.227329 0)
(0.694036 0.235522 0)
(0.648901 0.239949 0)
(0.605013 0.244074 0)
(0.56344 0.24692 0)
(0.524301 0.25146 0)
(0.48741 0.25952 0)
(0.451343 0.268841 0)
(0.415062 0.277887 0)
(0.377846 0.286921 0)
(0.338112 0.296416 0)
(0.293318 0.305053 0)
(0.242772 0.314606 0)
(0.187737 0.324602 0)
(0.132773 0.339743 0)
(0.0776146 0.350582 0)
(0.0263763 0.366234 0)
(3 -1.15349e-15 0)
(3 2.02222e-15 0)
(3 -2.16439e-17 0)
(3 1.89449e-16 0)
(3 -3.96363e-16 0)
(3 -1.1265e-15 0)
(3 -8.58117e-16 0)
(3 1.43449e-15 0)
(3 -4.6234e-16 0)
(3 1.0316e-15 0)
(3 2.13664e-15 0)
(3 -1.95061e-16 0)
(3 -1.45179e-15 0)
(3 -9.95433e-16 0)
(3 -5.80664e-16 0)
(3 -2.3031e-16 0)
(3 1.33753e-16 0)
(3 -1.41092e-15 0)
(3 -2.05934e-15 0)
(3 -8.1107e-16 0)
(3.00245 0.0531982 0)
(1.08502 0.259649 0)
(0.806875 0.226435 0)
(0.77272 0.240447 0)
(0.722268 0.248806 0)
(0.672928 0.254542 0)
(0.624513 0.257992 0)
(0.578962 0.260122 0)
(0.53686 0.263588 0)
(0.498509 0.270863 0)
(0.462374 0.280142 0)
(0.426578 0.28978 0)
(0.389636 0.29986 0)
(0.34973 0.310914 0)
(0.304357 0.3216 0)
(0.252947 0.333297 0)
(0.196566 0.344638 0)
(0.139412 0.359817 0)
(0.0817203 0.369881 0)
(0.0275425 0.384684 0)
(3 2.66725e-16 0)
(3 3.18007e-15 0)
(3 -3.73074e-15 0)
(3 3.90074e-16 0)
(3 -3.88854e-15 0)
(3 3.66298e-15 0)
(3 1.53692e-15 0)
(3 -5.16557e-17 0)
(3 -2.39873e-15 0)
(3 2.7362e-15 0)
(3 1.19043e-15 0)
(3 2.50285e-15 0)
(3 9.90602e-16 0)
(3 -1.50009e-15 0)
(3 -2.25914e-16 0)
(3 -2.11225e-15 0)
(3 -1.16745e-15 0)
(3 -3.62566e-15 0)
(3 1.89966e-15 0)
(3 2.83154e-15 0)
(2.99258 0.0214572 0)
(1.10558 0.251277 0)
(0.810535 0.235296 0)
(0.78816 0.252458 0)
(0.74525 0.262936 0)
(0.698255 0.269829 0)
(0.647706 0.273195 0)
(0.598048 0.274353 0)
(0.551852 0.27646 0)
(0.510738 0.282734 0)
(0.473749 0.291677 0)
(0.43832 0.30154 0)
(0.401875 0.312422 0)
(0.362044 0.325079 0)
(0.316245 0.338171 0)
(0.263976 0.352482 0)
(0.206056 0.365544 0)
(0.146218 0.380905 0)
(0.085765 0.390195 0)
(0.0286031 0.404136 0)
(3 1.76176e-15 0)
(3 -3.67704e-15 0)
(3 1.96207e-15 0)
(3 2.04947e-15 0)
(3 2.21952e-15 0)
(3 2.00059e-15 0)
(3 -1.5071e-15 0)
(3 -3.8531e-15 0)
(3 -4.27748e-15 0)
(3 2.33842e-15 0)
(3 7.27671e-16 0)
(3 4.44738e-15 0)
(3 2.05964e-15 0)
(3 1.49278e-15 0)
(3 1.16302e-15 0)
(3 1.14447e-15 0)
(3 1.64248e-15 0)
(3 -1.27418e-16 0)
(3 4.67639e-16 0)
(3 -6.66504e-16 0)
(2.98594 0.0167958 0)
(1.118 0.246342 0)
(0.801668 0.243337 0)
(0.787794 0.262866 0)
(0.756961 0.274604 0)
(0.7185 0.283448 0)
(0.670465 0.288519 0)
(0.618882 0.289677 0)
(0.568695 0.290714 0)
(0.523973 0.295676 0)
(0.485122 0.303742 0)
(0.449403 0.313398 0)
(0.41329 0.324998 0)
(0.373683 0.339508 0)
(0.327665 0.355349 0)
(0.27474 0.37249 0)
(0.215485 0.387309 0)
(0.153381 0.40286 0)
(0.0902767 0.411531 0)
(0.0300463 0.424734 0)
(3 -8.277e-16 0)
(3 1.01328e-15 0)
(3 1.4575e-15 0)
(3 4.80208e-16 0)
(3 -1.31484e-15 0)
(3 -6.22372e-16 0)
(3 1.12138e-16 0)
(3 6.33503e-16 0)
(3 2.81293e-15 0)
(3 -7.51876e-16 0)
(3 -7.86086e-16 0)
(3 1.9201e-15 0)
(3 1.21794e-15 0)
(3 2.25579e-15 0)
(3 -2.8303e-16 0)
(3 3.0112e-15 0)
(3 2.54256e-15 0)
(3 1.28041e-15 0)
(3 1.88989e-15 0)
(3 -1.79527e-15 0)
(3.00248 0.00566153 0)
(1.13252 0.246054 0)
(0.784792 0.24089 0)
(0.780977 0.268351 0)
(0.757283 0.284731 0)
(0.727703 0.295548 0)
(0.687314 0.302937 0)
(0.638337 0.305552 0)
(0.586534 0.30622 0)
(0.538246 0.309841 0)
(0.49629 0.316628 0)
(0.459113 0.325599 0)
(0.423069 0.337607 0)
(0.384245 0.353922 0)
(0.338765 0.372574 0)
(0.28569 0.392612 0)
(0.224887 0.409484 0)
(0.160492 0.425651 0)
(0.0944644 0.434183 0)
(0.0312506 0.446712 0)
(3 3.724e-17 0)
(3 8.13502e-16 0)
(3 -3.25734e-16 0)
(3 -6.85055e-16 0)
(3 -1.57216e-15 0)
(3 -1.1744e-15 0)
(3 -8.07731e-17 0)
(3 -1.74059e-16 0)
(3 6.19724e-17 0)
(3 5.5569e-16 0)
(3 -4.11451e-16 0)
(3 -2.69025e-15 0)
(3 -6.71941e-16 0)
(3 -1.19754e-15 0)
(3 -3.05773e-16 0)
(3 -1.11495e-15 0)
(3 1.95803e-16 0)
(3 1.33138e-15 0)
(3 5.2558e-15 0)
(3 1.3886e-15 0)
(3.00156 0.000420785 0)
(1.15581 0.255374 0)
(0.769162 0.24488 0)
(0.768801 0.270799 0)
(0.751842 0.29179 0)
(0.727809 0.305345 0)
(0.695973 0.315287 0)
(0.653428 0.320824 0)
(0.603273 0.322894 0)
(0.552706 0.325649 0)
(0.50712 0.330688 0)
(0.467137 0.338413 0)
(0.430116 0.350616 0)
(0.391943 0.36883 0)
(0.347419 0.390396 0)
(0.294787 0.413239 0)
(0.233292 0.432185 0)
(0.167446 0.449232 0)
(0.0991412 0.458059 0)
(0.0329455 0.470125 0)
(3 -3.57796e-16 0)
(3 1.24221e-15 0)
(3 3.82388e-16 0)
(3 -1.13573e-15 0)
(3 1.38794e-15 0)
(3 4.33595e-16 0)
(3 -2.60725e-15 0)
(3 -1.36035e-15 0)
(3 -1.25475e-15 0)
(3 -3.33711e-16 0)
(3 -6.73134e-16 0)
(3 -9.18215e-16 0)
(3 -7.60434e-17 0)
(3 6.14689e-16 0)
(3 -1.37111e-15 0)
(3 -1.47156e-15 0)
(3 8.9823e-16 0)
(3 5.57367e-17 0)
(3 7.02344e-15 0)
(3 5.01593e-15 0)
(3.00015 1.89965e-05 0)
(1.19262 0.271909 0)
(0.763993 0.246358 0)
(0.753267 0.272843 0)
(0.74119 0.294797 0)
(0.722932 0.31248 0)
(0.697556 0.325564 0)
(0.662567 0.334822 0)
(0.617312 0.339586 0)
(0.567093 0.342312 0)
(0.518505 0.345632 0)
(0.474872 0.351764 0)
(0.435576 0.363761 0)
(0.397462 0.383648 0)
(0.354246 0.408045 0)
(0.302541 0.433655 0)
(0.241281 0.454977 0)
(0.174112 0.473596 0)
(0.103629 0.483368 0)
(0.0343218 0.495149 0)
(3 -8.77313e-16 0)
(3 2.595e-15 0)
(3 1.18421e-16 0)
(3 -4.78808e-16 0)
(3 -6.2939e-16 0)
(3 -8.27282e-16 0)
(3 4.03151e-16 0)
(3 -8.15415e-17 0)
(3 -1.65237e-15 0)
(3 -1.38662e-15 0)
(3 -2.10294e-15 0)
(3 -2.85747e-16 0)
(3 3.79316e-17 0)
(3 4.10161e-16 0)
(3 -1.03275e-15 0)
(3 -1.39391e-16 0)
(3 -1.79884e-15 0)
(3 1.56784e-15 0)
(3 3.61249e-16 0)
(3 2.02948e-15 0)
(3 -3.71334e-08 0)
(1.24444 0.288813 0)
(0.766729 0.255189 0)
(0.736816 0.277593 0)
(0.726501 0.297961 0)
(0.713554 0.316481 0)
(0.69459 0.333876 0)
(0.666622 0.346825 0)
(0.627721 0.355281 0)
(0.580084 0.359485 0)
(0.529944 0.361879 0)
(0.482774 0.366373 0)
(0.440272 0.377589 0)
(0.400936 0.398529 0)
(0.358421 0.425502 0)
(0.307846 0.454098 0)
(0.247878 0.478203 0)
(0.180863 0.498776 0)
(0.10902 0.509922 0)
(0.0365073 0.521713 0)
(3 -7.12738e-16 0)
(3 -1.49619e-15 0)
(3 -6.23545e-16 0)
(3 -4.09071e-16 0)
(3 -3.78373e-16 0)
(3 -3.67397e-15 0)
(3 -1.20631e-15 0)
(3 -1.20958e-15 0)
(3 -1.61278e-15 0)
(3 -8.12214e-16 0)
(3 -1.38173e-16 0)
(3 -3.01953e-15 0)
(3 -5.90229e-16 0)
(3 -9.89574e-16 0)
(3 1.43002e-15 0)
(3 1.29768e-15 0)
(3 -1.77626e-15 0)
(3 1.61734e-15 0)
(3 5.83257e-16 0)
(3 1.83825e-16 0)
(3 -5.42872e-08 0)
(1.31086 0.302957 0)
(0.774822 0.268019 0)
(0.724127 0.280298 0)
(0.710538 0.299445 0)
(0.70065 0.319749 0)
(0.687772 0.339856 0)
(0.666537 0.356917 0)
(0.634459 0.369044 0)
(0.591483 0.375865 0)
(0.54208 0.378628 0)
(0.492479 0.382087 0)
(0.44655 0.392235 0)
(0.404882 0.413453 0)
(0.362417 0.442362 0)
(0.313214 0.474044 0)
(0.254739 0.501469 0)
(0.188038 0.524804 0)
(0.114401 0.537983 0)
(0.038201 0.550058 0)
(3 4.26079e-16 0)
(3 -3.60912e-16 0)
(3 6.03465e-16 0)
(3 -7.07204e-16 0)
(3 -1.43165e-16 0)
(3 8.60935e-16 0)
(3 -1.36349e-15 0)
(3 -2.2843e-15 0)
(3 3.9871e-15 0)
(3 1.39112e-15 0)
(3 4.59405e-15 0)
(3 -1.1069e-15 0)
(3 5.08466e-18 0)
(3 -2.89862e-16 0)
(3 -1.58362e-15 0)
(3 -9.468e-16 0)
(3 9.44279e-18 0)
(3 -2.29311e-15 0)
(3 -4.50288e-15 0)
(3 -1.71623e-15 0)
(3 -3.12876e-08 0)
(1.38993 0.317082 0)
(0.783676 0.28528 0)
(0.719596 0.288836 0)
(0.696827 0.303276 0)
(0.686068 0.322136 0)
(0.677742 0.343713 0)
(0.662774 0.364617 0)
(0.637507 0.380353 0)
(0.600371 0.390855 0)
(0.553603 0.395929 0)
(0.503009 0.399535 0)
(0.454039 0.408427 0)
(0.409617 0.428962 0)
(0.366182 0.459128 0)
(0.318505 0.493933 0)
(0.261753 0.525107 0)
(0.196184 0.551757 0)
(0.121313 0.567351 0)
(0.041173 0.58018 0)
(3 1.26089e-15 0)
(3 -3.16099e-16 0)
(3 -9.28057e-16 0)
(3 -5.43544e-16 0)
(3 1.16439e-16 0)
(3 2.40399e-15 0)
(3 -6.84647e-16 0)
(3 1.51477e-15 0)
(3 -3.4253e-15 0)
(3 -1.53886e-15 0)
(3 -2.24209e-16 0)
(3 -1.79381e-15 0)
(3 1.61609e-15 0)
(3 6.31055e-16 0)
(3 4.21554e-16 0)
(3 -8.13475e-17 0)
(3 1.62166e-15 0)
(3 -1.32699e-15 0)
(3 7.78819e-16 0)
(3 1.17317e-15 0)
(3 -1.73733e-08 0)
(1.47932 0.329478 0)
(0.794673 0.303783 0)
(0.721825 0.300097 0)
(0.68823 0.30773 0)
(0.67263 0.324994 0)
(0.66554 0.346747 0)
(0.65602 0.369479 0)
(0.637657 0.389075 0)
(0.60723 0.403658 0)
(0.564927 0.412466 0)
(0.515157 0.417604 0)
(0.464126 0.425629 0)
(0.416705 0.445089 0)
(0.372092 0.475892 0)
(0.325834 0.513475 0)
(0.270753 0.548697 0)
(0.205584 0.579584 0)
(0.128255 0.598623 0)
(0.0431892 0.612755 0)
(3 -1.97772e-16 0)
(3 5.96437e-16 0)
(3 3.67222e-16 0)
(3 4.48786e-16 0)
(3 2.46312e-17 0)
(3 4.13522e-15 0)
(3 1.22106e-15 0)
(3 1.63686e-15 0)
(3 1.10972e-15 0)
(3 -1.62364e-15 0)
(3 -3.02647e-15 0)
(3 -1.53559e-16 0)
(3 -6.70776e-16 0)
(3 9.24819e-16 0)
(3 1.96284e-15 0)
(3 -7.49381e-16 0)
(3 2.2668e-15 0)
(3 -4.19824e-16 0)
(3 9.70381e-16 0)
(3 5.19087e-16 0)
(3 -7.21437e-09 0)
(1.57779 0.340715 0)
(0.805747 0.322675 0)
(0.726365 0.313436 0)
(0.686923 0.316193 0)
(0.662776 0.327623 0)
(0.653018 0.347442 0)
(0.646737 0.371428 0)
(0.634994 0.395144 0)
(0.611549 0.414342 0)
(0.574684 0.428018 0)
(0.527265 0.436042 0)
(0.475344 0.444076 0)
(0.425474 0.462439 0)
(0.379427 0.493314 0)
(0.334326 0.533269 0)
(0.281081 0.572706 0)
(0.216979 0.60833 0)
(0.137697 0.631633 0)
(0.047305 0.647985 0)
(3 3.75269e-17 0)
(3 2.24923e-16 0)
(3 6.92377e-16 0)
(3 1.29109e-16 0)
(3 8.27771e-16 0)
(3 6.90515e-16 0)
(3 8.58602e-16 0)
(3 5.37516e-16 0)
(3 2.26944e-15 0)
(3 6.06943e-16 0)
(3 -3.09144e-15 0)
(3 -4.15145e-15 0)
(3 -5.33728e-17 0)
(3 -1.15227e-15 0)
(3 1.95957e-16 0)
(3 -1.31904e-15 0)
(3 2.19595e-15 0)
(3 2.23156e-15 0)
(3 1.0553e-15 0)
(3 3.93727e-15 0)
(3 -2.31375e-09 0)
(1.68599 0.35215 0)
(0.817462 0.341734 0)
(0.732148 0.327319 0)
(0.689778 0.325889 0)
(0.658115 0.332926 0)
(0.642126 0.350006 0)
(0.636332 0.373523 0)
(0.629766 0.399245 0)
(0.613813 0.422757 0)
(0.583459 0.441641 0)
(0.539618 0.453679 0)
(0.488528 0.462761 0)
(0.437161 0.480458 0)
(0.389646 0.51099 0)
(0.34569 0.552753 0)
(0.294388 0.596307 0)
(0.230436 0.637985 0)
(0.147259 0.667676 0)
(0.04987 0.68732 0)
(3 1.09715e-15 0)
(3 -1.91373e-16 0)
(3 -1.67536e-15 0)
(3 -3.31963e-16 0)
(3 5.45478e-16 0)
(3 -8.78297e-16 0)
(3 -5.25532e-16 0)
(3 -1.03365e-15 0)
(3 1.71621e-15 0)
(3 -1.23875e-15 0)
(3 -1.03351e-15 0)
(3 -2.97092e-15 0)
(3 1.09933e-15 0)
(3 2.2112e-16 0)
(3 9.62515e-16 0)
(3 -1.1151e-15 0)
(3 -1.75371e-15 0)
(3 2.98061e-15 0)
(3 5.79291e-15 0)
(3 5.01639e-15 0)
(3 -6.30674e-10 0)
(1.80617 0.361468 0)
(0.830942 0.361185 0)
(0.734694 0.34289 0)
(0.692426 0.337157 0)
(0.658134 0.340897 0)
(0.634665 0.352864 0)
(0.626589 0.374671 0)
(0.622271 0.402229 0)
(0.613884 0.430154 0)
(0.590745 0.453694 0)
(0.551534 0.470558 0)
(0.502411 0.481968 0)
(0.450684 0.499684 0)
(0.401747 0.529441 0)
(0.35854 0.572648 0)
(0.309249 0.620485 0)
(0.246848 0.668763 0)
(0.161229 0.706365 0)
(0.0560002 0.731229 0)
(3 5.69203e-16 0)
(3 -1.45845e-15 0)
(3 4.96701e-16 0)
(3 1.69242e-15 0)
(3 -2.44818e-15 0)
(3 -8.5422e-16 0)
(3 -5.54173e-16 0)
(3 -1.99769e-15 0)
(3 1.67963e-15 0)
(3 -1.03315e-15 0)
(3 2.4521e-15 0)
(3 1.18241e-15 0)
(3 1.07791e-15 0)
(3 1.05659e-15 0)
(3 2.94096e-16 0)
(3 3.78239e-16 0)
(3 2.66155e-16 0)
(3 1.35161e-15 0)
(3 4.4506e-15 0)
(3 3.77738e-15 0)
(3 -1.65079e-10 0)
(1.94034 0.369983 0)
(0.845552 0.383222 0)
(0.739686 0.356811 0)
(0.698375 0.348117 0)
(0.661723 0.350052 0)
(0.632546 0.358795 0)
(0.618659 0.378101 0)
(0.613722 0.404915 0)
(0.610373 0.435436 0)
(0.595536 0.464015 0)
(0.562584 0.486578 0)
(0.517024 0.501083 0)
(0.466596 0.519358 0)
(0.416672 0.547972 0)
(0.374336 0.591851 0)
(0.327742 0.643544 0)
(0.266585 0.700384 0)
(0.175996 0.750391 0)
(0.0599376 0.782672 0)
(3 -9.71592e-17 0)
(3 1.68359e-16 0)
(3 -2.99805e-17 0)
(3 -1.62058e-15 0)
(3 -1.02071e-15 0)
(3 -3.20346e-16 0)
(3 1.31116e-16 0)
(3 3.55157e-16 0)
(3 -4.39442e-16 0)
(3 4.43336e-15 0)
(3 2.79038e-15 0)