/*--------------------------------*- C++ -*----------------------------------*\
  =========                 |
  \\      /  F ield         | OpenFOAM: The Open Source CFD Toolbox
   \\    /   O peration     | Website:  https://openfoam.org
    \\  /    A nd           | Version:  6.0
     \\/     M anipulation  |
\*---------------------------------------------------------------------------*/
FoamFile
{
    version     2.0;
    format      ascii;
    class       volScalarField;
    location    "3.50000212";
    object      rho;
}
// * * * * * * * * * * * * * * * * * * * * * * * * * * * * * * * * * * * * * //

dimensions      [1 -3 0 0 0 0 0];

internalField   nonuniform List<scalar> 
192000
(
1.39997
1.39997
1.39997
1.39997
1.39997
1.39997
1.39997
1.39997
1.39997
1.39997
1.39997
1.39997
1.39997
1.39997
1.39997
1.39997
1.39997
1.39997
1.39997
1.39997
2.37323
5.09854
5.45861
5.49157
5.54009
5.58409
5.62695
5.66836
5.70871
5.74689
5.7816
5.81227
5.83957
5.86512
5.89001
5.91376
5.93405
5.94938
5.96164
5.97211
1.39997
1.39997
1.39997
1.39997
1.39997
1.39997
1.39997
1.39997
1.39997
1.39997
1.39997
1.39997
1.39997
1.39997
1.39997
1.39997
1.39997
1.39997
1.39997
1.39997
2.37004
5.08997
5.45626
5.49081
5.53981
5.58392
5.62678
5.66833
5.70873
5.74677
5.78121
5.81164
5.83898
5.86483
5.88988
5.91345
5.93342
5.94855
5.96071
5.97114
1.39997
1.39997
1.39997
1.39997
1.39997
1.39997
1.39997
1.39997
1.39997
1.39997
1.39997
1.39997
1.39997
1.39997
1.39997
1.39997
1.39997
1.39997
1.39997
1.39997
2.36335
5.07533
5.44904
5.48647
5.53681
5.58152
5.62494
5.66699
5.70766
5.74583
5.78018
5.81046
5.8378
5.86392
5.88928
5.91285
5.93255
5.9474
5.9593
5.96956
1.39997
1.39997
1.39997
1.39997
1.39997
1.39997
1.39997
1.39997
1.39997
1.39997
1.39997
1.39997
1.39997
1.39997
1.39997
1.39997
1.39997
1.39997
1.39997
1.39997
2.35126
5.05785
5.44119
5.48118
5.53295
5.57877
5.62314
5.66575
5.70662
5.74478
5.77902
5.80916
5.83641
5.86254
5.88795
5.91144
5.93095
5.94562
5.95717
5.96731
1.39997
1.39997
1.39997
1.39997
1.39997
1.39997
1.39997
1.39997
1.39997
1.39997
1.39997
1.39997
1.39997
1.39997
1.39997
1.39997
1.39997
1.39997
1.39997
1.39997
2.33437
5.0437
5.43699
5.47695
5.52895
5.57546
5.62061
5.66367
5.70471
5.743
5.77738
5.80759
5.83477
5.86068
5.88595
5.90947
5.92909
5.94363
5.95437
5.96396
1.39997
1.39997
1.39997
1.39997
1.39997
1.39997
1.39997
1.39997
1.39997
1.39997
1.39997
1.39997
1.39997
1.39997
1.39997
1.39997
1.39997
1.39997
1.39997
1.39997
2.31248
5.03554
5.43659
5.4747
5.52645
5.57322
5.61852
5.66164
5.70279
5.74112
5.7756
5.80592
5.83299
5.85843
5.88315
5.90643
5.92622
5.94093
5.95108
5.96026
1.39997
1.39997
1.39997
1.39997
1.39997
1.39997
1.39997
1.39997
1.39997
1.39997
1.39997
1.39997
1.39997
1.39997
1.39997
1.39997
1.39997
1.39997
1.39997
1.39997
2.28646
5.03502
5.43942
5.47412
5.52491
5.5715
5.6166
5.65966
5.70077
5.7391
5.77362
5.80405
5.8311
5.85625
5.88051
5.90346
5.92307
5.93751
5.94686
5.9557
1.39997
1.39997
1.39997
1.39997
1.39997
1.39997
1.39997
1.39997
1.39997
1.39997
1.39997
1.39997
1.39997
1.39997
1.39997
1.39997
1.39997
1.39997
1.39997
1.39997
2.25813
5.03357
5.44456
5.47516
5.52435
5.57034
5.61497
5.65778
5.69887
5.73711
5.7714
5.80161
5.8285
5.85342
5.87733
5.89983
5.91902
5.93324
5.94217
5.95088
1.39997
1.39997
1.39997
1.39997
1.39997
1.39997
1.39997
1.39997
1.39997
1.39997
1.39997
1.39997
1.39997
1.39997
1.39997
1.39997
1.39997
1.39997
1.39997
1.39997
2.22127
5.00992
5.44399
5.47557
5.52427
5.56984
5.61431
5.65668
5.69748
5.7354
5.76929
5.79917
5.8259
5.85065
5.87407
5.89561
5.91374
5.92759
5.93651
5.94552
1.39997
1.39997
1.39997
1.39997
1.39997
1.39997
1.39997
1.39997
1.39997
1.39997
1.39997
1.39997
1.39997
1.39997
1.39997
1.39997
1.39997
1.39997
1.39997
1.39997
2.18236
4.97728
5.4428
5.47653
5.52576
5.57092
5.61502
5.65691
5.69685
5.73381
5.76679
5.79607
5.8226
5.8473
5.87045
5.89117
5.90817
5.92153
5.93037
5.93954
1.39997
1.39997
1.39997
1.39997
1.39997
1.39997
1.39997
1.39997
1.39997
1.39997
1.39997
1.39997
1.39997
1.39997
1.39997
1.39997
1.39997
1.39997
1.39997
1.39997
2.13974
4.937
5.4403
5.47744
5.5281
5.57299
5.61641
5.65716
5.69561
5.73145
5.76381
5.79268
5.81887
5.8431
5.86555
5.88534
5.90146
5.91462
5.92357
5.93285
1.39997
1.39997
1.39997
1.39997
1.39997
1.39997
1.39997
1.39997
1.39997
1.39997
1.39997
1.39997
1.39997
1.39997
1.39997
1.39997
1.39997
1.39997
1.39997
1.39997
2.09425
4.89793
5.43881
5.47801
5.53027
5.57472
5.61727
5.65747
5.69479
5.72898
5.76028
5.7888
5.81482
5.83867
5.86045
5.87932
5.89458
5.90743
5.91611
5.92521
1.39997
1.39997
1.39997
1.39997
1.39997
1.39997
1.39997
1.39997
1.39997
1.39997
1.39997
1.39997
1.39997
1.39997
1.39997
1.39997
1.39997
1.39997
1.39997
1.39997
2.04516
4.86437
5.44057
5.47898
5.53091
5.57502
5.61696
5.65526
5.69096
5.72452
5.75587
5.78457
5.81042
5.83359
5.8544
5.8724
5.88712
5.89972
5.90785
5.91646
1.39997
1.39997
1.39997
1.39997
1.39997
1.39997
1.39997
1.39997
1.39997
1.39997
1.39997
1.39997
1.39997
1.39997
1.39997
1.39997
1.39997
1.39997
1.39997
1.39997
1.99264
4.83601
5.44736
5.47934
5.52926
5.5721
5.61351
5.6518
5.6876
5.72088
5.75143
5.77934
5.80473
5.82754
5.84778
5.86512
5.8793
5.89145
5.89877
5.90683
1.39997
1.39997
1.39997
1.39997
1.39997
1.39997
1.39997
1.39997
1.39997
1.39997
1.39997
1.39997
1.39997
1.39997
1.39997
1.39997
1.39997
1.39997
1.39997
1.39997
1.93815
4.80348
5.45452
5.47913
5.52772
5.56963
5.60972
5.64698
5.68241
5.71583
5.74638
5.77389
5.79871
5.82093
5.84061
5.85739
5.87094
5.88238
5.88874
5.89621
1.39997
1.39997
1.39997
1.39997
1.39997
1.39997
1.39997
1.39997
1.39997
1.39997
1.39997
1.39997
1.39997
1.39997
1.39997
1.39997
1.39997
1.39997
1.39997
1.39997
1.88366
4.76021
5.45768
5.47426
5.51977
5.56094
5.60172
5.64006
5.67661
5.71069
5.7411
5.76787
5.79183
5.81342
5.8327
5.84904
5.86183
5.87234
5.87788
5.88501
1.39997
1.39997
1.39997
1.39997
1.39997
1.39997
1.39997
1.39997
1.39997
1.39997
1.39997
1.39997
1.39997
1.39997
1.39997
1.39997
1.39997
1.39997
1.39997
1.39997
1.83058
4.69944
5.45769
5.47163
5.51517
5.5542
5.59419
5.63294
5.67038
5.70506
5.73542
5.76153
5.78454
5.80534
5.82414
5.83992
5.85171
5.86124
5.86615
5.87303
1.39997
1.39997
1.39997
1.39997
1.39997
1.39997
1.39997
1.39997
1.39997
1.39997
1.39997
1.39997
1.39997
1.39997
1.39997
1.39997
1.39997
1.39997
1.39997
1.39997
1.77749
4.62328
5.44927
5.46246
5.5064
5.54536
5.58593
5.62559
5.66382
5.69897
5.72939
5.755
5.77702
5.7968
5.81484
5.8299
5.84061
5.84933
5.85378
5.86041
1.39997
1.39997
1.39997
1.39997
1.39997
1.39997
1.39997
1.39997
1.39997
1.39997
1.39997
1.39997
1.39997
1.39997
1.39997
1.39997
1.39997
1.39997
1.39997
1.39997
1.7248
4.54815
5.44792
5.45597
5.4987
5.53672
5.57765
5.61809
5.65684
5.69238
5.72304
5.74845
5.76969
5.78837
5.80531
5.81918
5.82859
5.83663
5.84069
5.84694
1.39997
1.39997
1.39997
1.39997
1.39997
1.39997
1.39997
1.39997
1.39997
1.39997
1.39997
1.39997
1.39997
1.39997
1.39997
1.39997
1.39997
1.39997
1.39997
1.39997
1.66802
4.47794
5.44887
5.45072
5.49144
5.52867
5.56978
5.61057
5.64948
5.68522
5.71608
5.7413
5.76179
5.7793
5.79493
5.80751
5.81578
5.82338
5.82693
5.83254
1.39997
1.39997
1.39997
1.39997
1.39997
1.39997
1.39997
1.39997
1.39997
1.39997
1.39997
1.39997
1.39997
1.39997
1.39997
1.39997
1.39997
1.39997
1.39997
1.39997
1.61133
4.43855
5.46864
5.45345
5.48893
5.52291
5.56276
5.60307
5.64181
5.67769
5.70877
5.73392
5.75385
5.77022
5.7843
5.79529
5.80236
5.80944
5.81217
5.81701
1.39997
1.39997
1.39997
1.39997
1.39997
1.39997
1.39997
1.39997
1.39997
1.39997
1.39997
1.39997
1.39997
1.39997
1.39997
1.39997
1.39997
1.39997
1.39997
1.39997
1.53833
4.39259
5.48131
5.45731
5.49033
5.52053
5.55748
5.59609
5.63425
5.67006
5.7011
5.72586
5.74499
5.7601
5.77262
5.78226
5.78853
5.79493
5.79626
5.80016
1.39997
1.39997
1.39997
1.39997
1.39997
1.39997
1.39997
1.39997
1.39997
1.39997
1.39997
1.39997
1.39997
1.39997
1.39997
1.39997
1.39997
1.39997
1.39997
1.39997
1.46458
4.31595
5.48746
5.4601
5.49364
5.52061
5.55394
5.58989
5.62693
5.66238
5.69318
5.7174
5.73559
5.74928
5.76009
5.76837
5.77402
5.77946
5.77895
5.78212
1.39997
1.39997
1.39997
1.39997
1.39997
1.39997
1.39997
1.39997
1.39997
1.39997
1.39997
1.39997
1.39997
1.39997
1.39997
1.39997
1.39997
1.39997
1.39997
1.39997
1.42423
4.21457
5.45733
5.45876
5.49284
5.52142
5.55202
5.58482
5.62002
5.65462
5.68485
5.70824
5.72519
5.73733
5.74648
5.7536
5.75867
5.76285
5.76044
5.76291
1.39997
1.39997
1.39997
1.39997
1.39997
1.39997
1.39997
1.39997
1.39997
1.39997
1.39997
1.39997
1.39997
1.39997
1.39997
1.39997
1.39997
1.39997
1.39997
1.39997
1.40466
4.09175
5.41691
5.44755
5.49144
5.52028
5.55068
5.58104
5.61378
5.64677
5.67599
5.6983
5.71379
5.72428
5.73178
5.73767
5.74177
5.74446
5.74061
5.74281
1.39997
1.39997
1.39997
1.39997
1.39997
1.39997
1.39997
1.39997
1.39997
1.39997
1.39997
1.39997
1.39997
1.39997
1.39997
1.39997
1.39997
1.39997
1.39997
1.39997
1.40042
3.96095
5.36502
5.42646
5.47706
5.51661
5.54828
5.57768
5.60801
5.63876
5.66636
5.68727
5.70129
5.71033
5.71643
5.72085
5.72329
5.72431
5.71958
5.72147
1.39997
1.39997
1.39997
1.39997
1.39997
1.39997
1.39997
1.39997
1.39997
1.39997
1.39997
1.39997
1.39997
1.39997
1.39997
1.39997
1.39997
1.39997
1.39997
1.39997
1.39998
3.83028
5.31564
5.39451
5.45632
5.50424
5.54225
5.57372
5.60285
5.63106
5.65623
5.67527
5.68774
5.69555
5.70049
5.70297
5.70274
5.7019
5.69691
5.69893
1.39997
1.39997
1.39997
1.39997
1.39997
1.39997
1.39997
1.39997
1.39997
1.39997
1.39997
1.39997
1.39997
1.39997
1.39997
1.39997
1.39997
1.39997
1.39997
1.39997
1.39997
3.69732
5.27518
5.36573
5.43266
5.48792
5.53243
5.56781
5.59717
5.62312
5.64541
5.66223
5.67327
5.68013
5.68385
5.68403
5.68061
5.6778
5.67262
5.67408
1.39997
1.39997
1.39997
1.39997
1.39997
1.39997
1.39997
1.39997
1.39997
1.39997
1.39997
1.39997
1.39997
1.39997
1.39997
1.39997
1.39997
1.39997
1.39997
1.39997
1.39997
3.56284
5.23788
5.34364
5.40828
5.46806
5.51732
5.5577
5.58912
5.61442
5.63422
5.64866
5.65817
5.66397
5.6663
5.66377
5.65682
5.6518
5.64587
5.64664
1.39997
1.39997
1.39997
1.39997
1.39997
1.39997
1.39997
1.39997
1.39997
1.39997
1.39997
1.39997
1.39997
1.39997
1.39997
1.39997
1.39997
1.39997
1.39997
1.39997
1.39997
3.42701
5.20572
5.32456
5.386
5.44637
5.50004
5.54447
5.5785
5.60412
5.6225
5.63487
5.6428
5.64693
5.64711
5.64185
5.63203
5.62454
5.6163
5.61468
1.39997
1.39997
1.39997
1.39997
1.39997
1.39997
1.39997
1.39997
1.39997
1.39997
1.39997
1.39997
1.39997
1.39997
1.39997
1.39997
1.39997
1.39997
1.39997
1.39997
1.39997
3.28875
5.17921
5.30754
5.36665
5.42462
5.47935
5.52688
5.5641
5.59128
5.60975
5.6208
5.627
5.62888
5.62602
5.61836
5.60609
5.59494
5.58255
5.57822
1.39997
1.39997
1.39997
1.39997
1.39997
1.39997
1.39997
1.39997
1.39997
1.39997
1.39997
1.39997
1.39997
1.39997
1.39997
1.39997
1.39997
1.39997
1.39997
1.39997
1.39997
3.14738
5.15553
5.29461
5.35147
5.40487
5.45776
5.50696
5.54707
5.57625
5.59611
5.60661
5.61073
5.60934
5.60292
5.59301
5.57867
5.56305
5.54454
5.53526
1.39997
1.39997
1.39997
1.39997
1.39997
1.39997
1.39997
1.39997
1.39997
1.39997
1.39997
1.39997
1.39997
1.39997
1.39997
1.39997
1.39997
1.39997
1.39997
1.39997
1.39997
3.00242
5.13057
5.28482
5.33682
5.38649
5.43629
5.4847
5.52707
5.55905
5.5805
5.59113
5.59331
5.58814
5.5784
5.56649
5.54924
5.52699
5.50012
5.4865
1.39997
1.39997
1.39997
1.39997
1.39997
1.39997
1.39997
1.39997
1.39997
1.39997
1.39997
1.39997
1.39997
1.39997
1.39997
1.39997
1.39997
1.39997
1.39997
1.39997
1.39997
2.85294
5.101
5.28267
5.32529
5.37047
5.41601
5.46237
5.50653
5.54048
5.56356
5.57491
5.57485
5.56571
5.55299
5.5383
5.51634
5.48666
5.44982
5.42889
1.39997
1.39997
1.39997
1.39997
1.39997
1.39997
1.39997
1.39997
1.39997
1.39997
1.39997
1.39997
1.39997
1.39997
1.39997
1.39997
1.39997
1.39997
1.39997
1.39997
1.39997
2.69952
5.06183
5.28844
5.31732
5.35618
5.39821
5.44048
5.48489
5.52229
5.54509
5.55704
5.55518
5.54258
5.52739
5.50894
5.48037
5.43959
5.38955
5.36258
1.39997
1.39997
1.39997
1.39997
1.39997
1.39997
1.39997
1.39997
1.39997
1.39997
1.39997
1.39997
1.39997
1.39997
1.39997
1.39997
1.39997
1.39997
1.39997
1.39997
1.39997
2.5433
5.01232
5.30176
5.31282
5.3439
5.38282
5.42266
5.46416
5.50235
5.52572
5.53718
5.53445
5.51944
5.50202
5.47754
5.43919
5.38628
5.32096
5.28053
1.39997
1.39997
1.39997
1.39997
1.39997
1.39997
1.39997
1.39997
1.39997
1.39997
1.39997
1.39997
1.39997
1.39997
1.39997
1.39997
1.39997
1.39997
1.39997
1.39997
1.39997
2.38346
4.94804
5.32207
5.31488
5.33427
5.3696
5.40826
5.44544
5.48146
5.50792
5.51429
5.51255
5.49647
5.4765
5.44487
5.39506
5.32515
5.23567
5.17977
1.39997
1.39997
1.39997
1.39997
1.39997
1.39997
1.39997
1.39997
1.39997
1.39997
1.39997
1.39997
1.39997
1.39997
1.39997
1.39997
1.39997
1.39997
1.39997
1.39997
1.39997
2.22085
4.88033
5.35527
5.32558
5.33587
5.36145
5.39487
5.42503
5.45779
5.48196
5.49158
5.48899
5.47267
5.4502
5.40995
5.34614
5.25834
5.13988
5.04556
1.39997
1.39997
1.39997
1.39997
1.39997
1.39997
1.39997
1.39997
1.39997
1.39997
1.39997
1.39997
1.39997
1.39997
1.39997
1.39997
1.39997
1.39997
1.39997
1.39997
1.39997
2.0435
4.81496
5.39711
5.34878
5.34964
5.36088
5.38128
5.40795
5.43058
5.45337
5.46777
5.46502
5.44932
5.42335
5.37421
5.29667
5.18595
5.01637
4.85251
1.39997
1.39997
1.39997
1.39997
1.39997
1.39997
1.39997
1.39997
1.39997
1.39997
1.39997
1.39997
1.39997
1.39997
1.39997
1.39997
1.39997
1.39997
1.39997
1.39997
1.39997
1.84908
4.76772
5.43238
5.37072
5.37056
5.37085
5.37515
5.38961
5.40795
5.42516
5.44188
5.44263
5.42553
5.39338
5.33578
5.24525
5.11118
4.90159
4.63062
1.39997
1.39997
1.39997
1.39997
1.39997
1.39997
1.39997
1.39997
1.39997
1.39997
1.39997
1.39997
1.39997
1.39997
1.39997
1.39997
1.39997
1.39997
1.39997
1.39997
2.37323
5.09854
5.45861
5.49157
5.54009
5.58409
5.62695
5.66836
5.70871
5.74689
5.7816
5.81227
5.83957
5.86512
5.89001
5.91376
5.93405
5.94938
5.96164
5.97211
1.39997
1.39997
1.39997
1.39997
1.39997
1.39997
1.39997
1.39997
1.39997
1.39997
1.39997
1.39997
1.39997
1.39997
1.39997
1.39997
1.39997
1.39997
1.39997
1.39997
2.37004
5.08997
5.45626
5.49081
5.53981
5.58392
5.62678
5.66833
5.70873
5.74677
5.78121
5.81164
5.83898
5.86483
5.88988
5.91345
5.93342
5.94855
5.96071
5.97114
1.39997
1.39997
1.39997
1.39997
1.39997
1.39997
1.39997
1.39997
1.39997
1.39997
1.39997
1.39997
1.39997
1.39997
1.39997
1.39997
1.39997
1.39997
1.39997
1.39997
2.36335
5.07533
5.44904
5.48647
5.53681
5.58152
5.62494
5.66699
5.70766
5.74583
5.78018
5.81046
5.8378
5.86392
5.88928
5.91285
5.93255
5.9474
5.95931
5.96956
1.39997
1.39997
1.39997
1.39997
1.39997
1.39997
1.39997
1.39997
1.39997
1.39997
1.39997
1.39997
1.39997
1.39997
1.39997
1.39997
1.39997
1.39997
1.39997
1.39997
2.35127
5.05785
5.44119
5.48118
5.53295
5.57877
5.62314
5.66575
5.70662
5.74478
5.77902
5.80916
5.83641
5.86254
5.88795
5.91144
5.93095
5.94562
5.95717
5.96732
1.39997
1.39997
1.39997
1.39997
1.39997
1.39997
1.39997
1.39997
1.39997
1.39997
1.39997
1.39997
1.39997
1.39997
1.39997
1.39997
1.39997
1.39997
1.39997
1.39997
2.33437
5.0437
5.43699
5.47695
5.52895
5.57546
5.62061
5.66367
5.70471
5.743
5.77738
5.8076
5.83477
5.86068
5.88595
5.90947
5.92909
5.94363
5.95438
5.96396
1.39997
1.39997
1.39997
1.39997
1.39997
1.39997
1.39997
1.39997
1.39997
1.39997
1.39997
1.39997
1.39997
1.39997
1.39997
1.39997
1.39997
1.39997
1.39997
1.39997
2.31248
5.03554
5.43659
5.4747
5.52645
5.57322
5.61852
5.66164
5.70279
5.74112
5.7756
5.80593
5.833
5.85843
5.88315
5.90643
5.92622
5.94093
5.95108
5.96026
1.39997
1.39997
1.39997
1.39997
1.39997
1.39997
1.39997
1.39997
1.39997
1.39997
1.39997
1.39997
1.39997
1.39997
1.39997
1.39997
1.39997
1.39997
1.39997
1.39997
2.28646
5.03502
5.43942
5.47412
5.52491
5.5715
5.6166
5.65966
5.70077
5.7391
5.77362
5.80405
5.8311
5.85625
5.88051
5.90346
5.92307
5.93751
5.94686
5.9557
1.39997
1.39997
1.39997
1.39997
1.39997
1.39997
1.39997
1.39997
1.39997
1.39997
1.39997
1.39997
1.39997
1.39997
1.39997
1.39997
1.39997
1.39997
1.39997
1.39997
2.25813
5.03358
5.44456
5.47516
5.52435
5.57034
5.61497
5.65778
5.69887
5.73711
5.7714
5.80161
5.8285
5.85342
5.87733
5.89983
5.91902
5.93324
5.94217
5.95088
1.39997
1.39997
1.39997
1.39997
1.39997
1.39997
1.39997
1.39997
1.39997
1.39997
1.39997
1.39997
1.39997
1.39997
1.39997
1.39997
1.39997
1.39997
1.39997
1.39997
2.22127
5.00992
5.44399
5.47557
5.52427
5.56984
5.61431
5.65668
5.69748
5.7354
5.76929
5.79917
5.8259
5.85065
5.87407
5.89561
5.91374
5.92759
5.93651
5.94552
1.39997
1.39997
1.39997
1.39997
1.39997
1.39997
1.39997
1.39997
1.39997
1.39997
1.39997
1.39997
1.39997
1.39997
1.39997
1.39997
1.39997
1.39997
1.39997
1.39997
2.18237
4.97728
5.4428
5.47653
5.52576
5.57092
5.61502
5.65691
5.69685
5.73381
5.76679
5.79607
5.8226
5.8473
5.87045
5.89117
5.90817
5.92153
5.93037
5.93954
1.39997
1.39997
1.39997
1.39997
1.39997
1.39997
1.39997
1.39997
1.39997
1.39997
1.39997
1.39997
1.39997
1.39997
1.39997
1.39997
1.39997
1.39997
1.39997
1.39997
2.13974
4.937
5.4403
5.47744
5.5281
5.57299
5.61641
5.65716
5.69561
5.73145
5.76381
5.79268
5.81887
5.8431
5.86555
5.88534
5.90146
5.91462
5.92357
5.93285
1.39997
1.39997
1.39997
1.39997
1.39997
1.39997
1.39997
1.39997
1.39997
1.39997
1.39997
1.39997
1.39997
1.39997
1.39997
1.39997
1.39997
1.39997
1.39997
1.39997
2.09426
4.89793
5.43881
5.47801
5.53027
5.57472
5.61727
5.65747
5.69479
5.72898
5.76028
5.7888
5.81482
5.83867
5.86045
5.87932
5.89458
5.90743
5.91611
5.92521
1.39997
1.39997
1.39997
1.39997
1.39997
1.39997
1.39997
1.39997
1.39997
1.39997
1.39997
1.39997
1.39997
1.39997
1.39997
1.39997
1.39997
1.39997
1.39997
1.39997
2.04516
4.86437
5.44057
5.47898
5.53092
5.57502
5.61696
5.65526
5.69096
5.72452
5.75587
5.78457
5.81042
5.83359
5.85441
5.8724
5.88712
5.89972
5.90786
5.91646
1.39997
1.39997
1.39997
1.39997
1.39997
1.39997
1.39997
1.39997
1.39997
1.39997
1.39997
1.39997
1.39997
1.39997
1.39997
1.39997
1.39997
1.39997
1.39997
1.39997
1.99264
4.83601
5.44736
5.47934
5.52926
5.5721
5.61351
5.6518
5.6876
5.72088
5.75143
5.77934
5.80473
5.82754
5.84778
5.86513
5.8793
5.89145
5.89877
5.90683
1.39997
1.39997
1.39997
1.39997
1.39997
1.39997
1.39997
1.39997
1.39997
1.39997
1.39997
1.39997
1.39997
1.39997
1.39997
1.39997
1.39997
1.39997
1.39997
1.39997
1.93815
4.80349
5.45452
5.47913
5.52772
5.56963
5.60972
5.64698
5.68241
5.71583
5.74638
5.77389
5.79871
5.82093
5.84061
5.85739
5.87094
5.88238
5.88874
5.89621
1.39997
1.39997
1.39997
1.39997
1.39997
1.39997
1.39997
1.39997
1.39997
1.39997
1.39997
1.39997
1.39997
1.39997
1.39997
1.39997
1.39997
1.39997
1.39997
1.39997
1.88366
4.76021
5.45768
5.47426
5.51978
5.56094
5.60172
5.64006
5.67661
5.71069
5.7411
5.76787
5.79183
5.81342
5.8327
5.84904
5.86183
5.87234
5.87788
5.88502
1.39997
1.39997
1.39997
1.39997
1.39997
1.39997
1.39997
1.39997
1.39997
1.39997
1.39997
1.39997
1.39997
1.39997
1.39997
1.39997
1.39997
1.39997
1.39997
1.39997
1.83058
4.69944
5.45769
5.47163
5.51517
5.5542
5.59419
5.63294
5.67038
5.70506
5.73542
5.76153
5.78454
5.80534
5.82414
5.83992
5.85171
5.86124
5.86615
5.87303
1.39997
1.39997
1.39997
1.39997
1.39997
1.39997
1.39997
1.39997
1.39997
1.39997
1.39997
1.39997
1.39997
1.39997
1.39997
1.39997
1.39997
1.39997
1.39997
1.39997
1.77749
4.62328
5.44928
5.46246
5.5064
5.54536
5.58594
5.62559
5.66382
5.69897
5.72939
5.755
5.77702
5.7968
5.81485
5.8299
5.84061
5.84933
5.85378
5.86041
1.39997
1.39997
1.39997
1.39997
1.39997
1.39997
1.39997
1.39997
1.39997
1.39997
1.39997
1.39997
1.39997
1.39997
1.39997
1.39997
1.39997
1.39997
1.39997
1.39997
1.7248
4.54815
5.44792
5.45597
5.4987
5.53672
5.57765
5.61809
5.65684
5.69238
5.72304
5.74845
5.76969
5.78837
5.80531
5.81918
5.82859
5.83663
5.84069
5.84694
1.39997
1.39997
1.39997
1.39997
1.39997
1.39997
1.39997
1.39997
1.39997
1.39997
1.39997
1.39997
1.39997
1.39997
1.39997
1.39997
1.39997
1.39997
1.39997
1.39997
1.66802
4.47794
5.44887
5.45072
5.49144
5.52867
5.56978
5.61057
5.64948
5.68522
5.71608
5.7413
5.76179
5.7793
5.79493
5.80751
5.81578
5.82338
5.82693
5.83254
1.39997
1.39997
1.39997
1.39997
1.39997
1.39997
1.39997
1.39997
1.39997
1.39997
1.39997
1.39997
1.39997
1.39997
1.39997
1.39997
1.39997
1.39997
1.39997
1.39997
1.61133
4.43855
5.46864
5.45345
5.48893
5.52291
5.56276
5.60307
5.64181
5.67769
5.70877
5.73392
5.75385
5.77022
5.7843
5.79529
5.80236
5.80944
5.81217
5.81701
1.39997
1.39997
1.39997
1.39997
1.39997
1.39997
1.39997
1.39997
1.39997
1.39997
1.39997
1.39997
1.39997
1.39997
1.39997
1.39997
1.39997
1.39997
1.39997
1.39997
1.53833
4.39259
5.48131
5.45731
5.49033
5.52053
5.55748
5.59609
5.63425
5.67006
5.7011
5.72586
5.74499
5.7601
5.77262
5.78226
5.78853
5.79493
5.79626
5.80016
1.39997
1.39997
1.39997
1.39997
1.39997
1.39997
1.39997
1.39997
1.39997
1.39997
1.39997
1.39997
1.39997
1.39997
1.39997
1.39997
1.39997
1.39997
1.39997
1.39997
1.46458
4.31595
5.48746
5.4601
5.49364
5.52061
5.55394
5.58989
5.62693
5.66238
5.69318
5.7174
5.73559
5.74929
5.76009
5.76837
5.77402
5.77946
5.77895
5.78212
1.39997
1.39997
1.39997
1.39997
1.39997
1.39997
1.39997
1.39997
1.39997
1.39997
1.39997
1.39997
1.39997
1.39997
1.39997
1.39997
1.39997
1.39997
1.39997
1.39997
1.42423
4.21457
5.45734
5.45876
5.49284
5.52142
5.55202
5.58482
5.62002
5.65462
5.68485
5.70824
5.72519
5.73733
5.74648
5.7536
5.75867
5.76285
5.76044
5.76291
1.39997
1.39997
1.39997
1.39997
1.39997
1.39997
1.39997
1.39997
1.39997
1.39997
1.39997
1.39997
1.39997
1.39997
1.39997
1.39997
1.39997
1.39997
1.39997
1.39997
1.40466
4.09175
5.41691
5.44755
5.49144
5.52028
5.55068
5.58104
5.61378
5.64677
5.67599
5.6983
5.71379
5.72428
5.73178
5.73767
5.74177
5.74446
5.74061
5.74281
1.39997
1.39997
1.39997
1.39997
1.39997
1.39997
1.39997
1.39997
1.39997
1.39997
1.39997
1.39997
1.39997
1.39997
1.39997
1.39997
1.39997
1.39997
1.39997
1.39997
1.40042
3.96096
5.36502
5.42647
5.47706
5.51661
5.54828
5.57768
5.60801
5.63876
5.66636
5.68727
5.70129
5.71033
5.71644
5.72086
5.72329
5.72431
5.71958
5.72147
1.39997
1.39997
1.39997
1.39997
1.39997
1.39997
1.39997
1.39997
1.39997
1.39997
1.39997
1.39997
1.39997
1.39997
1.39997
1.39997
1.39997
1.39997
1.39997
1.39997
1.39998
3.83029
5.31564
5.39451
5.45632
5.50424
5.54225
5.57372
5.60285
5.63106
5.65623
5.67527
5.68775
5.69555
5.70049
5.70297
5.70274
5.7019
5.69691
5.69893
1.39997
1.39997
1.39997
1.39997
1.39997
1.39997
1.39997
1.39997
1.39997
1.39997
1.39997
1.39997
1.39997
1.39997
1.39997
1.39997
1.39997
1.39997
1.39997
1.39997
1.39997
3.69732
5.27518
5.36573
5.43267
5.48792
5.53243
5.56781
5.59717
5.62312
5.64541
5.66223
5.67328
5.68013
5.68385
5.68403
5.68061
5.6778
5.67262
5.67408
1.39997
1.39997
1.39997
1.39997
1.39997
1.39997
1.39997
1.39997
1.39997
1.39997
1.39997
1.39997
1.39997
1.39997
1.39997
1.39997
1.39997
1.39997
1.39997
1.39997
1.39997
3.56284
5.23788
5.34364
5.40828
5.46806
5.51732
5.5577
5.58912
5.61442
5.63423
5.64866
5.65817
5.66397
5.6663
5.66377
5.65683
5.65181
5.64587
5.64664
1.39997
1.39997
1.39997
1.39997
1.39997
1.39997
1.39997
1.39997
1.39997
1.39997
1.39997
1.39997
1.39997
1.39997
1.39997
1.39997
1.39997
1.39997
1.39997
1.39997
1.39997
3.42701
5.20572
5.32456
5.386
5.44637
5.50004
5.54447
5.5785
5.60412
5.6225
5.63487
5.6428
5.64693
5.64711
5.64185
5.63203
5.62454
5.6163
5.61468
1.39997
1.39997
1.39997
1.39997
1.39997
1.39997
1.39997
1.39997
1.39997
1.39997
1.39997
1.39997
1.39997
1.39997
1.39997
1.39997
1.39997
1.39997
1.39997
1.39997
1.39997
3.28875
5.17921
5.30754
5.36665
5.42462
5.47935
5.52689
5.56411
5.59128
5.60975
5.6208
5.627
5.62888
5.62602
5.61836
5.60609
5.59494
5.58255
5.57822
1.39997
1.39997
1.39997
1.39997
1.39997
1.39997
1.39997
1.39997
1.39997
1.39997
1.39997
1.39997
1.39997
1.39997
1.39997
1.39997
1.39997
1.39997
1.39997
1.39997
1.39997
3.14739
5.15553
5.29461
5.35147
5.40487
5.45776
5.50696
5.54707
5.57625
5.59611
5.60661
5.61073
5.60934
5.60293
5.59301
5.57867
5.56305
5.54454
5.53526
1.39997
1.39997
1.39997
1.39997
1.39997
1.39997
1.39997
1.39997
1.39997
1.39997
1.39997
1.39997
1.39997
1.39997
1.39997
1.39997
1.39997
1.39997
1.39997
1.39997
1.39997
3.00243
5.13057
5.28482
5.33682
5.3865
5.43629
5.4847
5.52707
5.55905
5.5805
5.59113
5.59331
5.58815
5.5784
5.56649
5.54924
5.52699
5.50012
5.4865
1.39997
1.39997
1.39997
1.39997
1.39997
1.39997
1.39997
1.39997
1.39997
1.39997
1.39997
1.39997
1.39997
1.39997
1.39997
1.39997
1.39997
1.39997
1.39997
1.39997
1.39997
2.85294
5.101
5.28267
5.32529
5.37047
5.41601
5.46237
5.50653
5.54049
5.56356
5.57491
5.57485
5.56571
5.55299
5.5383
5.51634
5.48667
5.44982
5.42889
1.39997
1.39997
1.39997
1.39997
1.39997
1.39997
1.39997
1.39997
1.39997
1.39997
1.39997
1.39997
1.39997
1.39997
1.39997
1.39997
1.39997
1.39997
1.39997
1.39997
1.39997
2.69952
5.06183
5.28844
5.31732
5.35618
5.39821
5.44048
5.4849
5.52229
5.54509
5.55704
5.55518
5.54258
5.52739
5.50894
5.48037
5.43959
5.38955
5.36258
1.39997
1.39997
1.39997
1.39997
1.39997
1.39997
1.39997
1.39997
1.39997
1.39997
1.39997
1.39997
1.39997
1.39997
1.39997
1.39997
1.39997
1.39997
1.39997
1.39997
1.39997
2.5433
5.01232
5.30176
5.31282
5.3439
5.38282
5.42266
5.46416
5.50235
5.52572
5.53718
5.53445
5.51944
5.50202
5.47754
5.43919
5.38628
5.32097
5.28054
1.39997
1.39997
1.39997
1.39997
1.39997
1.39997
1.39997
1.39997
1.39997
1.39997
1.39997
1.39997
1.39997
1.39997
1.39997
1.39997
1.39997
1.39997
1.39997
1.39997
1.39997
2.38346
4.94804
5.32207
5.31488
5.33427
5.3696
5.40826
5.44544
5.48146
5.50792
5.51429
5.51255
5.49647
5.4765
5.44487
5.39506
5.32515
5.23567
5.17977
1.39997
1.39997
1.39997
1.39997
1.39997
1.39997
1.39997
1.39997
1.39997
1.39997
1.39997
1.39997
1.39997
1.39997
1.39997
1.39997
1.39997
1.39997
1.39997
1.39997
1.39997
2.22085
4.88033
5.35527
5.32558
5.33587
5.36145
5.39487
5.42504
5.45779
5.48196
5.49158
5.489
5.47267
5.4502
5.40995
5.34614
5.25835
5.13988
5.04556
1.39997
1.39997
1.39997
1.39997
1.39997
1.39997
1.39997
1.39997
1.39997
1.39997
1.39997
1.39997
1.39997
1.39997
1.39997
1.39997
1.39997
1.39997
1.39997
1.39997
1.39997
2.04351
4.81496
5.39711
5.34878
5.34964
5.36088
5.38128
5.40795
5.43059
5.45337
5.46777
5.46502
5.44932
5.42335
5.37421
5.29668
5.18595
5.01637
4.85251
1.39997
1.39997
1.39997
1.39997
1.39997
1.39997
1.39997
1.39997
1.39997
1.39997
1.39997
1.39997
1.39997
1.39997
1.39997
1.39997
1.39997
1.39997
1.39997
1.39997
1.39997
1.84909
4.76772
5.43238
5.37072
5.37056
5.37085
5.37515
5.38961
5.40795
5.42516
5.44188
5.44263
5.42554
5.39338
5.33578
5.24525
5.11118
4.90159
4.63062
1.39997
1.39997
1.39997
1.39997
1.39997
1.39997
1.39997
1.39997
1.39997
1.39997
1.39997
1.39997
1.39997
1.39997
1.39997
1.39997
1.39997
1.39997
1.39997
1.39997
2.37323
5.09854
5.45861
5.49157
5.54009
5.58409
5.62695
5.66836
5.70871
5.74689
5.7816
5.81227
5.83957
5.86512
5.89001
5.91376
5.93405
5.94938
5.96164
5.97211
1.39997
1.39997
1.39997
1.39997
1.39997
1.39997
1.39997
1.39997
1.39997
1.39997
1.39997
1.39997
1.39997
1.39997
1.39997
1.39997
1.39997
1.39997
1.39997
1.39997
2.37004
5.08997
5.45626
5.49081
5.53981
5.58392
5.62678
5.66833
5.70873
5.74677
5.78121
5.81164
5.83898
5.86483
5.88988
5.91345
5.93342
5.94855
5.96071
5.97114
1.39997
1.39997
1.39997
1.39997
1.39997
1.39997
1.39997
1.39997
1.39997
1.39997
1.39997
1.39997
1.39997
1.39997
1.39997
1.39997
1.39997
1.39997
1.39997
1.39997
2.36335
5.07533
5.44904
5.48647
5.53681
5.58152
5.62494
5.66699
5.70766
5.74583
5.78018
5.81046
5.8378
5.86392
5.88928
5.91285
5.93255
5.9474
5.95931
5.96956
1.39997
1.39997
1.39997
1.39997
1.39997
1.39997
1.39997
1.39997
1.39997
1.39997
1.39997
1.39997
1.39997
1.39997
1.39997
1.39997
1.39997
1.39997
1.39997
1.39997
2.35127
5.05785
5.44119
5.48118
5.53295
5.57877
5.62314
5.66575
5.70662
5.74478
5.77902
5.80916
5.83641
5.86254
5.88795
5.91144
5.93095
5.94562
5.95717
5.96732
1.39997
1.39997
1.39997
1.39997
1.39997
1.39997
1.39997
1.39997
1.39997
1.39997
1.39997
1.39997
1.39997
1.39997
1.39997
1.39997
1.39997
1.39997
1.39997
1.39997
2.33437
5.0437
5.43699
5.47695
5.52895
5.57546
5.62061
5.66367
5.70471
5.743
5.77738
5.8076
5.83477
5.86068
5.88595
5.90947
5.92909
5.94363
5.95438
5.96396
1.39997
1.39997
1.39997
1.39997
1.39997
1.39997
1.39997
1.39997
1.39997
1.39997
1.39997
1.39997
1.39997
1.39997
1.39997
1.39997
1.39997
1.39997
1.39997
1.39997
2.31248
5.03554
5.43659
5.4747
5.52645
5.57322
5.61852
5.66164
5.70279
5.74112
5.7756
5.80593
5.833
5.85843
5.88315
5.90643
5.92622
5.94093
5.95108
5.96026
1.39997
1.39997
1.39997
1.39997
1.39997
1.39997
1.39997
1.39997
1.39997
1.39997
1.39997
1.39997
1.39997
1.39997
1.39997
1.39997
1.39997
1.39997
1.39997
1.39997
2.28646
5.03502
5.43942
5.47412
5.52491
5.5715
5.6166
5.65966
5.70077
5.7391
5.77362
5.80405
5.8311
5.85625
5.88051
5.90346
5.92307
5.93751
5.94686
5.9557
1.39997
1.39997
1.39997
1.39997
1.39997
1.39997
1.39997
1.39997
1.39997
1.39997
1.39997
1.39997
1.39997
1.39997
1.39997
1.39997
1.39997
1.39997
1.39997
1.39997
2.25813
5.03358
5.44456
5.47516
5.52435
5.57034
5.61497
5.65778
5.69887
5.73711
5.7714
5.80161
5.8285
5.85342
5.87733
5.89983
5.91902
5.93324
5.94217
5.95088
1.39997
1.39997
1.39997
1.39997
1.39997
1.39997
1.39997
1.39997
1.39997
1.39997
1.39997
1.39997
1.39997
1.39997
1.39997
1.39997
1.39997
1.39997
1.39997
1.39997
2.22127
5.00992
5.44399
5.47557
5.52427
5.56984
5.61431
5.65668
5.69748
5.7354
5.76929
5.79917
5.8259
5.85065
5.87407
5.89561
5.91374
5.92759
5.93651
5.94552
1.39997
1.39997
1.39997
1.39997
1.39997
1.39997
1.39997
1.39997
1.39997
1.39997
1.39997
1.39997
1.39997
1.39997
1.39997
1.39997
1.39997
1.39997
1.39997
1.39997
2.18237
4.97728
5.4428
5.47653
5.52576
5.57092
5.61502
5.65691
5.69685
5.73381
5.76679
5.79607
5.8226
5.8473
5.87045
5.89117
5.90817
5.92153
5.93037
5.93954
1.39997
1.39997
1.39997
1.39997
1.39997
1.39997
1.39997
1.39997
1.39997
1.39997
1.39997
1.39997
1.39997
1.39997
1.39997
1.39997
1.39997
1.39997
1.39997
1.39997
2.13974
4.937
5.4403
5.47744
5.5281
5.57299
5.61641
5.65716
5.69561
5.73145
5.76381
5.79268
5.81887
5.8431
5.86555
5.88534
5.90146
5.91462
5.92357
5.93285
1.39997
1.39997
1.39997
1.39997
1.39997
1.39997
1.39997
1.39997
1.39997
1.39997
1.39997
1.39997
1.39997
1.39997
1.39997
1.39997
1.39997
1.39997
1.39997
1.39997
2.09426
4.89793
5.43881
5.47801
5.53027
5.57472
5.61727
5.65747
5.69479
5.72898
5.76028
5.7888
5.81482
5.83867
5.86045
5.87932
5.89458
5.90743
5.91611
5.92521
1.39997
1.39997
1.39997
1.39997
1.39997
1.39997