/*--------------------------------*- C++ -*----------------------------------*\
  =========                 |
  \\      /  F ield         | OpenFOAM: The Open Source CFD Toolbox
   \\    /   O peration     | Website:  https://openfoam.org
    \\  /    A nd           | Version:  6.0
     \\/     M anipulation  |
\*---------------------------------------------------------------------------*/
FoamFile
{
    version     2.0;
    format      ascii;
    class       volVectorField;
    location    "3.50000212";
    object      U;
}
// * * * * * * * * * * * * * * * * * * * * * * * * * * * * * * * * * * * * * //

dimensions      [0 1 -1 0 0 0 0];

internalField   nonuniform List<vector> 
192000
(
(3 -2.66325e-16 0)
(3 -3.98449e-16 0)
(3 -1.90796e-16 0)
(3 -1.25383e-15 0)
(3 -7.13081e-16 0)
(3 6.02669e-15 0)
(3 -1.84989e-15 0)
(3 -6.6988e-15 0)
(3 -3.45105e-15 0)
(3 -1.95695e-16 0)
(3 -1.89041e-15 0)
(3 3.34803e-15 0)
(3 5.93083e-16 0)
(3 2.51675e-15 0)
(3 3.32317e-15 0)
(3 2.09802e-15 0)
(3 2.13746e-15 0)
(3 2.15218e-16 0)
(3 2.23492e-15 0)
(3 4.43222e-15 0)
(2.18419 0.00216815 0)
(0.842987 0.00360725 0)
(0.727981 0.00591746 0)
(0.691854 0.0059424 0)
(0.653391 0.00607043 0)
(0.616724 0.0062215 0)
(0.57973 0.00637069 0)
(0.542081 0.00645931 0)
(0.50383 0.0064726 0)
(0.465393 0.00642952 0)
(0.426781 0.006431 0)
(0.387552 0.00650096 0)
(0.347312 0.00660601 0)
(0.306168 0.00668052 0)
(0.264832 0.00666158 0)
(0.223929 0.0066358 0)
(0.182369 0.00697461 0)
(0.137054 0.00785437 0)
(0.0863761 0.00870688 0)
(0.0320226 0.00995881 0)
(3 -3.29383e-17 0)
(3 -1.24946e-16 0)
(3 4.42103e-17 0)
(3 -3.21266e-16 0)
(3 -9.17967e-17 0)
(3 3.6194e-15 0)
(3 2.45619e-15 0)
(3 1.58268e-15 0)
(3 2.74329e-15 0)
(3 2.22639e-16 0)
(3 1.18288e-15 0)
(3 5.29427e-16 0)
(3 2.3886e-15 0)
(3 9.10873e-16 0)
(3 2.29998e-15 0)
(3 1.69697e-15 0)
(3 -3.92086e-16 0)
(3 2.71607e-16 0)
(3 4.02466e-16 0)
(3 4.49663e-16 0)
(2.18119 0.00709084 0)
(0.838598 0.0122825 0)
(0.721979 0.0164946 0)
(0.685266 0.0156273 0)
(0.646483 0.0155899 0)
(0.609632 0.0158217 0)
(0.572689 0.0163828 0)
(0.535343 0.0169721 0)
(0.497541 0.0173227 0)
(0.459665 0.0176101 0)
(0.421662 0.0180585 0)
(0.383104 0.0186852 0)
(0.34364 0.0192929 0)
(0.303363 0.0196665 0)
(0.262852 0.0197411 0)
(0.222587 0.0198179 0)
(0.181496 0.0209741 0)
(0.1366 0.0237049 0)
(0.0861828 0.0263261 0)
(0.0320253 0.030118 0)
(3 -8.84197e-16 0)
(3 -4.00215e-15 0)
(3 -1.12585e-15 0)
(3 1.70816e-15 0)
(3 2.48907e-15 0)
(3 -5.95713e-15 0)
(3 3.61645e-16 0)
(3 1.91898e-15 0)
(3 -3.03174e-15 0)
(3 -7.34298e-16 0)
(3 3.70025e-15 0)
(3 2.5635e-16 0)
(3 2.35667e-15 0)
(3 -1.04861e-15 0)
(3 -3.27846e-16 0)
(3 -8.90474e-16 0)
(3 1.55669e-15 0)
(3 2.79349e-15 0)
(3 -3.20361e-16 0)
(3 -3.87379e-15 0)
(2.1779 0.0144374 0)
(0.83239 0.0210876 0)
(0.714091 0.027483 0)
(0.677254 0.0262387 0)
(0.638615 0.0262336 0)
(0.601939 0.0266956 0)
(0.565164 0.0275874 0)
(0.528056 0.0284604 0)
(0.490681 0.0289573 0)
(0.45329 0.0292466 0)
(0.41578 0.0298413 0)
(0.377737 0.0308437 0)
(0.338906 0.0319117 0)
(0.299431 0.0325626 0)
(0.259799 0.0326223 0)
(0.220284 0.0327262 0)
(0.179733 0.0347097 0)
(0.135332 0.0393477 0)
(0.0852941 0.0437207 0)
(0.03172 0.0499638 0)
(3 1.51105e-15 0)
(3 -3.32883e-15 0)
(3 -1.28578e-15 0)
(3 1.21328e-15 0)
(3 1.33854e-16 0)
(3 3.38696e-15 0)
(3 4.26638e-16 0)
(3 -3.15757e-15 0)
(3 -8.78468e-15 0)
(3 6.94621e-16 0)
(3 2.57675e-15 0)
(3 3.20562e-15 0)
(3 -8.61468e-17 0)
(3 -1.70158e-16 0)
(3 -1.50351e-15 0)
(3 5.43418e-16 0)
(3 3.30981e-15 0)
(3 1.67874e-15 0)
(3 5.53253e-16 0)
(3 -2.57677e-15 0)
(2.17974 0.0260722 0)
(0.827819 0.0323397 0)
(0.706447 0.0384737 0)
(0.668854 0.0361533 0)
(0.629961 0.0358731 0)
(0.593245 0.0364764 0)
(0.556605 0.0377982 0)
(0.519823 0.0391541 0)
(0.482902 0.039858 0)
(0.446114 0.0402826 0)
(0.409268 0.0411646 0)
(0.37191 0.0426627 0)
(0.333807 0.0442629 0)
(0.295136 0.0452096 0)
(0.256343 0.0452602 0)
(0.217598 0.0454083 0)
(0.177773 0.0482454 0)
(0.134237 0.054837 0)
(0.0847911 0.0609839 0)
(0.031797 0.0696384 0)
(3 1.55306e-15 0)
(3 1.70653e-15 0)
(3 -3.77545e-16 0)
(3 4.02554e-16 0)
(3 2.46206e-17 0)
(3 5.22973e-15 0)
(3 3.40851e-15 0)
(3 -3.72987e-15 0)
(3 -1.8662e-15 0)
(3 -7.32936e-16 0)
(3 -5.47548e-15 0)
(3 -8.17657e-16 0)
(3 -4.00059e-15 0)
(3 -1.57961e-15 0)
(3 1.79758e-15 0)
(3 -2.78166e-15 0)
(3 -4.28039e-15 0)
(3 7.14126e-16 0)
(3 2.71259e-15 0)
(3 1.89706e-15 0)
(2.19134 0.0407651 0)
(0.827199 0.0449961 0)
(0.702379 0.0503813 0)
(0.66414 0.0471905 0)
(0.624565 0.0465412 0)
(0.58734 0.047088 0)
(0.550401 0.0485826 0)
(0.51351 0.0501039 0)
(0.476717 0.0509085 0)
(0.440236 0.0513454 0)
(0.403835 0.0524097 0)
(0.367068 0.0543225 0)
(0.329728 0.0564159 0)
(0.291953 0.0576807 0)
(0.254023 0.0577911 0)
(0.215844 0.05803 0)
(0.176243 0.0616719 0)
(0.132983 0.0701406 0)
(0.0837349 0.0780222 0)
(0.0315095 0.0891237 0)
(3 -4.44739e-17 0)
(3 4.17306e-16 0)
(3 1.45408e-16 0)
(3 -4.87322e-16 0)
(3 2.91152e-15 0)
(3 -6.62829e-16 0)
(3 2.02613e-15 0)
(3 1.46183e-16 0)
(3 5.39147e-15 0)
(3 7.32784e-16 0)
(3 -1.53315e-15 0)
(3 -2.79179e-15 0)
(3 5.74261e-16 0)
(3 2.68911e-15 0)
(3 1.95016e-15 0)
(3 2.29866e-15 0)
(3 4.17355e-16 0)
(3 3.87353e-15 0)
(3 2.9894e-15 0)
(3 1.98636e-15 0)
(2.21647 0.0559409 0)
(0.832872 0.0587802 0)
(0.704769 0.063065 0)
(0.665558 0.0587847 0)
(0.624943 0.0580902 0)
(0.586866 0.0585822 0)
(0.5492 0.0601199 0)
(0.511733 0.0616861 0)
(0.474575 0.0624449 0)
(0.437944 0.0628205 0)
(0.40159 0.0639637 0)
(0.365125 0.066109 0)
(0.328397 0.0684805 0)
(0.291469 0.0699463 0)
(0.254355 0.0701776 0)
(0.216596 0.0706725 0)
(0.176932 0.0752165 0)
(0.133495 0.0855418 0)
(0.0837351 0.0950757 0)
(0.0315539 0.108441 0)
(3 -1.92457e-15 0)
(3 4.11244e-16 0)
(3 7.37076e-16 0)
(3 2.07113e-15 0)
(3 -6.4415e-16 0)
(3 1.44583e-15 0)
(3 2.55969e-15 0)
(3 4.12388e-15 0)
(3 4.07008e-15 0)
(3 2.95826e-16 0)
(3 2.71528e-16 0)
(3 -1.669e-15 0)
(3 -3.28256e-15 0)
(3 -1.40909e-15 0)
(3 -1.99529e-15 0)
(3 1.8829e-15 0)
(3 3.20957e-15 0)
(3 1.94373e-16 0)
(3 -4.41009e-17 0)
(3 -2.33366e-17 0)
(2.25329 0.0661287 0)
(0.844494 0.0708967 0)
(0.713459 0.0745184 0)
(0.672734 0.0700126 0)
(0.630869 0.0691007 0)
(0.591798 0.0696749 0)
(0.553302 0.0714838 0)
(0.515103 0.0732403 0)
(0.477284 0.0740245 0)
(0.440102 0.0743921 0)
(0.403407 0.0756103 0)
(0.3669 0.0778661 0)
(0.330421 0.080319 0)
(0.293835 0.0818839 0)
(0.256773 0.0823809 0)
(0.218433 0.083423 0)
(0.177683 0.0889844 0)
(0.133416 0.101122 0)
(0.0830681 0.11222 0)
(0.031347 0.127708 0)
(3 -2.1766e-15 0)
(3 3.60796e-15 0)
(3 1.23909e-15 0)
(3 3.63193e-15 0)
(3 -2.58791e-15 0)
(3 2.78093e-15 0)
(3 -1.91879e-16 0)
(3 3.02432e-15 0)
(3 5.21094e-16 0)
(3 -7.78544e-16 0)
(3 1.20044e-15 0)
(3 -6.69919e-16 0)
(3 3.72888e-16 0)
(3 -4.03906e-16 0)
(3 5.68714e-16 0)
(3 2.07866e-15 0)
(3 2.11277e-15 0)
(3 8.03319e-16 0)
(3 1.72407e-15 0)
(3 -4.88014e-16 0)
(2.29112 0.0710841 0)
(0.85585 0.0798431 0)
(0.722233 0.0866261 0)
(0.681191 0.0811468 0)
(0.638401 0.0800385 0)
(0.598675 0.0804111 0)
(0.559876 0.0822695 0)
(0.52137 0.0842894 0)
(0.483123 0.0852804 0)
(0.445508 0.0857547 0)
(0.408459 0.0870622 0)
(0.37171 0.0893595 0)
(0.335067 0.0918091 0)
(0.298259 0.0935108 0)
(0.260731 0.0945021 0)
(0.221558 0.0963888 0)
(0.179644 0.103122 0)
(0.134297 0.117039 0)
(0.0829002 0.129552 0)
(0.0311746 0.146852 0)
(3 1.8403e-15 0)
(3 -7.87447e-16 0)
(3 3.04859e-16 0)
(3 -3.04067e-16 0)
(3 8.63572e-16 0)
(3 1.48113e-15 0)
(3 1.01661e-15 0)
(3 -6.46969e-16 0)
(3 1.4182e-15 0)
(3 2.40522e-15 0)
(3 3.28064e-15 0)
(3 3.60758e-15 0)
(3 5.22498e-15 0)
(3 1.68409e-15 0)
(3 5.66534e-15 0)
(3 5.64763e-15 0)
(3 6.27254e-15 0)
(3 4.76266e-15 0)
(3 3.01759e-15 0)
(3 1.60366e-15 0)
(2.32385 0.0755054 0)
(0.859016 0.0919355 0)
(0.723165 0.0992384 0)
(0.683618 0.0936258 0)
(0.640957 0.0923037 0)
(0.600893 0.0923159 0)
(0.562707 0.0940813 0)
(0.525834 0.0960628 0)
(0.489191 0.0969298 0)
(0.452387 0.0972819 0)
(0.415256 0.0986313 0)
(0.377815 0.101086 0)
(0.340111 0.103759 0)
(0.302012 0.105785 0)
(0.263115 0.107268 0)
(0.222633 0.109863 0)
(0.179661 0.117589 0)
(0.133959 0.133221 0)
(0.0823188 0.147094 0)
(0.0310354 0.165947 0)
(3 6.97204e-16 0)
(3 1.79881e-16 0)
(3 1.45803e-15 0)
(3 1.47735e-16 0)
(3 1.73618e-15 0)
(3 7.13179e-17 0)
(3 3.14302e-15 0)
(3 1.93201e-15 0)
(3 -2.61914e-15 0)
(3 -1.28871e-15 0)
(3 1.17508e-15 0)
(3 1.58758e-15 0)
(3 2.56906e-15 0)
(3 1.91747e-15 0)
(3 1.20893e-15 0)
(3 2.71877e-16 0)
(3 -1.41232e-15 0)
(3 -2.69038e-15 0)
(3 -1.04332e-15 0)
(3 -2.48384e-16 0)
(2.35417 0.0801511 0)
(0.861481 0.103073 0)
(0.719572 0.111023 0)
(0.681605 0.104945 0)
(0.641577 0.103477 0)
(0.604197 0.102986 0)
(0.568175 0.104322 0)
(0.532904 0.10646 0)
(0.497334 0.107642 0)
(0.460855 0.10834 0)
(0.423228 0.110049 0)
(0.384769 0.112839 0)
(0.345977 0.115819 0)
(0.30685 0.118196 0)
(0.266796 0.120207 0)
(0.224864 0.123587 0)
(0.180329 0.132286 0)
(0.133732 0.149551 0)
(0.0816194 0.164717 0)
(0.0307598 0.184904 0)
(3 -9.4025e-16 0)
(3 4.59045e-16 0)
(3 -1.16586e-15 0)
(3 -1.18536e-15 0)
(3 3.34359e-16 0)
(3 2.37069e-15 0)
(3 -2.73443e-15 0)
(3 8.21594e-16 0)
(3 1.04157e-15 0)
(3 1.71475e-15 0)
(3 -8.2354e-16 0)
(3 7.70642e-16 0)
(3 -2.19031e-16 0)
(3 4.81817e-15 0)
(3 -5.58278e-16 0)
(3 -1.25159e-15 0)
(3 -1.22079e-15 0)
(3 -3.62819e-15 0)
(3 -1.85198e-15 0)
(3 3.86992e-16 0)
(2.38534 0.0880228 0)
(0.862492 0.115305 0)
(0.714278 0.121465 0)
(0.678628 0.115351 0)
(0.641257 0.113919 0)
(0.606569 0.113389 0)
(0.572993 0.114716 0)
(0.539742 0.116916 0)
(0.505114 0.118454 0)
(0.46843 0.119736 0)
(0.429655 0.122175 0)
(0.389442 0.125562 0)
(0.349039 0.128858 0)
(0.30887 0.131463 0)
(0.268066 0.133828 0)
(0.225371 0.137818 0)
(0.180093 0.147327 0)
(0.133284 0.166115 0)
(0.0810113 0.182442 0)
(0.0305421 0.203688 0)
(3 -4.26926e-16 0)
(3 -1.58142e-16 0)
(3 -1.03615e-15 0)
(3 -4.94923e-16 0)
(3 3.10704e-16 0)
(3 -1.4974e-16 0)
(3 1.6617e-15 0)
(3 -1.41844e-16 0)
(3 2.58851e-15 0)
(3 1.78834e-15 0)
(3 2.12184e-15 0)
(3 2.78133e-15 0)
(3 2.99847e-15 0)
(3 1.21293e-15 0)
(3 1.43784e-15 0)
(3 1.86754e-15 0)
(3 4.20746e-16 0)
(3 7.71326e-16 0)
(3 -1.20859e-15 0)
(3 -3.13046e-15 0)
(2.427 0.099461 0)
(0.869505 0.130227 0)
(0.714378 0.1326 0)
(0.680605 0.125687 0)
(0.64483 0.123898 0)
(0.611956 0.122833 0)
(0.579649 0.123822 0)
(0.546781 0.126451 0)
(0.511554 0.129255 0)
(0.473471 0.131783 0)
(0.433569 0.134907 0)
(0.393205 0.138429 0)
(0.35302 0.141667 0)
(0.312622 0.144486 0)
(0.270869 0.147478 0)
(0.226723 0.152356 0)
(0.180031 0.162676 0)
(0.132706 0.182832 0)
(0.0803168 0.20018 0)
(0.0303085 0.222295 0)
(3 9.41937e-16 0)
(3 1.09082e-15 0)
(3 7.78838e-16 0)
(3 -6.02042e-16 0)
(3 -1.0991e-15 0)
(3 2.69024e-15 0)
(3 3.90094e-15 0)
(3 3.68703e-15 0)
(3 2.06093e-15 0)
(3 5.83106e-16 0)
(3 2.09497e-16 0)
(3 1.23102e-15 0)
(3 1.33493e-16 0)
(3 3.9048e-15 0)
(3 2.1746e-15 0)
(3 5.61317e-15 0)
(3 7.48512e-16 0)
(3 3.22798e-15 0)
(3 -1.30271e-15 0)
(3 -4.01001e-15 0)
(2.48312 0.109892 0)
(0.884546 0.144368 0)
(0.721502 0.142681 0)
(0.688396 0.134879 0)
(0.652683 0.132687 0)
(0.619073 0.131831 0)
(0.584725 0.133837 0)
(0.549562 0.13754 0)
(0.513352 0.140973 0)
(0.475801 0.143955 0)
(0.436909 0.147412 0)
(0.397061 0.151117 0)
(0.356661 0.154586 0)
(0.315449 0.157916 0)
(0.272564 0.161692 0)
(0.227229 0.167501 0)
(0.179447 0.178478 0)
(0.131736 0.199725 0)
(0.0793265 0.217846 0)
(0.0299302 0.240644 0)
(3 -6.82831e-16 0)
(3 1.23054e-15 0)
(3 -1.37718e-15 0)
(3 -1.4917e-15 0)
(3 -1.66383e-15 0)
(3 -2.49887e-15 0)
(3 1.42328e-15 0)
(3 4.17119e-15 0)
(3 -3.97879e-16 0)
(3 -2.50085e-16 0)
(3 -9.58381e-16 0)
(3 -8.71288e-16 0)
(3 -1.00834e-15 0)
(3 1.19478e-15 0)
(3 8.05284e-16 0)
(3 6.42156e-16 0)
(3 5.91703e-16 0)
(3 8.99014e-16 0)
(3 4.05348e-16 0)
(3 -8.2392e-16 0)
(2.54299 0.115484 0)
(0.902794 0.157035 0)
(0.732255 0.151557 0)
(0.699355 0.143429 0)
(0.661846 0.142113 0)
(0.62558 0.142192 0)
(0.589318 0.144318 0)
(0.553187 0.14819 0)
(0.516074 0.152206 0)
(0.477599 0.155979 0)
(0.438067 0.160102 0)
(0.398012 0.164148 0)
(0.35773 0.167785 0)
(0.316603 0.171544 0)
(0.273459 0.176161 0)
(0.227533 0.18305 0)
(0.178965 0.194648 0)
(0.13094 0.216767 0)
(0.0784997 0.235427 0)
(0.0296236 0.258736 0)
(3 5.95893e-17 0)
(3 -1.95035e-15 0)
(3 -8.82661e-16 0)
(3 1.05478e-15 0)
(3 2.55664e-16 0)
(3 -2.95767e-15 0)
(3 -2.77967e-15 0)
(3 4.10664e-15 0)
(3 2.9858e-15 0)
(3 7.75725e-16 0)
(3 2.19299e-16 0)
(3 2.51683e-16 0)
(3 3.31822e-16 0)
(3 8.22432e-15 0)
(3 3.24502e-15 0)
(3 2.46431e-15 0)
(3 1.03003e-15 0)
(3 6.15076e-16 0)
(3 2.15679e-15 0)
(3 8.12737e-16 0)
(2.60691 0.114758 0)
(0.922679 0.166178 0)
(0.742092 0.160231 0)
(0.708542 0.152884 0)
(0.669433 0.152548 0)
(0.631398 0.153152 0)
(0.592682 0.155683 0)
(0.553951 0.159848 0)
(0.514955 0.164217 0)
(0.475625 0.168419 0)
(0.436082 0.17289 0)
(0.396464 0.177087 0)
(0.356704 0.180884 0)
(0.315959 0.185201 0)
(0.272973 0.190811 0)
(0.22698 0.198903 0)
(0.178023 0.211065 0)
(0.129844 0.23387 0)
(0.0774419 0.252904 0)
(0.0291724 0.2766 0)
(3 1.36716e-18 0)
(3 -7.001e-16 0)
(3 2.96503e-15 0)
(3 8.47365e-16 0)
(3 1.80017e-17 0)
(3 1.79129e-15 0)
(3 -1.02128e-15 0)
(3 -1.94146e-15 0)
(3 2.95244e-15 0)
(3 1.70858e-15 0)
(3 2.84763e-15 0)
(3 7.30798e-16 0)
(3 2.47455e-15 0)
(3 8.00112e-17 0)
(3 3.22501e-15 0)
(3 4.83149e-15 0)
(3 2.28315e-15 0)
(3 2.55479e-15 0)
(3 3.91031e-15 0)
(3 6.77144e-16 0)
(2.66487 0.110467 0)
(0.939182 0.17592 0)
(0.746613 0.170482 0)
(0.710213 0.164394 0)
(0.668849 0.164373 0)
(0.629766 0.165086 0)
(0.590103 0.167467 0)
(0.550524 0.171581 0)
(0.510858 0.176156 0)
(0.471192 0.180631 0)
(0.431739 0.185337 0)
(0.392516 0.189681 0)
(0.353278 0.193714 0)
(0.313105 0.198706 0)
(0.270752 0.205425 0)
(0.225439 0.214829 0)
(0.176863 0.227548 0)
(0.12909 0.250972 0)
(0.0768875 0.270342 0)
(0.028962 0.29432 0)
(3 -1.0198e-16 0)
(3 -6.04806e-16 0)
(3 2.87318e-16 0)
(3 6.70291e-16 0)
(3 8.99579e-16 0)
(3 1.98425e-15 0)
(3 -1.00422e-15 0)
(3 -2.24654e-15 0)
(3 -4.56674e-16 0)
(3 2.322e-15 0)
(3 2.41792e-15 0)
(3 -3.61636e-15 0)
(3 -8.13067e-16 0)
(3 -2.05822e-15 0)
(3 2.5597e-15 0)
(3 -1.76293e-15 0)
(3 3.90001e-16 0)
(3 -2.5564e-15 0)
(3 4.3375e-16 0)
(3 -1.90777e-15 0)
(2.71126 0.10545 0)
(0.949589 0.188003 0)
(0.745407 0.180878 0)
(0.710981 0.175697 0)
(0.668643 0.175974 0)
(0.627595 0.176744 0)
(0.586686 0.179201 0)
(0.546618 0.183535 0)
(0.506689 0.188393 0)
(0.466823 0.192991 0)
(0.427337 0.197721 0)
(0.388273 0.202092 0)
(0.349292 0.20635 0)
(0.309418 0.212041 0)
(0.267448 0.219861 0)
(0.222706 0.230566 0)
(0.174631 0.243774 0)
(0.127702 0.267849 0)
(0.0761205 0.287718 0)
(0.0287468 0.312019 0)
(3 -3.03115e-16 0)
(3 3.35936e-16 0)
(3 4.9413e-16 0)
(3 1.44926e-15 0)
(3 9.28391e-16 0)
(3 1.43653e-15 0)
(3 -5.99878e-17 0)
(3 2.32464e-15 0)
(3 -1.16058e-15 0)
(3 9.0843e-16 0)
(3 2.46846e-16 0)
(3 1.5815e-15 0)
(3 -2.79012e-15 0)
(3 2.46378e-15 0)
(3 2.01196e-15 0)
(3 1.82045e-15 0)
(3 -1.15222e-16 0)
(3 -3.16663e-15 0)
(3 -1.78652e-15 0)
(3 -1.03493e-15 0)
(2.74628 0.103341 0)
(0.95438 0.19932 0)
(0.737675 0.187868 0)
(0.705548 0.185475 0)
(0.664821 0.187084 0)
(0.625328 0.188612 0)
(0.585366 0.191454 0)
(0.545702 0.196107 0)
(0.505741 0.201217 0)
(0.46558 0.205857 0)
(0.42577 0.210507 0)
(0.386436 0.214818 0)
(0.347205 0.219234 0)
(0.307118 0.225568 0)
(0.265044 0.234413 0)
(0.220455 0.246316 0)
(0.172593 0.259838 0)
(0.126449 0.284516 0)
(0.0755196 0.30502 0)
(0.0286234 0.329699 0)
(3 -4.96819e-16 0)
(3 -4.96477e-16 0)
(3 4.6244e-16 0)
(3 2.07586e-15 0)
(3 1.55451e-15 0)
(3 -1.48085e-16 0)
(3 -3.04471e-15 0)
(3 3.21927e-15 0)
(3 2.16597e-16 0)
(3 1.46097e-15 0)
(3 2.63424e-15 0)
(3 2.91514e-15 0)
(3 2.08036e-15 0)
(3 4.60349e-15 0)
(3 1.07334e-15 0)
(3 1.32582e-15 0)
(3 7.51501e-16 0)
(3 -1.89132e-16 0)
(3 -1.59715e-15 0)
(3 -1.62591e-15 0)
(2.78359 0.110957 0)
(0.964019 0.217709 0)
(0.734811 0.197034 0)
(0.705237 0.196481 0)
(0.665414 0.198817 0)
(0.626978 0.200612 0)
(0.587692 0.203682 0)
(0.54838 0.208642 0)
(0.508465 0.214054 0)
(0.468093 0.218812 0)
(0.427916 0.223475 0)
(0.388038 0.227831 0)
(0.348048 0.232476 0)
(0.307062 0.239449 0)
(0.264073 0.249222 0)
(0.218829 0.262176 0)
(0.17061 0.275802 0)
(0.125063 0.301021 0)
(0.0748217 0.322252 0)
(0.0284818 0.347369 0)
(3 -6.50364e-17 0)
(3 -1.23517e-15 0)
(3 5.62693e-16 0)
(3 5.29026e-16 0)
(3 1.81461e-15 0)
(3 -2.3754e-16 0)
(3 3.95134e-15 0)
(3 4.47919e-15 0)
(3 -2.33141e-15 0)
(3 2.27078e-15 0)
(3 -2.60144e-16 0)
(3 6.54197e-16 0)
(3 3.52501e-15 0)
(3 -1.68997e-15 0)
(3 -2.44144e-16 0)
(3 -4.73022e-16 0)
(3 6.59869e-18 0)
(3 -8.72484e-16 0)
(3 -1.78697e-15 0)
(3 -1.14325e-15 0)
(2.84989 0.116083 0)
(0.993325 0.237063 0)
(0.74586 0.205516 0)
(0.71583 0.206921 0)
(0.674058 0.210223 0)
(0.634009 0.212641 0)
(0.593521 0.215945 0)
(0.553658 0.221131 0)
(0.513735 0.226794 0)
(0.473543 0.23167 0)
(0.433399 0.236413 0)
(0.393138 0.24095 0)
(0.35228 0.245963 0)
(0.310089 0.253677 0)
(0.265704 0.264419 0)
(0.219146 0.278417 0)
(0.169854 0.292003 0)
(0.124252 0.317583 0)
(0.0743059 0.339443 0)
(0.0283321 0.364982 0)
(3 -3.84417e-17 0)
(3 -7.90144e-16 0)
(3 1.21644e-15 0)
(3 -1.39016e-16 0)
(3 -3.58994e-15 0)
(3 -2.21361e-16 0)
(3 3.26784e-15 0)
(3 -3.33966e-15 0)
(3 2.05903e-15 0)
(3 -1.47238e-15 0)
(3 9.09289e-16 0)
(3 2.3116e-15 0)
(3 5.155e-15 0)
(3 1.88759e-15 0)
(3 2.66469e-15 0)
(3 1.9834e-15 0)
(3 6.44359e-16 0)
(3 -5.85609e-17 0)
(3 1.46325e-15 0)
(3 -1.36613e-15 0)
(2.95092 0.0893321 0)
(1.04422 0.250592 0)
(0.776774 0.208977 0)
(0.740223 0.216311 0)
(0.691513 0.222301 0)
(0.646803 0.225353 0)
(0.603155 0.22869 0)
(0.561595 0.233713 0)
(0.521232 0.239375 0)
(0.481241 0.244353 0)
(0.441293 0.249362 0)
(0.400686 0.254383 0)
(0.358728 0.260026 0)
(0.314868 0.26858 0)
(0.268538 0.280209 0)
(0.220233 0.295152 0)
(0.169627 0.308576 0)
(0.123775 0.334341 0)
(0.0739383 0.356656 0)
(0.0281905 0.382549 0)
(3 4.51334e-16 0)
(3 2.9083e-15 0)
(3 1.64716e-15 0)
(3 1.00672e-15 0)
(3 -1.86018e-15 0)
(3 1.86032e-15 0)
(3 -1.0493e-15 0)
(3 -7.15804e-16 0)
(3 3.20341e-15 0)
(3 1.17201e-15 0)
(3 3.01619e-15 0)
(3 3.63291e-15 0)
(3 6.66501e-16 0)
(3 2.71456e-15 0)
(3 1.39416e-15 0)
(3 1.18408e-15 0)
(3 -6.42084e-16 0)
(3 2.3222e-16 0)
(3 8.95291e-16 0)
(3 -1.81222e-15 0)
(3.00578 0.0429861 0)
(1.0917 0.251029 0)
(0.806879 0.218334 0)
(0.768695 0.230884 0)
(0.715327 0.236582 0)
(0.665546 0.239352 0)
(0.617325 0.242285 0)
(0.572591 0.24672 0)
(0.530732 0.252067 0)
(0.490581 0.256975 0)
(0.451015 0.262241 0)
(0.410421 0.267931 0)
(0.367575 0.274459 0)
(0.322028 0.284011 0)
(0.273544 0.296549 0)
(0.223155 0.312457 0)
(0.170796 0.32569 0)
(0.124084 0.351405 0)
(0.0739379 0.373948 0)
(0.0280878 0.400117 0)
(3 9.56864e-16 0)
(3 3.00969e-15 0)
(3 5.88328e-16 0)
(3 8.05984e-16 0)
(3 7.68201e-16 0)
(3 -3.17845e-15 0)
(3 -1.94833e-15 0)
(3 7.491e-16 0)
(3 3.04989e-16 0)
(3 1.47076e-15 0)
(3 2.07319e-15 0)
(3 -1.07153e-15 0)
(3 -4.3328e-15 0)
(3 -2.54898e-15 0)
(3 -9.55639e-16 0)
(3 -5.52681e-16 0)
(3 -1.81137e-15 0)
(3 -3.36186e-15 0)
(3 -2.27832e-15 0)
(3 -3.40298e-15 0)
(2.99634 0.0191969 0)
(1.11371 0.241434 0)
(0.812095 0.228733 0)
(0.787303 0.243307 0)
(0.738782 0.251628 0)
(0.688018 0.254985 0)
(0.635977 0.257129 0)
(0.587189 0.260587 0)
(0.542626 0.265118 0)
(0.501434 0.269563 0)
(0.461831 0.275023 0)
(0.421127 0.281735 0)
(0.377258 0.289649 0)
(0.329798 0.300459 0)
(0.279067 0.313813 0)
(0.226812 0.330499 0)
(0.172995 0.343408 0)
(0.125159 0.368823 0)
(0.0745322 0.391416 0)
(0.0283399 0.417877 0)
(3 1.12534e-15 0)
(3 3.08739e-15 0)
(3 -3.49908e-15 0)
(3 -9.3402e-16 0)
(3 -3.59804e-15 0)
(3 2.75293e-15 0)
(3 -1.20441e-15 0)
(3 -3.07363e-16 0)
(3 -2.52944e-15 0)
(3 1.55271e-15 0)
(3 1.05254e-15 0)
(3 1.76655e-15 0)
(3 -2.98292e-15 0)
(3 -2.54383e-15 0)
(3 1.2411e-15 0)
(3 -1.25524e-15 0)
(3 -1.62905e-15 0)
(3 -4.93147e-15 0)
(3 1.25238e-15 0)
(3 1.51625e-15 0)
(2.99512 0.0108279 0)
(1.12904 0.235598 0)
(0.805244 0.236092 0)
(0.790557 0.254018 0)
(0.754757 0.264336 0)
(0.709528 0.270414 0)
(0.65729 0.273156 0)
(0.605135 0.275736 0)
(0.55694 0.279105 0)
(0.513437 0.282632 0)
(0.472997 0.287925 0)
(0.432146 0.295583 0)
(0.387677 0.30508 0)
(0.338784 0.317379 0)
(0.286115 0.331671 0)
(0.232064 0.349135 0)
(0.176619 0.361634 0)
(0.127135 0.386597 0)
(0.0756206 0.409241 0)
(0.0287146 0.436087 0)
(3 2.62463e-15 0)
(3 -3.60645e-15 0)
(3 4.85375e-16 0)
(3 -6.98526e-16 0)
(3 2.26449e-15 0)
(3 2.26272e-15 0)
(3 -4.65357e-16 0)
(3 -2.61678e-15 0)
(3 -2.18975e-15 0)
(3 -2.94554e-16 0)
(3 -2.729e-16 0)
(3 4.75222e-15 0)
(3 6.94143e-16 0)
(3 1.49454e-15 0)
(3 -4.21413e-16 0)
(3 3.10035e-15 0)
(3 2.29629e-15 0)
(3 -3.13332e-16 0)
(3 -1.32908e-15 0)
(3 -2.56637e-15 0)
(3.00199 0.00229298 0)
(1.14617 0.236531 0)
(0.789941 0.233377 0)
(0.785452 0.260476 0)
(0.760051 0.274819 0)
(0.724838 0.283723 0)
(0.677412 0.289095 0)
(0.624835 0.292 0)
(0.573465 0.294291 0)
(0.526725 0.296451 0)
(0.484267 0.3011 0)
(0.442574 0.309583 0)
(0.397404 0.320944 0)
(0.347362 0.335092 0)
(0.293315 0.35045 0)
(0.238146 0.368531 0)
(0.181492 0.380389 0)
(0.130352 0.404767 0)
(0.0777106 0.427592 0)
(0.0295304 0.454995 0)
(3 -8.01081e-16 0)
(3 6.86094e-16 0)
(3 7.40017e-16 0)
(3 6.11745e-16 0)
(3 1.54689e-15 0)
(3 1.21218e-15 0)
(3 4.42096e-16 0)
(3 1.28451e-15 0)
(3 3.70715e-15 0)
(3 5.77419e-16 0)
(3 -1.70632e-16 0)
(3 1.15535e-15 0)
(3 1.21786e-15 0)
(3 1.42162e-15 0)
(3 -8.80378e-16 0)
(3 2.46166e-16 0)
(3 1.68755e-15 0)
(3 2.03734e-15 0)
(3 1.73196e-15 0)
(3 -3.48059e-15 0)
(3.00061 0.0001317 0)
(1.17012 0.244072 0)
(0.774006 0.237454 0)
(0.775135 0.26239 0)
(0.756929 0.282932 0)
(0.730133 0.295286 0)
(0.691711 0.303549 0)
(0.643191 0.308381 0)
(0.590993 0.310513 0)
(0.540986 0.31144 0)
(0.49534 0.315089 0)
(0.451938 0.32393 0)
(0.406244 0.33693 0)
(0.355921 0.353052 0)
(0.301369 0.369685 0)
(0.245563 0.38838 0)
(0.18767 0.399608 0)
(0.134523 0.423517 0)
(0.0802757 0.446782 0)
(0.0303462 0.47486 0)
(3 8.76523e-16 0)
(3 -3.84055e-16 0)
(3 -1.09371e-15 0)
(3 -3.69418e-16 0)
(3 -2.52203e-16 0)
(3 1.46522e-15 0)
(3 6.71088e-16 0)
(3 -5.89088e-17 0)
(3 3.15848e-16 0)
(3 3.21486e-16 0)
(3 2.1128e-15 0)
(3 1.30837e-15 0)
(3 1.90536e-15 0)
(3 -8.89484e-16 0)
(3 -2.23825e-15 0)
(3 -2.50831e-15 0)
(3 7.6901e-16 0)
(3 8.14904e-16 0)
(3 4.0262e-15 0)
(3 -2.0563e-16 0)
(3.00004 3.62888e-06 0)
(1.20415 0.259571 0)
(0.767855 0.23634 0)
(0.761786 0.263894 0)
(0.74893 0.287325 0)
(0.727858 0.303846 0)
(0.697936 0.315813 0)
(0.656795 0.323942 0)
(0.607302 0.327464 0)
(0.555584 0.327807 0)
(0.506453 0.330247 0)
(0.460448 0.338882 0)
(0.413993 0.353157 0)
(0.363971 0.371308 0)
(0.309791 0.389414 0)
(0.253914 0.408738 0)
(0.195224 0.419319 0)
(0.140242 0.442943 0)
(0.084078 0.466928 0)
(0.0318242 0.495876 0)
(3 -1.57766e-15 0)
(3 1.20684e-15 0)
(3 -5.91295e-16 0)
(3 -1.43031e-15 0)
(3 -1.10933e-15 0)
(3 2.36201e-15 0)
(3 1.71836e-15 0)
(3 2.10872e-15 0)
(3 2.76539e-16 0)
(3 -2.77788e-16 0)
(3 1.82419e-15 0)
(3 1.9752e-15 0)
(3 5.00357e-16 0)
(3 1.52761e-16 0)
(3 -4.1167e-15 0)
(3 -1.11891e-15 0)
(3 -4.33595e-16 0)
(3 -1.99454e-16 0)
(3 1.3915e-15 0)
(3 9.59831e-16 0)
(3 -3.29128e-08 0)
(1.25132 0.276831 0)
(0.769117 0.243139 0)
(0.746745 0.268409 0)
(0.736925 0.290906 0)
(0.721468 0.309979 0)
(0.698848 0.325577 0)
(0.665916 0.33702 0)
(0.621633 0.343464 0)
(0.570334 0.344709 0)
(0.518287 0.346452 0)
(0.469165 0.354523 0)
(0.421625 0.369546 0)
(0.372315 0.389505 0)
(0.319185 0.409132 0)
(0.26355 0.42931 0)
(0.20414 0.439633 0)
(0.147079 0.463445 0)
(0.0882861 0.488411 0)
(0.033135 0.518281 0)
(3 -1.49783e-15 0)
(3 1.1902e-15 0)
(3 -8.37935e-16 0)
(3 -1.17205e-15 0)
(3 -2.89789e-16 0)
(3 1.6774e-16 0)
(3 -6.68232e-16 0)
(3 -8.96075e-17 0)
(3 -2.20867e-15 0)
(3 9.28527e-16 0)
(3 1.96625e-16 0)
(3 1.14033e-15 0)
(3 -7.46933e-16 0)
(3 -3.55204e-16 0)
(3 -2.87607e-15 0)
(3 -1.77332e-15 0)
(3 -1.72835e-16 0)
(3 1.88639e-15 0)
(3 -7.08325e-16 0)
(3 7.02031e-16 0)
(3 -3.31768e-08 0)
(1.3128 0.292064 0)
(0.776969 0.253574 0)
(0.732458 0.271333 0)
(0.722321 0.292567 0)
(0.711252 0.313386 0)
(0.695066 0.333015 0)
(0.669226 0.348308 0)
(0.631465 0.358676 0)
(0.583071 0.362294 0)
(0.529995 0.364019 0)
(0.47826 0.371235 0)
(0.42952 0.386334 0)
(0.381151 0.407661 0)
(0.329182 0.428817 0)
(0.274432 0.450113 0)
(0.214488 0.460785 0)
(0.155722 0.485061 0)
(0.0941043 0.511158 0)
(0.0352746 0.542115 0)
(3 -7.03805e-17 0)
(3 -5.77142e-16 0)
(3 4.0276e-16 0)
(3 -3.14409e-16 0)
(3 2.10385e-16 0)
(3 -1.80462e-15 0)
(3 -4.37049e-16 0)
(3 -1.24443e-15 0)
(3 -2.00569e-15 0)
(3 1.74927e-15 0)
(3 -6.98508e-16 0)
(3 -1.12392e-15 0)
(3 -2.07556e-17 0)
(3 -1.36881e-15 0)
(3 1.1573e-15 0)
(3 2.58844e-16 0)
(3 -1.04273e-17 0)
(3 1.48873e-15 0)
(3 -1.14491e-15 0)
(3 3.11118e-17 0)
(3 -1.5382e-08 0)
(1.38724 0.305901 0)
(0.785489 0.269573 0)
(0.724081 0.276793 0)
(0.707964 0.295553 0)
(0.698322 0.316576 0)
(0.687834 0.338115 0)
(0.668871 0.357368 0)
(0.638208 0.371593 0)
(0.594737 0.378651 0)
(0.542647 0.381695 0)
(0.489128 0.388543 0)
(0.438886 0.403316 0)
(0.39118 0.425439 0)
(0.340432 0.448119 0)
(0.286806 0.470871 0)
(0.226433 0.482815 0)
(0.165566 0.508281 0)
(0.100536 0.535719 0)
(0.0368987 0.567704 0)
(3 1.0753e-15 0)
(3 -7.584e-16 0)
(3 4.84308e-16 0)
(3 3.37823e-16 0)
(3 2.47769e-15 0)
(3 -2.82327e-16 0)
(3 4.88302e-17 0)
(3 -2.15327e-16 0)
(3 3.03097e-15 0)
(3 2.93845e-15 0)
(3 2.99023e-15 0)
(3 -2.90349e-15 0)
(3 -1.51791e-18 0)
(3 -1.96359e-16 0)
(3 -5.10371e-16 0)
(3 -9.02892e-16 0)
(3 -3.11606e-16 0)
(3 -3.34191e-16 0)
(3 -6.73331e-16 0)
(3 1.53784e-15 0)
(3 -6.97136e-09 0)
(1.47244 0.318586 0)
(0.795598 0.28808 0)
(0.723956 0.286693 0)
(0.696486 0.298518 0)
(0.684833 0.317865 0)
(0.677779 0.340926 0)
(0.665078 0.364124 0)
(0.640954 0.38247 0)
(0.603183 0.394136 0)
(0.554188 0.399875 0)
(0.50073 0.406892 0)
(0.449569 0.420743 0)
(0.402032 0.443037 0)
(0.352939 0.466966 0)
(0.300371 0.491797 0)
(0.239859 0.506004 0)
(0.177446 0.533032 0)
(0.108824 0.561949 0)
(0.0397631 0.595109 0)
(3 6.50968e-16 0)
(3 2.02638e-16 0)
(3 -7.52095e-16 0)
(3 5.20924e-17 0)
(3 7.33409e-16 0)
(3 1.44437e-15 0)
(3 1.46907e-15 0)
(3 2.54546e-15 0)
(3 -2.04755e-15 0)
(3 -7.52645e-16 0)
(3 -7.12428e-16 0)
(3 5.64754e-16 0)
(3 -1.56845e-15 0)
(3 -1.35099e-15 0)
(3 -8.85155e-16 0)
(3 -1.71934e-16 0)
(3 1.99516e-16 0)
(3 -9.5977e-16 0)
(3 2.20822e-15 0)
(3 1.00335e-15 0)
(3 -2.78859e-09 0)
(1.56711 0.330299 0)
(0.8067 0.30701 0)
(0.727843 0.29881 0)
(0.690705 0.304415 0)
(0.673252 0.321034 0)
(0.666124 0.343478 0)
(0.658459 0.368427 0)
(0.641508 0.391026 0)
(0.610353 0.407337 0)
(0.565916 0.417021 0)
(0.51392 0.425395 0)
(0.46202 0.438277 0)
(0.414502 0.460205 0)
(0.366768 0.485235 0)
(0.315786 0.512483 0)
(0.25539 0.529972 0)
(0.190877 0.559588 0)
(0.117503 0.590719 0)
(0.0418859 0.625086 0)
(3 9.9935e-17 0)
(3 4.90624e-16 0)
(3 1.20346e-15 0)
(3 1.23439e-15 0)
(3 -1.41821e-15 0)
(3 4.19096e-15 0)
(3 2.48439e-15 0)
(3 1.88724e-15 0)
(3 -1.99082e-16 0)
(3 -1.31323e-15 0)
(3 -1.29202e-15 0)
(3 3.81898e-15 0)
(3 -1.96075e-15 0)
(3 -2.09095e-15 0)
(3 -2.07194e-15 0)
(3 1.58233e-15 0)
(3 2.47508e-15 0)
(3 1.99023e-15 0)
(3 1.83422e-15 0)
(3 5.28328e-16 0)
(3 -1.09316e-09 0)
(1.67133 0.341146 0)
(0.818192 0.32588 0)
(0.732901 0.312903 0)
(0.691175 0.313132 0)
(0.664987 0.32392 0)
(0.654795 0.344241 0)
(0.649387 0.370333 0)
(0.639268 0.397171 0)
(0.615184 0.418595 0)
(0.576459 0.433339 0)
(0.527592 0.444043 0)
(0.475675 0.456195 0)
(0.428322 0.47722 0)
(0.381809 0.503132 0)
(0.3325 0.533382 0)
(0.2725 0.555121 0)
(0.206457 0.587827 0)
(0.128689 0.621782 0)
(0.0459968 0.657973 0)
(3 -8.2224e-17 0)
(3 1.53954e-16 0)
(3 2.14056e-15 0)
(3 -3.53902e-16 0)
(3 -6.02384e-16 0)
(3 -4.40946e-15 0)
(3 -9.47666e-16 0)
(3 1.0559e-16 0)
(3 1.41811e-15 0)
(3 -5.07335e-16 0)
(3 -5.44271e-17 0)
(3 4.31809e-16 0)
(3 -2.61801e-16 0)
(3 -2.86657e-15 0)
(3 -2.86296e-16 0)
(3 -1.30205e-15 0)
(3 3.53402e-15 0)
(3 3.00878e-15 0)
(3 3.01654e-16 0)
(3 2.60169e-15 0)
(3 -4.23844e-10 0)
(1.78662 0.351461 0)
(0.831 0.34496 0)
(0.736552 0.328517 0)
(0.69331 0.323362 0)
(0.661324 0.32944 0)
(0.645175 0.346559 0)
(0.639457 0.372058 0)
(0.634444 0.401326 0)
(0.618019 0.427656 0)
(0.585906 0.448057 0)
(0.541233 0.462099 0)
(0.49065 0.474022 0)
(0.44355 0.494131 0)
(0.398278 0.520788 0)
(0.351161 0.553993 0)
(0.292333 0.580266 0)
(0.224186 0.617703 0)
(0.140466 0.656639 0)
(0.0489287 0.695286 0)
(3 5.49962e-16 0)
(3 5.33957e-17 0)
(3 -1.00398e-15 0)
(3 -6.55052e-16 0)
(3 -3.81558e-17 0)
(3 -9.04666e-16 0)
(3 -1.35851e-15 0)
(3 -4.69388e-16 0)
(3 1.94583e-15 0)
(3 1.23043e-17 0)
(3 -1.90185e-15 0)
(3 -2.91322e-15 0)
(3 5.38592e-16 0)
(3 -7.70003e-16 0)
(3 2.37397e-15 0)
(3 -7.33407e-16 0)
(3 -2.12814e-15 0)
(3 1.55515e-15 0)
(3 1.74217e-15 0)
(3 2.39144e-15 0)
(3 -1.48213e-10 0)
(1.91369 0.359705 0)
(0.845338 0.365204 0)
(0.741293 0.343231 0)
(0.697886 0.33487 0)
(0.662234 0.337225 0)
(0.638635 0.349411 0)
(0.630498 0.372618 0)
(0.627371 0.403653 0)
(0.619245 0.435128 0)
(0.59476 0.460584 0)
(0.555035 0.478643 0)
(0.506706 0.491361 0)
(0.460169 0.51116 0)
(0.415933 0.538514 0)
(0.371122 0.574805 0)
(0.313422 0.606526 0)
(0.244507 0.649452 0)
(0.156471 0.694866 0)
(0.055207 0.737689 0)
(3 4.94849e-16 0)
(3 -7.53132e-16 0)
(3 1.7098e-15 0)
(3 3.44528e-15 0)
(3 3.42394e-16 0)
(3 2.79858e-15 0)
(3 1.18565e-16 0)
(3 3.07223e-16 0)
(3 -9.80894e-16 0)
(3 -2.19593e-15 0)
(3 3.77407e-15 0)
(3 -7.07862e-16 0)
(3 2.8416e-16 0)
(3 1.20283e-15 0)
(3 2.03055e-16 0)
(3 -1.07797e-15 0)
(3 -4.57063e-15 0)
(3 -3.04134e-15 0)
(3 1.46287e-15 0)
(3 2.47558e-15 0)
(3 -4.36744e-11 0)
(2.05594 0.365826 0)
(0.862983 0.387368 0)
(0.746014 0.357401 0)
(0.704746 0.346182 0)
(0.666491 0.346407 0)
(0.636909 0.355377 0)
(0.623411 0.376139 0)
(0.619272 0.406074 0)
(0.617011 0.440457 0)
(0.601233 0.470705 0)
(0.568019 0.49391 0)
(0.523065 0.508357 0)
(0.478083 0.528413 0)
(0.434765 0.556425 0)
(0.392808 0.595208 0)
(0.337755 0.631657 0)
(0.268397 0.682299 0)
(0.173831 0.739306 0)
(0.0597234 0.788181 0)
(3 -1.74622e-15 0)
(3 -8.27705e-17 0)
(3 -6.92426e-16 0)
(3 -3.10212e-16 0)
(3 -7.12488e-16 0)
(3 -5.10114e-16 0)
(3 -8.90006e-16 0)
(3 3.76342e-16 0)
(3 1.18053e-15 0)
(3 2.95005e-15 0)
(3 -1.25496e-17 0)
(3 -1.61544e-15 0)