/*--------------------------------*- C++ -*----------------------------------*\
  =========                 |
  \\      /  F ield         | OpenFOAM: The Open Source CFD Toolbox
   \\    /   O peration     | Website:  https://openfoam.org
    \\  /    A nd           | Version:  6.0
     \\/     M anipulation  |
\*---------------------------------------------------------------------------*/
FoamFile
{
    version     2.0;
    format      ascii;
    class       volScalarField;
    location    "3.00033481";
    object      p;
}
// * * * * * * * * * * * * * * * * * * * * * * * * * * * * * * * * * * * * * //

dimensions      [1 -1 -2 0 0 0 0];

internalField   nonuniform List<scalar> 
4800
(
1
1
1
1
1
1
1
1
1
1
1
1
1
1
1
1
1
1
1
1
2.42052
9.28312
10.4099
10.3165
10.5528
11.2032
11.675
11.7184
11.1908
10.3784
10.1431
11.1204
12.7736
13.8828
13.7076
12.1536
10.4997
10.9283
13.0906
14.4789
1
1
1
1
1
1
1
1
1
1
1
1
1
1
1
1
1
1
1
1
2.38964
9.1833
10.5906
10.7002
10.8129
10.8306
10.9339
11.1514
11.4117
11.5755
11.6347
11.4235
11.3161
11.2686
11.6645
11.9247
12.0262
11.6597
11.4082
11.34
1
1
1
1
1
1
1
1
1
1
1
1
1
1
1
1
1
1
1
1
2.33996
9.02062
10.6504
10.9783
11.0216
10.6374
10.3435
10.4322
11.151
12.426
13.0456
12.3487
10.7111
9.62181
9.81114
11.3187
12.9952
12.6756
10.6662
9.4541
1
1
1
1
1
1
1
1
1
1
1
1
1
1
1
1
1
1
1
1
2.33001
9.04309
10.6642
10.9297
10.9788
10.742
10.4288
10.497
11.3567
12.2282
12.5928
12.0224
10.954
9.91202
10.0116
11.7132
13.1183
12.9401
10.7578
9.46678
1
1
1
1
1
1
1
1
1
1
1
1
1
1
1
1
1
1
1
1
2.32982
9.13922
10.6262
10.6613
10.7626
10.8383
10.988
11.2625
11.3263
11.3114
11.0928
11.2662
11.731
12.0664
12.1025
11.7922
11.7748
11.5871
11.5581
11.5304
1
1
1
1
1
1
1
1
1
1
1
1
1
1
1
1
1
1
1
1
2.3152
9.18917
10.5475
10.4145
10.4486
10.8899
11.577
11.9299
11.4286
10.4339
9.98173
10.372
11.903
13.8218
14.2878
12.5582
10.2682
10.3053
11.9179
13.4168
1
1
1
1
1
1
1
1
1
1
1
1
1
1
1
1
1
1
1
1
2.25329
9.10318
10.471
10.2981
10.4182
11.0224
11.6185
11.7158
11.2708
10.4856
10.1615
10.7387
12.2829
13.4195
13.2079
11.436
10.2117
10.4342
12.2752
13.9977
1
1
1
1
1
1
1
1
1
1
1
1
1
1
1
1
1
1
1
1
2.16139
8.91722
10.4202
10.5386
10.8855
11.0649
11.0953
10.9768
11.0281
11.2494
11.6746
11.9925
11.8943
11.4485
10.6563
10.9871
11.2498
11.3378
12.2229
12.6673
1
1
1
1
1
1
1
1
1
1
1
1
1
1
1
1
1
1
1
1
2.07512
8.74949
10.3311
10.8943
11.1511
11.0336
10.6192
10.2778
10.5372
11.7953
12.9029
13.2134
12.0463
9.6503
9.11325
10.265
12.146
13.0995
12.3436
11.2853
1
1
1
1
1
1
1
1
1
1
1
1
1
1
1
1
1
1
1
1
2.00674
8.62933
10.5258
10.9051
11.1441
11.0643
10.5429
10.4143
10.9
12.0042
12.8019
12.6056
10.781
9.95091
9.82924
11.0886
13.323
14.1302
12.1777
9.97861
1
1
1
1
1
1
1
1
1
1
1
1
1
1
1
1
1
1
1
1
1.96148
8.6531
10.7082
10.7938
10.8619
10.6708
10.7738
11.0368
11.528
11.6264
11.4878
10.6579
10.7628
11.1928
12.3477
12.7942
13.0369
12.4133
10.7739
10.6301
1
1
1
1
1
1
1
1
1
1
1
1
1
1
1
1
1
1
1
1
1.91144
8.69716
10.7683
10.6686
10.4321
10.3739
10.8532
11.6997
11.9228
11.4455
10.0904
9.61195
10.3615
12.487
13.9065
14.3912
12.4243
9.953
9.71266
10.7315
1
1
1
1
1
1
1
1
1
1
1
1
1
1
1
1
1
1
1
1
1.82936
8.59207
10.7775
10.4597
10.2322
10.3639
11.1016
11.7062
11.8211
10.7633
9.95661
9.94751
11.1508
12.9371
13.9051
12.7399
10.0341
9.63911
10.3341
10.5647
1
1
1
1
1
1
1
1
1
1
1
1
1
1
1
1
1
1
1
1
1.75407
8.37653
10.4443
10.3425
10.5158
11.0996
11.2673
11.1736
10.7767
10.5814
10.8158
11.6947
12.4845
12.3837
11.6146
9.66534
9.83199
10.5444
11.5646
13.0016
1
1
1
1
1
1
1
1
1
1
1
1
1
1
1
1
1
1
1
1
1.65068
8.12685
10.2024
10.3214
10.9796
11.3975
11.4205
10.8665
10.0662
10.243
11.8427
13.1549
13.4815
12.2906
9.08986
8.62855
9.71506
11.5429
13.7083
14.8168
1
1
1
1
1
1
1
1
1
1
1
1
1
1
1
1
1
1
1
1
1.55126
7.92655
10.1745
10.6042
11.027
11.2561
11.2527
10.7113
10.5407
11.2777
12.3558
13.0604
12.7327
9.98122
9.31968
9.47277
11.1968
13.4606
14.4752
14.9694
1
1
1
1
1
1
1
1
1
1
1
1
1
1
1
1
1
1
1
1
1.45374
7.73794
10.4733
10.7686
10.8876
10.9657
10.7164
10.7798
11.2628
11.9447
12.0249
11.8441
10.1022
10.0162
10.5454
12.1764
13.4408
13.5896
12.7887
10.6595
1
1
1
1
1
1
1
1
1
1
1
1
1
1
1
1
1
1
1
1
1.38772
7.72448
10.7291
10.8223
10.7993
10.6266
10.2701
10.5779
11.5377
12.0913
12.0563
10.0458
9.33934
9.78922
12.0232
14.2157
14.2486
12.9889
9.67513
9.28653
1
1
1
1
1
1
1
1
1
1
1
1
1
1
1
1
1
1
1
1
1.29677
7.65837
10.7301
10.7636
10.8446
10.2241
10.0673
10.411
11.3684
11.7858
10.5656
9.79091
9.89997
11.368
13.2705
13.5283
12.9484
9.90664
9.43553
9.5425
1
1
1
1
1
1
1
1
1
1
1
1
1
1
1
1
1
1
1
1
1.19099
7.43351
10.6541
10.5676
10.3743
10.3066
10.5518
11.2836
11.3211
10.8093
10.0651
10.2005
11.4072
13.1463
13.1341
12.4956
9.21791
9.25476
10.0316
10.4334
1
1
1
1
1
1
1
1
1
1
1
1
1
1
1
1
1
1
1
1
1.11122
7.11793
10.5173
10.2153
10.0212
10.4024
11.5059
11.7581
11.4054
10.2277
9.81234
10.9727
12.9641
13.6254
13.5439
9.78001
8.49157
8.77695
10.0181
11.2805
1
1
1
1
1
1
1
1
1
1
1
1
1
1
1
1
1
1
1
1
1.05733
6.81478
10.2642
10.0636
10.2182
11.0571
11.4955
11.6818
11.2411
10.6434
11.3003
12.4183
12.7334
12.6955
9.98042
9.49105
9.3081
9.59258
11.2716
13.2176
1
1
1
1
1
1
1
1
1
1
1
1
1
1
1
1
1
1
1
1
1.01553
6.58698
10.1207
10.1667
10.8264
11.1189
11.192
11.2406
10.7144
11.101
12.1539
12.4673
12.4379
10.1771
8.70116
9.35088
11.14
13.6803
13.8742
13.6813
1
1
1
1
1
1
1
1
1
1
1
1
1
1
1
1
1
1
1
1
1.00308
6.3884
10.1167
10.5323
10.8836
11.0761
11.164
10.4578
10.2439
10.9257
11.9753
12.4636
11.268
9.15739
8.90872
9.93183
13.5731
14.4629
14.3088
13.8284
1
1
1
1
1
1
1
1
1
1
1
1
1
1
1
1
1
1
1
1
1.00014
6.27366
10.3487
10.598
10.7561
10.9351
10.5862
9.92653
10.0637
10.7047
11.4247
11.4966
10.0031
9.4545
9.99213
12.7478
13.431
14.1262
12.9196
10.8876
1
1
1
1
1
1
1
1
1
1
1
1
1
1
1
1
1
1
1
1
0.999981
5.97559
10.3875
10.5668
10.5982
10.432
10.0606
10.0737
10.3929
11.1843
11.2064
9.8518
9.6735
10.2395
12.7508
13.4039
13.4138
11.0523
9.22795
9.74392
1
1
1
1
1
1
1
1
1
1
1
1
1
1
1
1
1
1
1
1
0.999985
5.60462
10.2293
10.5019
10.4107
10.0037
9.76931
10.3577
11.5811
11.6736
10.7541
9.46467
9.84281
12.1026
13.3908
13.1894
10.7855
8.68482
8.96457
9.4757
1
1
1
1
1
1
1
1
1
1
1
1
1
1
1
1
1
1
1
1
0.999995
5.21253
10.0579
10.0877
10.0817
10.072
10.3465
11.3482
11.6839
11.6286
10.5945
9.64814
10.6714
12.7494
13.2049
12.7164
9.38273
8.46055
9.24156
10.3201
1
1
1
1
1
1
1
1
1
1
1
1
1
1
1
1
1
1
1
1
0.999999
4.85681
9.81941
9.88808
9.97002
10.3086
11.2761
11.4393
11.3826
11.2928
10.369
10.5812
11.9769
12.5543
12.9732
10.4483
9.34129
9.25734
11.0063
12.9873
1
1
1
1
1
1
1
1
1
1
1
1
1
1
1
1
1
1
1
1
0.999999
4.51327
9.6776
9.7813
10.0086
10.8112
11.2613
11.554
11.5859
10.2967
10.2574
11.7525
11.9956
12.0342
9.7135
9.24092
9.93222
11.4413
12.4756
13.0933
1
1
1
1
1
1
1
1
1
1
1
1
1
1
1
1
1
1
1
1
0.999999
4.20714
9.50983
10.1234
10.6759
10.8522
10.9588
11.1992
10.1972
10.0445
10.6647
11.7373
11.953
10.5468
8.48273
8.85002
10.0858
11.9762
12.2827
12.7513
1
1
1
1
1
1
1
1
1
1
1
1
1
1
1
1
1
1
1
1
1
3.95039
9.5889
10.5382
10.7439
10.8105
10.8211
9.87429
9.68328
10.0209
11.1859
11.4728
11.6228
9.8081
8.50778
8.96716
10.4439
12.2498
11.948
10.4778
1
1
1
1
1
1
1
1
1
1
1
1
1
1
1
1
1
1
1
1
1
3.60466
9.58908
10.5002
10.7006
10.7958
10.013
9.49141
9.63458
10.4477
11.5436
11.4361
10.7876
9.3463
8.88887
9.88747
12.3352
12.3798
11.0736
9.39653
1
1
1
1
1
1
1
1
1
1
1
1
1
1
1
1
1
1
1
1
1
3.24489
9.33879
10.3735
10.4313
10.0099
9.8601
9.74027
10.2894
11.3265
11.5074
11.5887
9.8997
9.82207
11.3528
12.7447
12.7683
12.1412
9.33352
8.9292
1
1
1
1
1
1
1
1
1
1
1
1
1
1
1
1
1
1
1
1
1
2.94237
9.06241
10.1352
9.80283
9.74363
9.77123
10.5191
11.392
11.3037
11.0957
9.94729
9.73716
10.4843
12.3592
12.8792
12.4256
10.8948
8.927
8.57671
1
1
1
1
1
1
1
1
1
1
1
1
1
1
1
1
1
1
1
1
1
2.61941
8.80381
9.89779
9.65215
9.72917
10.2312
11.2135
11.3986
11.278
10.6791
9.3349
9.49793
10.7627
12.5196
12.7426
12.575
9.82964
9.82985
11.3004
1
1
1
1
1
1
1
1
1
1
1
1
1
1
1
1
1
1
1
1
1
2.25941
8.44818
9.76181
9.64486
10.1156
10.9732
11.1495
11.2538
11.0202
9.5018
9.27717
9.19487
11.1918
12.0216
12.2803
9.13648
9.55683
11.7253
13.5769
1
1
1
1
1
1
1
1
1
1
1
1
1
1
1
1
1
1
1
1
1
1.86558
8.08133
9.71915
10.1891
10.7983
10.9727
11.1021
10.8625
9.69646
9.55688
9.61645
11.3015
11.059
11.443
8.13357
8.17896
9.15963
11.4239
12.9409
1
1
1
1
1
1
1
1
1
1
1
1
1
1
1
1
1
1
1
1
1
1.54947
7.93151
10.2986
10.6638
10.8281
10.7965
10.6328
9.53913
9.42693
9.52795
11.2129
11.8491
11.072
8.66514
7.70659
7.80332
8.22423
8.27115
8.43931
1
1
1
1
1
1
1
1
1
1
1
1
1
1
1
1
1
1
1
1
1
1.23611
7.75104
10.5007
10.4804
10.5848
10.4833
9.53733
9.33787
9.6226
10.8975
11.6884
11.4969
10.7195
8.05497
7.66224
7.63829
7.69057
7.39633
7.14293
1
1
1
1
1
1
1
1
1
1
1
1
1
1
1
1
1
1
1
1
1
1.01342
6.35977
10.0009
10.0173
10.004
9.88433
10.0791
10.4206
10.664
10.7852
10.5398
10.2172
9.67578
9.628
9.97241
9.84811
9.2379
7.75863
5.17273
1
1
1
1
1
1
1
1
1
1
1
1
1
1
1
1
1
1
1
1
1
1.00001
4.24645
9.48402
9.87145
9.96149
10.1495
10.2934
10.3103
10.2145
9.99784
9.8853
9.88963
10.0718
10.2928
10.2067
9.71178
8.8205
7.57028
5.75894
1
1
1
1
1
1
1
1
1
1
1
1
1
1
1
1
1
1
1
1
1
1
2.26526
8.46682
9.8785
9.9348
9.98475
9.95861
9.89673
9.84834
9.86265
9.87488
9.82936
9.71465
9.55615
9.19937
8.63781
7.98584
7.29503
5.9195
1
1
1
1
1
1
1
1
1
1
1
1
1
1
1
1
1
1
1
1
1
1
1.10988
6.6847
9.87114
9.78878
9.75757
9.71033
9.71468
9.74062
9.71055
9.60885
9.45183
9.26398
9.05498
8.7427
8.27953
7.55574
6.77579
5.75198
1
1
1
1
1
1
1
1
1
1
1
1
1
1
1
1
1
1
1
1
1
1
1.00056
4.17089
9.17389
9.6047
9.62092
9.60272
9.54581
9.47203
9.37365
9.28035
9.17066
9.01754
8.79914
8.47137
7.99524
7.32478
6.63152
5.80472
1
1
1
1
1
1
1
1
1
1
1
1
1
1
1
1
1
1
1
1
1
1
0.999997
1.79859
7.90373
9.54524
9.4891
9.47388
9.36841
9.23297
9.12933
9.05153
8.93862
8.76509
8.50457
8.16975
7.70259
7.18483
6.58869
5.89507
1
1
1
1
1
1
1
1
1
1
1
1
1
1
1
1
1
1
1
1
1
1
0.999999
1.03957
5.5035
9.1427
9.24825
9.29169
9.23246
9.10011
8.95833
8.82451
8.67125
8.50111
8.26299
7.95816
7.49541
7.00125
6.45988
5.8898
1
1
1
1
1
1
1
1
1
1
1
1
1
1
1
1
1
1
1
1
1
1
1
1
2.381
8.01095
9.14012
9.13509
9.11326
9.00737
8.8354
8.65363
8.48044
8.30817
8.08615
7.79739
7.37551
6.89484
6.37806
5.87879
1
1
1
1
1
1
1
1
1
1
1
1
1
1
1
1
1
1
1
1
1
1
1
0.999997
1.10311
5.72163
8.90679
8.9473
8.96655
8.87149
8.70665
8.51777
8.32495
8.1233
7.90282
7.64717
7.2966
6.87441
6.41942
5.95951
1
1
1
1
1
1
1
1
1
1
1
1
1
1
1
1
1
1
1
1
1
1
1
1
1.00044
2.34901
7.83727
8.81397
8.7579
8.7053
8.56829
8.3916
8.18715
7.9591
7.72598
7.48547
7.20227
6.85426
6.46093
6.04378
1
1
1
1
1
1
1
1
1
1
1
1
1
1
1
1
1
1
1
1
1
1
1
1
1
1.09214
5.26085
8.57231
8.66718
8.59456
8.46457
8.28951
8.07758
7.83045
7.57455
7.32615
7.07063
6.77787
6.44413
6.07639
1
1
1
1
1
1
1
1
1
1
1
1
1
1
1
1
1
1
1
1
1
1
1
1
1
1.00044
1.81105
7.24772
8.58785
8.44516
8.35692
8.19433
7.98896
7.73952
7.48287
7.22031
6.95038
6.67375
6.38236
6.05824
1
1
1
1
1
1
1
1
1
1
1
1
1
1
1
1
1
1
1
1
1
1
1
1
1
1
1.03371
4.22328
8.12947
8.29932
8.21882
8.10113
7.92065
7.68115
7.42965
7.16279
6.88415
6.60407
6.32675
6.03266
1
1
1
1
1
1
1
1
1
1
1
1
1
1
1
1
1
1
1
1
1
1
1
1
1
1
1.00009
1.45379
6.07841
8.24557
8.15464
8.04778
7.88682
7.67829
7.4373
7.16713
6.88146
6.59754
6.32534
6.04374
1
1
1
1
1
1
1
1
1
1
1
1
1
1
1
1
1
1
1
1
1
1
1
1
1
1
1
1.01088
2.37586
7.25513
8.11027
7.92512
7.80058
7.63421
7.42899
7.18353
6.90835
6.62761
6.35756
6.08404
1
1
1
1
1
1
1
1
1
1
1
1
1
1
1
1
1
1
1
1
1
1
1
1
1
1
1
1.00004
1.0915
4.38893
7.71882
7.78552
7.66334
7.52835
7.36986
7.17629
6.94629
6.69304
6.43283
6.16671
1
1
1
1
1
1
1
1
1
1
1
1
1
1
1
1
1
1
1
1
1
1
1
1
1
1
1
1
1.00064
1.52727
5.63684
7.68393
7.56444
7.42343
7.27846
7.1144
6.92848
6.71699
6.48975
6.24681
1
1
1
1
1
1
1
1
1
1
1
1
1
1
1
1
1
1
1
1
1
1
1
1
1
1
1
1
1
1.01476
2.18048
6.4221
7.52426
7.34977
7.19741
7.03363
6.86763
6.68549
6.49277
6.28238
1
1
1
1
1
1
1
1
1
1
1
1
1
1
1
1
1
1
1
1
1
1
1
1
1
1
1
1
1
1.00007
1.06868
3.08944
6.85491
7.36913
7.14957
6.9792
6.81604
6.64099
6.46511
6.27354
1
1
1
1
1
1
1
1
1
1
1
1
1
1
1
1
1
1
1
1
1
1
1
1
1
1
1
1
1
1
1.00059
1.21175
4.10178
7.04991
7.17064
6.96831
6.78211
6.59676
6.42064
6.23818
1
1
1
1
1
1
1
1
1
1
1
1
1
1
1
1
1
1
1
1
1
1
1
1
1
1
1
1
1
1
1
1.00334
1.48973
4.86089
7.0453
7.00647
6.7955
6.58986
6.39837
6.21504
1
1
1
1
1
1
1
1
1
1
1
1
1
1
1
1
1
1
1
1
1
1
1
1
1
1
1
1
1
1
1
1.00001
1.01399
1.83681
5.35681
6.93801
6.85501
6.63508
6.42718
6.2373
1
1
1
1
1
1
1
1
1
1
1
1
1
1
1
1
1
1
1
1
1
1
1
1
1
1
1
1
1
1
1
1
1.00007
1.03705
2.19368
5.63949
6.8129
6.7196
6.50143
6.30319
1
1
1
1
1
1
1
1
1
1
1
1
1
1
1
1
1
1
1
1
1
1
1
1
1
1
1
1
1
1
1
1
1
1.00028
1.07264
2.50119
5.77258
6.68991
6.60021
6.39706
1
1
1
1
1
1
1
1
1
1
1
1
1
1
1
1
1
1
1
1
1
1
1
1
1
1
1
1
1
1
1
1
1
1
1.00073
1.114
2.72571
5.79283
6.57299
6.49865
1
1
1
1
1
1
1
1
1
1
1
1
1
1
1
1
1
1
1
1
1
1
1
1
1
1
1
1
1
1
1
1
1
1
1
1.00144
1.15194
2.84773
5.75687
6.45428
1
1
1
1
1
1
1
1
1
1
1
1
1
1
1
1
1
1
1
1
1
1
1
1
1
1
1
1
1
1
1
1
1
1
1
1
1.00222
1.17822
2.89919
5.72445
1
1
1
1
1
1
1
1
1
1
1
1
1
1
1
1
1
1
1
1
1
1
1
1
1
1
1
1
1
1
1
1
1
1
1
1
1.00001
1.00307
1.18789
3.22547
1
1
1
1
1
1
1
1
1
1
1
1
1
1
1
1
1
1
1
1
1
1
1
1
1
1
1
1
1
1
1
1
1
1
1
1
1
1.00001
1.00289
1.28531
1
1
1
1
1
1
1
1
1
1
1
1
1
1
1
1
1
1
1
1
1
1
1
1
1
1
1
1
1
1
1
1
1
1
1
1
1
1
1.00001
1.00549
1
1
1
1
1
1
1
1
1
1
1
1
1
1
1
1
1
1
1
1
1
1
1
1
1
1
1
1
1
1
1
1
1
1
1
1
1
1
1
1
1
1
1
1
1
1
1
1
1
1
1
1
1
1
1
1
1
1
1
1
1
1
1
1
1
1
1
1
1
1
1
1
1
1
1
1
1
1
1
1
1
1
1
1
1
1
1
1
1
1
1
1
1
1
1
1
1
1
1
1
1
1
1
1
1
1
1
1
1
1
1
1
1
1
1
1
1
1
1
1
1
1
1
1
1
1
1
1
1
1
1
1
1
1
1
1
1
1
1
1
1
1
1
1
1
1
1
1
1
1
1
1
1
1
1
1
1
1
1
1
1
1
1
1
1
1
1
1
1
1
1
1
1
1
1
1
1
1
1
1
1
1
1
1
1
1
1
1
1
1
1
1
1
1
1
1
1
1
1
1
1
1
1
1
1
1
1
1
1
1
1
1
1
1
1
1
1
1
1
1
1
1
1
1
1
1
1
1
1
1
1
1
1
1
1
1
1
1
1
1
1
1
1
1
1
1
1
1
1
1
1
1
1
1
1
1
1
1
1
1
1
1
1
1
1
1
1
1
1
1
1
1
1
1
1
1
1
1
1
1
1
1
1
1
1
1
1
1
1
1
1
1
1
1
1
1
1
1
1
1
1
1
1
1
1
1
1
1
1
1
1
1
1
1
1
1
1
1
1
1
1
1
1
1
1
1
1
1
1
1
1
1
1
1
1
1
1
1
1
1
1
1
1
1
1
1
1
1
1
1
1
1
1
1
1
1
1
1
1
1
1
1
1
1
1
1
1
1
1
1
1
1
1
1
1
1
1
1
1
1
1
1
1
1
1
1
1
1
1
1
1
1
1
1
1
1
1
1
1
1
0.654418
0.645652
0.725663
0.823652
0.952438
1.08581
1.14183
1.20376
1.2377
1.26995
1.31311
1.3354
1.33154
2.99151
5.49918
5.84912
5.82753
5.68185
5.55271
5.38151
5.14891
4.89407
4.66416
4.46844
4.30233
4.14921
4.02027
3.88033
3.72211
3.56284
3.39151
3.22045
3.07859
2.96423
2.86874
2.78116
2.6933
2.57452
2.42657
2.24894
2.1674
0.942368
0.746966
0.813598
0.944316
1.04596
1.11287
1.18193
1.21847
1.26665
1.30459
1.3154
1.31252
2.87968
5.59851
5.8859
5.80361
5.65072
5.47947
5.29995
5.10787
4.8979
4.69012
4.49012
4.29899
4.12065
3.9742
3.82883
3.67912
3.5394
3.39687
3.24603
3.09896
2.97332
2.8672
2.77175
2.67053
2.55441
2.4351
2.26451
2.85764
1.28052
0.781001
0.852592
0.943344
1.03657
1.13304
1.19214
1.21508
1.26
1.30324
1.31519
1.32884
2.83542
5.65974
5.95214
5.82856
5.70847
5.52604
5.30022
5.07923
4.88323
4.69711
4.5163
4.33571
4.16035
3.98608
3.80836
3.64626
3.49752
3.36689
3.2476
3.12902
3.00246
2.87499
2.75757
2.64202
2.51928
2.4229
2.28382
3.37142
1.76517
0.994894
0.940908
0.92046
0.973264
1.07737
1.16593
1.22377
1.26163
1.27678
1.28789
1.32847
2.61121
5.73438
6.01446
5.78286
5.657
5.51052
5.2966
5.07715
4.87114
4.67905
4.50912
4.3431
4.17617
4.00386
3.82032
3.64986
3.49884
3.36842
3.25668
3.14726
3.02347
2.88311
2.74125
2.60805
2.49022
2.41507
2.29456
3.89827
2.20797
1.31172
1.05626
0.912346
0.942734
1.00708
1.08629
1.17262
1.26012
1.28558
1.27478
1.3882
2.49051
5.31381
6.13346
5.80149
5.61792
5.48735
5.2744
5.05217
4.86217
4.6903
4.52007
4.35032
4.18764
4.00959
3.81863
3.63354
3.47556
3.35443
3.25682
3.15772
3.03925
2.89059
2.7236
2.57469
2.46995
2.41047
2.29938
4.28536
2.59851
1.66678
1.24222
0.967219
0.965107
0.96413
1.01179
1.11112
1.21502
1.24439
1.26722
1.61123
2.57345
4.56555
5.97963
5.82727
5.5923
5.42362
5.2352
5.02728
4.83068
4.65704
4.49428
4.34075
4.19208
4.02924
3.84656
3.64965
3.47362
3.34679
3.24826
3.14986
3.03295
2.88688
2.72207
2.57309
2.46963
2.40893
2.29824
4.52401
2.90986
1.99333
1.44542
1.10792
1.02671
0.963178
0.968361
1.03834
1.15186
1.20171
1.2756
2.00109
2.79635
3.73426
5.56801
5.82377
5.59483
5.40939
5.23976
5.02939
4.81985
4.6392
4.47432
4.32923
4.19252
4.04526
3.88262
3.69519
3.50586
3.34633
3.22049
3.11081
2.99468
2.86186
2.71976
2.5861
2.47646
2.4059
2.28933
4.68557
3.17486
2.27869
1.67904
1.30767
1.11889
0.974421
0.977908
0.995758
1.06404
1.15305
1.34099
2.43603
3.00518
3.17535
4.72417
5.67082
5.57596
5.40663
5.24726
5.04537
4.83446
4.64825
4.47431
4.32032
4.18212
4.04736
3.90547
3.73537
3.5351
3.3402
3.18988
3.07104
2.96024
2.84217
2.72532
2.60736
2.49036
2.41018
2.28329
4.84726
3.40318
2.55785
1.90867
1.51031
1.24249
1.02121
1.01474
0.998337
1.01685
1.10416
1.49276
2.76368
3.17142
3.1492
3.78202
5.31188
5.54248
5.39082
5.22411
5.03181
4.8463
4.66169
4.47966
4.30842
4.15912
4.03427
3.89603
3.73445
3.54187
3.33164
3.15266
3.0092
2.90321
2.81933
2.73215
2.63572
2.51763
2.40618
2.25394
5.00579
3.64934
2.82927
2.12336
1.70253
1.39036
1.12972
1.07099
1.00464
1.00311
1.05367
1.7145
2.87598
3.20214
3.15368
3.25224
4.56046
5.36085
5.38052
5.18826
4.99618
4.82611
4.65092
4.47382
4.29843
4.1368
3.98264
3.83668
3.6956
3.52472
3.32885
3.13536
2.98703
2.87922
2.80798
2.75221
2.66226
2.52932
2.39265
2.23059
5.14057
3.89791
3.05967
2.32687
1.88916
1.52207
1.26903
1.1452
1.01817
1.01608
1.12547
1.99413
2.73699
3.12498
3.14372
3.109
3.72637
5.03103
5.33516
5.13736
4.94412
4.77376
4.60809
4.44572
4.27791
4.10434
3.93456
3.78364
3.63923
3.49443
3.33026
3.14873
2.99046
2.88263
2.80344
2.72614
2.64036
2.52079
2.38155
2.21726
5.20556
4.08738
3.23674
2.51216
2.06749
1.65294
1.42278
1.24969
1.06842
1.04727
1.26768
2.28314
2.5846
2.8773
3.04745
3.05182
3.22191
4.38228
5.16094
5.11216
4.90066
4.71644
4.55425
4.40333
4.24589
4.07421
3.89977
3.74107
3.59532
3.46263
3.32581
3.17247
3.01915
2.8954
2.79506
2.70279
2.60695
2.49055
2.37112
2.21692
5.24327
4.2282
3.37226
2.68336
2.22399
1.79089
1.57337
1.3542
1.1472
1.10457
1.52926
2.57343
2.64418
2.65908
2.80727
2.93007
2.99833
3.62886
4.79448
5.08993
4.87471
4.66206
4.49109
4.3459
4.20125
4.04553
3.88038
3.71723
3.57125
3.44473
3.32484
3.19576
3.05088
2.9052
2.77875
2.66751
2.56546
2.45578
2.35716
2.22443
5.28162
4.34665
3.48989
2.84808
2.36017
1.93454
1.71459
1.46182
1.25837
1.23676
1.90148
2.75112
2.70862
2.6367
2.62098
2.7166
2.79594
3.06324
4.16252
4.92157
4.85691
4.62861
4.43601
4.28474
4.1495
4.01223
3.86696
3.7133
3.56638
3.43579
3.31645
3.19667
3.06196
2.90913
2.75956
2.63506
2.52797
2.42533
2.35023
2.23386
5.34511
4.45783
3.60235
3.00753
2.48693
2.08757
1.85095
1.56606
1.36377
1.47383
2.38511
2.8359
2.77632
2.65163
2.54515
2.52534
2.58061
2.69976
3.37354
4.51934
4.83247
4.63084
4.42275
4.25038
4.11256
3.98557
3.85817
3.71842
3.56985
3.42559
3.29167
3.16819
3.04133
2.89817
2.74538
2.60997
2.49919
2.40702
2.34773
2.23958
5.44401
4.57526
3.72764
3.16429
2.60244
2.25368
1.97646
1.6703
1.47637
1.88641
2.9277
2.91733
2.82918
2.69124
2.54518
2.43841
2.40712
2.45156
2.72205
3.80558
4.64118
4.63968
4.43632
4.24045
4.08934
3.9615
3.84241
3.71292
3.56231
3.40394
3.25752
3.1282
3.0037
2.87341
2.73362
2.59767
2.48575
2.40368
2.34829
2.24009
5.5623
4.69381
3.87318
3.31551
2.73082
2.42146
2.07997
1.77113
1.64135
2.45225
3.30615
3.1344
2.92928
2.74626
2.57067
2.42769
2.33475
2.29602
2.35544
2.93526
4.14182
4.57455
4.44981
4.27023
4.09134
3.94342
3.81444
3.68601
3.53715
3.37259
3.21723
3.08442
2.96646
2.84945
2.72412
2.5962
2.48811
2.40752
2.34745
2.23426
5.66977
4.80745
4.03858
3.45648
2.88042
2.57626
2.1689
1.88052
1.96935
3.09256
3.4802
3.31509
3.0605
2.82036
2.61031
2.44499
2.31828
2.24541
2.19252
2.33144
3.29212
4.33103
4.47191
4.30208
4.10287
3.92561
3.77719
3.64148
3.49693
3.33831
3.18128
3.04604
2.93217
2.82757
2.71864
2.60298
2.49714
2.40866
2.34203
2.22383
5.73376
4.89783
4.20132
3.57158
3.04492
2.70186
2.26091
2.00475
2.50952
3.73114
3.6292
3.43958
3.18561
2.92385
2.69344
2.49176
2.33517
2.21753
2.14687
2.10321
2.4419
3.65138
4.33152
4.27876
4.11007
3.92029
3.73966
3.58913
3.45188
3.30243
3.15179
3.0192
2.91006
2.81502
2.7179
2.61017
2.5011
2.40229
2.32709
2.20556
5.74921
4.96122
4.32559
3.65182
3.20854
2.79405
2.35718
2.18232
3.21942
4.14587
3.86503
3.56874
3.28976
3.01682
2.77469
2.56654
2.3772
2.23199
2.12051
2.04087
2.04746
2.70108
3.8773
4.20315
4.09215
3.92669
3.72857
3.54832
3.39877
3.26249
3.12884
3.00449
2.89859
2.80662
2.71418
2.60988
2.49696
2.38733
2.30381
2.18072
5.74792
5.01039
4.39921
3.73466
3.36082
2.85876
2.455
2.56575
3.97896
4.35902
4.09033
3.71828
3.3854
3.10644
2.86143
2.64386
2.44505
2.27199
2.13171
2.01598
1.93995
2.05254
3.0333
3.98799
4.03639
3.90886
3.71931
3.52218
3.35959
3.22351
3.10478
2.99637
2.89313
2.79832
2.70366
2.59981
2.48727
2.36983
2.27638
2.15363
5.75668
5.06041
4.43598
3.83774
3.47147
2.91913
2.56207
3.23739
4.66254
4.53064
4.24157
3.85489
3.49453
3.20217
2.95103
2.72203
2.51366
2.32926
2.16361
2.02832
1.92115
1.85883
2.18702
3.32837
3.9088
3.8636
3.69945
3.50282
3.32283
3.20179
3.10477
3.00586
2.89999
2.78929
2.68643
2.58226
2.47261
2.35444
2.25672
2.1378
5.79953
5.1231
4.47045
3.96552
3.5324
2.99444
2.75062
4.15978
5.16671
4.7901
4.38115
3.97246
3.60301
3.29827
3.03433
2.79771
2.58569
2.39712
2.22234
2.07057
1.93047
1.83272
1.81621
2.45199
3.57089
3.78051
3.6742
3.48028
3.29427
3.15849
3.04775
2.95052
2.85442
2.75626
2.66122
2.55864
2.44823
2.33295
2.24121
2.13619
5.88022
5.20435
4.53747
4.10766
3.5452
3.05213
3.2536
5.136
5.42792
5.01014
4.50223
4.07298
3.71366
3.4017
3.12066
2.8683
2.64793
2.45386
2.27457
2.11257
1.96518
1.82684
1.74494
1.85489
2.78016
3.59149
3.59796
3.45313
3.26728
3.12563
3.01249
2.90827
2.81685
2.73968
2.64996
2.54402
2.43466
2.32249
2.24098
2.14005
5.99431
5.30979
4.67064
4.21985
3.55236
3.13957
4.15652
5.92845
5.62267
5.12985
4.6124
4.18353
3.82534
3.4981
3.1967
2.93556
2.71247
2.51414
2.33339
2.16214
2.0038
1.85361
1.7356
1.68254
2.01141
3.03993
3.43037
3.38171
3.24057
3.09923
2.97697
2.87669
2.79236
2.70127
2.6055
2.52146
2.44068
2.34546
2.27287
2.15812
6.13317
5.44249
4.84637
4.2747
3.60722
3.3896
5.40063
6.48208
5.86376
5.23735
4.72264
4.29713
3.92506
3.58135
3.26965
3.00382
2.77507
2.56694
2.37624
2.2003
2.04225
1.89774
1.74721
1.65576
1.64973
2.2372
3.19339
3.32995
3.21599
3.07075
2.94193
2.85086
2.77023
2.68167
2.59225
2.51068
2.42284
2.33487
2.25806
2.13048
6.2083
5.62502
5.00326
4.2742
3.69554
4.17273
6.60971
6.68044
6.02553
5.3539
4.84429
4.41701
4.02258
3.65652
3.3374
3.06769
2.83241
2.61648
2.41772
2.23587
2.069
1.92564
1.78379
1.64928
1.57817
1.69486
2.53584
3.1958
3.18841
3.05994
2.93043
2.83238
2.74336
2.66917
2.60447
2.52071
2.42149
2.32316
2.236
2.10234
6.18188
5.78206
5.09495
4.2605
3.85667
5.55704
7.46169
6.79129
6.12552
5.4993
4.98739
4.53093
4.1036
3.72586
3.40728
3.13427
2.88808
2.66032
2.45372
2.26963
2.09945
1.94855
1.81076
1.66921
1.57022
1.53099
1.87437
2.74229
3.09619
3.04857
2.93566
2.82117
2.7259
2.654
2.57495
2.48771
2.39114
2.29513
2.20569
2.07153
5.6536
5.5882
5.0644
4.32988
4.34984
7.15933
7.8521
6.95043
6.22964
5.64446
5.11985
4.63156
4.18463
3.80407
3.4847
3.202
2.94138
2.70152
2.48507
2.29308
2.1205
1.96741
1.83692
1.71124
1.57844
1.50351
1.53252
2.11575
2.90842
3.02584
2.95491
2.81809
2.70571
2.62239
2.5408
2.45594
2.36009
2.26702
2.17363
2.04618
4.53954
5.47231
5.07146
4.48968
5.63579
8.30954
7.93536
7.08553
6.3771
5.78928
5.23495
4.71798
4.26915
3.89274
3.5664
3.26794
2.99027
2.73818
2.51534
2.31898
2.145
1.98948
1.85449
1.73609
1.61069
1.49794
1.43324
1.59546
2.37901
2.89088
2.88199
2.79637
2.68789
2.58625
2.49508
2.41158
2.32017
2.23245
2.13758
2.03055
3.14826
5.3309
5.09484
4.7177
7.36614
8.85403
8.02283
7.2521
6.54948
5.91074
5.31664
4.78227
4.33959
3.97299
3.64372
3.33267
3.04315
2.78141
2.54673
2.33794
2.15661
2.00181
1.87151
1.75741
1.64177
1.51398
1.42298
1.39071
1.79618
2.61502
2.80412
2.76373
2.66463
2.55185
2.45024
2.36545
2.28112
2.19694
2.10649
2.0281
2.21925
5.29548
5.11862
5.65854
8.97875
9.16145
8.18712
7.4304
6.71122
6.0108
5.37289
4.84033
4.40986
4.04594
3.71171
3.38999
3.08913
2.81983
2.5795
2.36579
2.18033
2.02174
1.88577
1.76641
1.66025
1.54214
1.4147
1.34185
1.41645
2.04098
2.65271
2.70353
2.63304
2.51629
2.40949
2.32199
2.2465
2.1627
2.08777
2.08924
1.42643
4.7714
4.99783
7.36177
9.97679
9.30746
8.36112
7.58079
6.80045
6.06807
5.42869
4.9016
4.4674
4.09034
3.75043
3.43657
3.14247
2.86862
2.61581
2.38984
2.19669
2.03888
1.90677
1.78404
1.66848
1.55343
1.42669
1.33508
1.29598
1.5242
2.24416
2.55921
2.54847
2.46796
2.3719
2.28377
2.21126
2.12798
2.07943
2.305
1.05179
3.79294
4.91756
9.3748
10.3531
9.42414
8.49938
7.68767
6.86196
6.11417
5.48615
4.96596
4.51896
4.12074
3.76844
3.46355
3.18543
2.91547
2.65315
2.4181
2.21871
2.05248
1.9177
1.79711
1.67742
1.56329
1.44672
1.33024
1.26906
1.28099
1.69689
2.38364
2.49027
2.43267
2.34041
2.25379
2.18123
2.11693
2.12392
2.74533
0.998717
2.57483
5.8673
11.0543
10.645
9.5268
8.61172
7.75895
6.9174
6.17827
5.56837
5.04688
4.57467
4.1467
3.7758
3.46707
3.20149
2.94318
2.68296
2.4443
2.24749
2.08146
1.93525
1.80275
1.67908
1.56352
1.45741
1.34556
1.26079
1.2195
1.32439
1.93408
2.37968
2.39156
2.32742
2.24791
2.15881
2.14724
2.39389
3.29265
0.999492
1.8996
6.98525
12.2663
10.8073
9.61813
8.70658
7.80612
6.97404
6.2637
5.66411
5.13445
4.64052
4.18701
3.79777
3.47235
3.19459
2.94484
2.70328
2.46861
2.26931
2.10551
1.95326
1.81109
1.68465
1.56395
1.46642
1.37675
1.27111
1.20002
1.18796
1.47011
2.09285
2.2887
2.25854
2.19663
2.16379
2.32317
3.05723
3.74382
0.999825
1.47026
7.99121
12.9179
11.0156
9.80463
8.83228
7.8876
7.06216
6.38102
5.76669
5.1992
4.68106
4.21852
3.81859
3.47628
3.18512
2.93355
2.7095
2.49877
2.29631
2.11747
1.97097
1.83429
1.69662
1.56603
1.46017
1.37186
1.28009
1.19207
1.1432
1.20119
1.64986
2.1729
2.21056
2.17867
2.28257
2.88512
3.70062
3.86926
0.999964
1.33148
8.63495
12.7329
11.0076
9.92328
8.91752
7.98675
7.15411
6.44416
5.81281
5.23822
4.72224
4.26185
3.85274
3.49478
3.18299
2.92014
2.70327
2.51322
2.32056
2.14708
1.98564
1.82719
1.68678
1.56621
1.46175
1.37436
1.29093
1.19861
1.13792
1.1149
1.26544
1.83667
2.05848
2.22645
2.80487
3.67598
4.05273
3.95379
0.999993
1.57935
8.66204
12.3437
11.0643
9.9767
8.94922
8.06393
7.24094
6.50252
5.84749
5.26399
4.74879
4.30733
3.92214
3.54402
3.19902
2.91905
2.69645
2.51632
2.37729
2.20892
2.02061
1.8381
1.68607
1.58274
1.48886
1.39914
1.31779
1.23546
1.15579
1.09076
1.10629
1.42967
2.01487
2.66034
3.4719
3.99901
4.12127
3.98218
0.999995
1.85669
8.71582
12.2237
11.2041
10.1702
9.13928
8.13551
7.29241
6.53446
5.86111
5.28003
4.78266
4.33019
3.89575
3.50771
3.16864
2.88862
2.68192
2.52488
2.35469
2.17542
1.99066
1.82502
1.68477
1.56684
1.46182
1.36918
1.28994
1.21185
1.13709
1.05516
1.03539
1.16095
2.00927
3.32414
4.22019
4.38665
4.21865
3.96685
)
;

boundaryField
{
    inlet
    {
        type            fixedValue;
        value           uniform 1;
    }
    outlet
    {
        type            zeroGradient;
    }
    top
    {
        type            symmetryPlane;
    }
    bottom
    {
        type            symmetryPlane;
    }
    step
    {
        type            zeroGradient;
    }
    defaultFaces
    {
        type            empty;
    }
}


// ************************************************************************* //
