/*--------------------------------*- C++ -*----------------------------------*\
  =========                 |
  \\      /  F ield         | OpenFOAM: The Open Source CFD Toolbox
   \\    /   O peration     | Website:  https://openfoam.org
    \\  /    A nd           | Version:  6.0
     \\/     M anipulation  |
\*---------------------------------------------------------------------------*/
FoamFile
{
    version     2.0;
    format      ascii;
    class       volScalarField;
    location    "3.00033481";
    object      T;
}
// * * * * * * * * * * * * * * * * * * * * * * * * * * * * * * * * * * * * * //

dimensions      [0 0 0 1 0 0 0];

internalField   nonuniform List<scalar> 
4800
(
1
1
1
1
1
1
1
1
1
1
1
1
1
1
1
1
1
1
1
1
1.5744
2.59996
2.69473
2.68596
2.70323
2.75206
2.78707
2.79249
2.75814
2.69875
2.67735
2.7478
2.85898
2.92242
2.90539
2.80111
2.67493
2.68816
2.81588
2.88702
1
1
1
1
1
1
1
1
1
1
1
1
1
1
1
1
1
1
1
1
1.56358
2.59176
2.70824
2.71422
2.72235
2.7251
2.73496
2.75329
2.77235
2.78153
2.78362
2.76625
2.75417
2.74709
2.7712
2.78277
2.7765
2.7358
2.69872
2.6789
1
1
1
1
1
1
1
1
1
1
1
1
1
1
1
1
1
1
1
1
1.54779
2.57781
2.71319
2.73443
2.73726
2.71113
2.692
2.70026
2.75314
2.83851
2.87436
2.82366
2.70984
2.62525
2.63236
2.73346
2.83591
2.79768
2.64603
2.54678
1
1
1
1
1
1
1
1
1
1
1
1
1
1
1
1
1
1
1
1
1.54587
2.58012
2.71441
2.73117
2.73433
2.71858
2.698
2.7047
2.76701
2.82415
2.84374
2.80081
2.72452
2.64559
2.64494
2.75737
2.8389
2.8101
2.64938
2.54363
1
1
1
1
1
1
1
1
1
1
1
1
1
1
1
1
1
1
1
1
1.54722
2.58841
2.71174
2.71195
2.71875
2.72533
2.7379
2.75916
2.76342
2.75955
2.74093
2.74756
2.77445
2.79253
2.78942
2.75916
2.74424
2.71944
2.69852
2.68255
1
1
1
1
1
1
1
1
1
1
1
1
1
1
1
1
1
1
1
1
1.54402
2.59071
2.70547
2.69401
2.69591
2.7288
2.77896
2.80435
2.77001
2.6973
2.65857
2.68096
2.78567
2.90399
2.92161
2.80213
2.63975
2.62714
2.72213
2.80564
1
1
1
1
1
1
1
1
1
1
1
1
1
1
1
1
1
1
1
1
1.52516
2.58032
2.6996
2.68527
2.69345
2.73829
2.78149
2.78947
2.75895
2.70058
2.67207
2.70819
2.81045
2.8787
2.85623
2.72902
2.63325
2.63486
2.74375
2.83683
1
1
1
1
1
1
1
1
1
1
1
1
1
1
1
1
1
1
1
1
1.49354
2.56129
2.69593
2.70258
2.72736
2.74098
2.7445
2.73781
2.74155
2.75384
2.77946
2.79638
2.78265
2.74696
2.68582
2.69774
2.70394
2.69663
2.73603
2.75037
1
1
1
1
1
1
1
1
1
1
1
1
1
1
1
1
1
1
1
1
1.4651
2.54456
2.68894
2.72802
2.74572
2.73811
2.70996
2.68615
2.70553
2.79246
2.86087
2.87398
2.79134
2.61844
2.56624
2.6416
2.76211
2.80895
2.74134
2.66156
1
1
1
1
1
1
1
1
1
1
1
1
1
1
1
1
1
1
1
1
1.4406
2.53325
2.7027
2.72826
2.74475
2.73971
2.7039
2.69605
2.73181
2.80622
2.85449
2.83549
2.70688
2.64058
2.62273
2.70195
2.83656
2.8683
2.72816
2.56692
1
1
1
1
1
1
1
1
1
1
1
1
1
1
1
1
1
1
1
1
1.42562
2.5343
2.71542
2.71972
2.72443
2.7112
2.72006
2.74049
2.77537
2.78003
2.76608
2.7035
2.70621
2.7297
2.80235
2.81725
2.81705
2.75895
2.63279
2.61032
1
1
1
1
1
1
1
1
1
1
1
1
1
1
1
1
1
1
1
1
1.41039
2.53535
2.71921
2.71081
2.69308
2.68894
2.72503
2.78604
2.80152
2.76703
2.66692
2.62464
2.67539
2.81941
2.89961
2.91328
2.7719
2.58916
2.55311
2.61674
1
1
1
1
1
1
1
1
1
1
1
1
1
1
1
1
1
1
1
1
1.38024
2.52258
2.72003
2.69592
2.67808
2.68773
2.74253
2.78604
2.79425
2.71965
2.65624
2.65052
2.73432
2.84863
2.89957
2.81424
2.61146
2.5645
2.59803
2.60331
1
1
1
1
1
1
1
1
1
1
1
1
1
1
1
1
1
1
1
1
1.35422
2.50223
2.69741
2.68777
2.69899
2.74122
2.75388
2.74832
2.72144
2.70633
2.71858
2.77603
2.82569
2.81271
2.74865
2.60024
2.59451
2.62853
2.68281
2.76546
1
1
1
1
1
1
1
1
1
1
1
1
1
1
1
1
1
1
1
1
1.31492
2.47919
2.68091
2.68683
2.73317
2.76207
2.76384
2.72636
2.66876
2.68015
2.79204
2.87298
2.88853
2.80247
2.5671
2.51596
2.58257
2.69372
2.81784
2.86964
1
1
1
1
1
1
1
1
1
1
1
1
1
1
1
1
1
1
1
1
1.2756
2.45735
2.67924
2.70776
2.7367
2.75223
2.75194
2.71487
2.70371
2.75602
2.82579
2.86729
2.84005
2.64464
2.58372
2.5847
2.69338
2.8193
2.8617
2.87298
1
1
1
1
1
1
1
1
1
1
1
1
1
1
1
1
1
1
1
1
1.22584
2.43065
2.69812
2.71822
2.72609
2.73137
2.71378
2.71904
2.75513
2.80124
2.80298
2.78496
2.66055
2.64729
2.67658
2.78175
2.84439
2.826
2.7538
2.61123
1
1
1
1
1
1
1
1
1
1
1
1
1
1
1
1
1
1
1
1
1.194
2.41525
2.71059
2.71915
2.71781
2.70586
2.68005
2.70367
2.77338
2.81069
2.80375
2.66035
2.60147
2.62886
2.78328
2.91207
2.89311
2.78058
2.54597
2.5083
1
1
1
1
1
1
1
1
1
1
1
1
1
1
1
1
1
1
1
1
1.14779
2.39497
2.70643
2.71074
2.7183
2.67503
2.66379
2.69038
2.76113
2.78995
2.70239
2.6394
2.64566
2.74738
2.86539
2.87235
2.80663
2.57793
2.52589
2.52573
1
1
1
1
1
1
1
1
1
1
1
1
1
1
1
1
1
1
1
1
1.10058
2.37082
2.69747
2.69282
2.68207
2.67918
2.6981
2.7525
2.75684
2.72162
2.66422
2.67017
2.75412
2.86611
2.85786
2.80074
2.55097
2.52617
2.56705
2.58959
1
1
1
1
1
1
1
1
1
1
1
1
1
1
1
1
1
1
1
1
1.06061
2.34269
2.68886
2.66716
2.65379
2.68397
2.76475
2.78254
2.76055
2.67816
2.64337
2.72623
2.85983
2.89437
2.87535
2.61668
2.48928
2.48794
2.56492
2.64679
1
1
1
1
1
1
1
1
1
1
1
1
1
1
1
1
1
1
1
1
1.03023
2.31332
2.67421
2.65673
2.66785
2.7301
2.76254
2.77594
2.74788
2.7077
2.75327
2.82655
2.84437
2.83261
2.63946
2.5942
2.557
2.54232
2.65486
2.77338
1
1
1
1
1
1
1
1
1
1
1
1
1
1
1
1
1
1
1
1
1.0059
2.28897
2.66739
2.66697
2.71361
2.73428
2.73961
2.74361
2.70886
2.73874
2.81084
2.82883
2.82428
2.66237
2.53435
2.58404
2.69723
2.8378
2.82569
2.79832
1
1
1
1
1
1
1
1
1
1
1
1
1
1
1
1
1
1
1
1
1.00091
2.26957
2.6714
2.69773
2.71992
2.7322
2.73697
2.68739
2.67274
2.72499
2.7976
2.8275
2.74655
2.58085
2.55168
2.62052
2.85854
2.88251
2.85039
2.79973
1
1
1
1
1
1
1
1
1
1
1
1
1
1
1
1
1
1
1
1
1.00004
2.25648
2.69334
2.70526
2.71372
2.72381
2.69658
2.647
2.65824
2.70713
2.75879
2.76171
2.65483
2.60379
2.62902
2.82533
2.84981
2.86123
2.76041
2.62113
1
1
1
1
1
1
1
1
1
1
1
1
1
1
1
1
1
1
1
1
0.999995
2.21876
2.69883
2.70791
2.70678
2.68988
2.65871
2.65809
2.68091
2.74071
2.74262
2.6439
2.6292
2.66212
2.8312
2.86667
2.8453
2.66952
2.51099
2.53212
1
1
1
1
1
1
1
1
1
1
1
1
1
1
1
1
1
1
1
1
0.999996
2.17058
2.68995
2.70669
2.69571
2.6599
2.63837
2.67939
2.76697
2.77365
2.71035
2.61193
2.64183
2.7986
2.87012
2.85332
2.67514
2.48812
2.48824
2.50949
1
1
1
1
1
1
1
1
1
1
1
1
1
1
1
1
1
1
1
1
0.999999
2.11584
2.67557
2.67645
2.67232
2.66704
2.68354
2.75241
2.77392
2.77044
2.69832
2.62543
2.70233
2.8389
2.85674
2.81715
2.57094
2.46902
2.50844
2.57085
1
1
1
1
1
1
1
1
1
1
1
1
1
1
1
1
1
1
1
1
1
2.06123
2.65288
2.66099
2.66562
2.68725
2.75273
2.75983
2.7539
2.74649
2.68117
2.69496
2.79357
2.82493
2.83502
2.66333
2.56832
2.53385
2.64081
2.74718
1
1
1
1
1
1
1
1
1
1
1
1
1
1
1
1
1
1
1
1
1
2.00326
2.63678
2.65246
2.66984
2.72626
2.75294
2.76945
2.76806
2.67697
2.67224
2.77847
2.79452
2.78915
2.61376
2.56848
2.6138
2.70152
2.73791
2.75029
1
1
1
1
1
1
1
1
1
1
1
1
1
1
1
1
1
1
1
1
1
1.94495
2.61847
2.67756
2.71883
2.72932
2.73381
2.74546
2.67222
2.65856
2.70257
2.777
2.79147
2.68844
2.51066
2.53491
2.62326
2.73869
2.72709
2.72027
1
1
1
1
1
1
1
1
1
1
1
1
1
1
1
1
1
1
1
1
1
1.89724
2.61967
2.70589
2.72265
2.72668
2.72471
2.65129
2.63392
2.65754
2.74086
2.7583
2.76802
2.63347
2.51172
2.54462
2.64534
2.75677
2.70537
2.57545
1
1
1
1
1
1
1
1
1
1
1
1
1
1
1
1
1
1
1
1
1
1.83015
2.6107
2.69964
2.7166
2.72432
2.66589
2.62199
2.63108
2.69046
2.7659
2.75626
2.70888
2.59667
2.53769
2.60716
2.78302
2.76718
2.63886
2.49149
1
1
1
1
1
1
1
1
1
1
1
1
1
1
1
1
1
1
1
1
1
1.75461
2.5782
2.68431
2.69201
2.6644
2.6537
2.64212
2.6818
2.75427
2.76382
2.76481
2.64444
2.63458
2.73403
2.8142
2.80981
2.74746
2.51506
2.4532
1
1
1
1
1
1
1
1
1
1
1
1
1
1
1
1
1
1
1
1
1
1.68639
2.54417
2.66093
2.64186
2.64148
2.64602
2.70184
2.76154
2.75353
2.7363
2.64998
2.63192
2.68401
2.79969
2.82062
2.78533
2.66417
2.48173
2.41926
1
1
1
1
1
1
1
1
1
1
1
1
1
1
1
1
1
1
1
1
1
1.60261
2.50862
2.63587
2.62691
2.63887
2.67842
2.75062
2.76303
2.75339
2.7064
2.6017
2.6135
2.70541
2.80533
2.80437
2.77766
2.59116
2.55506
2.63481
1
1
1
1
1
1
1
1
1
1
1
1
1
1
1
1
1
1
1
1
1
1.49674
2.46024
2.61664
2.62054
2.66242
2.72987
2.7449
2.75294
2.73444
2.61942
2.59724
2.58396
2.73415
2.76914
2.76122
2.54352
2.56879
2.68685
2.76717
1
1
1
1
1
1
1
1
1
1
1
1
1
1
1
1
1
1
1
1
1
1.35381
2.40315
2.60062
2.65053
2.70376
2.72469
2.73732
2.72176
2.63647
2.62401
2.62198
2.74867
2.72578
2.71811
2.45986
2.45853
2.5325
2.65331
2.69266
1
1
1
1
1
1
1
1
1
1
1
1
1
1
1
1
1
1
1
1
1
1.2247
2.36205
2.6289
2.67337
2.6971
2.6997
2.69475
2.61961
2.61413
2.62155
2.74689
2.78889
2.72954
2.53092
2.42613
2.42868
2.45668
2.43558
2.40548
1
1
1
1
1
1
1
1
1
1
1
1
1
1
1
1
1
1
1
1
1
1.09835
2.34035
2.64008
2.65006
2.66583
2.66814
2.6065
2.59725
2.62819
2.72805
2.78309
2.76869
2.70955
2.49781
2.4508
2.44043
2.42619
2.37813
2.34422
1
1
1
1
1
1
1
1
1
1
1
1
1
1
1
1
1
1
1
1
1
1.00538
2.22881
2.61136
2.61666
2.62127
2.61891
2.64173
2.6746
2.70018
2.71664
2.7066
2.68521
2.64687
2.6564
2.69337
2.6741
2.5943
2.44828
2.26215
1
1
1
1
1
1
1
1
1
1
1
1
1
1
1
1
1
1
1
1
1
1.00001
1.94592
2.58298
2.60742
2.61586
2.63222
2.64801
2.65522
2.65622
2.64925
2.64903
2.65657
2.67875
2.70349
2.70502
2.6676
2.57859
2.46013
2.32032
1
1
1
1
1
1
1
1
1
1
1
1
1
1
1
1
1
1
1
1
1
1
1.48612
2.45922
2.60256
2.61152
2.61735
2.61679
2.61627
2.61892
2.62881
2.63847
2.64406
2.64424
2.64052
2.61954
2.57789
2.51848
2.44984
2.32444
1
1
1
1
1
1
1
1
1
1
1
1
1
1
1
1
1
1
1
1
1
1
1.04651
2.265
2.60328
2.59986
2.59905
2.59627
2.59788
2.60314
2.60579
2.60533
2.60171
2.59573
2.58773
2.57102
2.53885
2.47742
2.40175
2.2932
1
1
1
1
1
1
1
1
1
1
1
1
1
1
1
1
1
1
1
1
1
1
1.00026
1.91093
2.53046
2.5843
2.58698
2.58588
2.58186
2.5771
2.57202
2.56929
2.5666
2.5622
2.55379
2.53604
2.50328
2.44766
2.38252
2.29718
1
1
1
1
1
1
1
1
1
1
1
1
1
1
1
1
1
1
1
1
1
1
0.999999
1.31897
2.3516
2.55923
2.56659
2.57048
2.56374
2.55428
2.54776
2.54386
2.53838
2.52998
2.51598
2.49598
2.46343
2.42336
2.3713
2.30134
1
1
1
1
1
1
1
1
1
1
1
1
1
1
1
1
1
1
1
1
1
1
1
1.01677
2.09972
2.50668
2.53785
2.54829
2.54516
2.53725
2.5282
2.51936
2.50941
2.49922
2.48458
2.46512
2.4316
2.39326
2.34603
2.2913
1
1
1
1
1
1
1
1
1
1
1
1
1
1
1
1
1
1
1
1
1
1
1
1.00002
1.49073
2.34738
2.50474
2.51856
2.52417
2.51948
2.50919
2.49773
2.48659
2.47554
2.46086
2.44113
2.40946
2.37032
2.32408
2.27854
1
1
1
1
1
1
1
1
1
1
1
1
1
1
1
1
1
1
1
1
1
1
1
1
1.04285
2.10898
2.4672
2.48806
2.49855
2.49497
2.48683
2.47661
2.46513
2.45195
2.43694
2.41914
2.3928
2.35872
2.31963
2.27777
1
1
1
1
1
1
1
1
1
1
1
1
1
1
1
1
1
1
1
1
1
1
1
1
1.0002
1.47295
2.30874
2.45663
2.46279
2.46686
2.46224
2.45411
2.4428
2.42827
2.41244
2.39568
2.37488
2.34764
2.31425
2.27678
1
1
1
1
1
1
1
1
1
1
1
1
1
1
1
1
1
1
1
1
1
1
1
1
1
1.03809
2.03479
2.41498
2.44594
2.44417
2.43967
2.43199
2.42087
2.40557
2.38822
2.37077
2.35217
2.3295
2.3024
2.2706
1
1
1
1
1
1
1
1
1
1
1
1
1
1
1
1
1
1
1
1
1
1
1
1
1
1.00019
1.3115
2.22616
2.41634
2.41259
2.41488
2.40967
2.39982
2.38488
2.36774
2.34895
2.32868
2.30724
2.28391
2.25729
1
1
1
1
1
1
1
1
1
1
1
1
1
1
1
1
1
1
1
1
1
1
1
1
1
1
1.01401
1.86018
2.34213
2.39244
2.39011
2.38696
2.37924
2.36596
2.35014
2.33125
2.30993
2.28792
2.26602
2.24289
1
1
1
1
1
1
1
1
1
1
1
1
1
1
1
1
1
1
1
1
1
1
1
1
1
1
1.00004
1.18445
2.09879
2.36375
2.36347
2.36337
2.35938
2.35037
2.33688
2.31894
2.2977
2.27561
2.25431
2.23223
1
1
1
1
1
1
1
1
1
1
1
1
1
1
1
1
1
1
1
1
1
1
1
1
1
1
1
1.00443
1.46173
2.19967
2.33741
2.32954
2.33135
2.32793
2.31926
2.30485
2.28573
2.26477
2.24411
2.22317
1
1
1
1
1
1
1
1
1
1
1
1
1
1
1
1
1
1
1
1
1
1
1
1
1
1
1
1.00001
1.03747
1.8629
2.27556
2.30523
2.30191
2.29972
2.29543
2.28662
2.27297
2.25589
2.23717
2.21762
1
1
1
1
1
1
1
1
1
1
1
1
1
1
1
1
1
1
1
1
1
1
1
1
1
1
1
1
1.00024
1.20847
2.02329
2.27825
2.27455
2.27119
2.26798
2.26263
2.25412
2.24207
2.22746
2.21086
1
1
1
1
1
1
1
1
1
1
1
1
1
1
1
1
1
1
1
1
1
1
1
1
1
1
1
1
1
1.00591
1.40356
2.09861
2.25217
2.24352
2.24004
2.23537
2.22963
2.22135
2.21096
2.1983
1
1
1
1
1
1
1
1
1
1
1
1
1
1
1
1
1
1
1
1
1
1
1
1
1
1
1
1
1
1.00002
1.02767
1.6083
2.13994
2.23039
2.21616
2.21048
2.2052
2.19799
2.18969
2.1794
1
1
1
1
1
1
1
1
1
1
1
1
1
1
1
1
1
1
1
1
1
1
1
1
1
1
1
1
1
1
1.0002
1.08524
1.78851
2.1655
2.20731
2.19433
2.18458
2.1752
2.16648
2.15694
1
1
1
1
1
1
1
1
1
1
1
1
1
1
1
1
1
1
1
1
1
1
1
1
1
1
1
1
1
1
1
1.00124
1.18984
1.88969
2.17336
2.17982
2.16868
2.15744
2.14687
2.13666
1
1
1
1
1
1
1
1
1
1
1
1
1
1
1
1
1
1
1
1
1
1
1
1
1
1
1
1
1
1
1
1
1.00542
1.29942
1.94951
2.15591
2.15412
2.14244
2.13167
2.12159
1
1
1
1
1
1
1
1
1
1
1
1
1
1
1
1
1
1
1
1
1
1
1
1
1
1
1
1
1
1
1
1
1.00002
1.01455
1.39589
1.97736
2.1336
2.1305
2.11875
2.10889
1
1
1
1
1
1
1
1
1
1
1
1
1
1
1
1
1
1
1
1
1
1
1
1
1
1
1
1
1
1
1
1
1
1.00009
1.02873
1.46811
1.98634
2.1124
2.1089
2.09748
1
1
1
1
1
1
1
1
1
1
1
1
1
1
1
1
1
1
1
1
1
1
1
1
1
1
1
1
1
1
1
1
1
1
1.00024
1.04526
1.51441
1.98244
2.09146
2.08835
1
1
1
1
1
1
1
1
1
1
1
1
1
1
1
1
1
1
1
1
1
1
1
1
1
1
1
1
1
1
1
1
1
1
1
1.00049
1.06021
1.53601
1.97048
2.07081
1
1
1
1
1
1
1
1
1
1
1
1
1
1
1
1
1
1
1
1
1
1
1
1
1
1
1
1
1
1
1
1
1
1
1
1
1.00078
1.07029
1.53849
1.96857
1
1
1
1
1
1
1
1
1
1
1
1
1
1
1
1
1
1
1
1
1
1
1
1
1
1
1
1
1
1
1
1
1
1
1
1
1
1.00107
1.07318
1.6307
1
1
1
1
1
1
1
1
1
1
1
1
1
1
1
1
1
1
1
1
1
1
1
1
1
1
1
1
1
1
1
1
1
1
1
1
1
1
1.00103
1.11583
1
1
1
1
1
1
1
1
1
1
1
1
1
1
1
1
1
1
1
1
1
1
1
1
1
1
1
1
1
1
1
1
1
1
1
1
1
1
1
1.00211
1
1
1
1
1
1
1
1
1
1
1
1
1
1
1
1
1
1
1
1
1
1
1
1
1
1
1
1
1
1
1
1
1
1
1
1
1
1
1
1
1
1
1
1
1
1
1
1
1
1
1
1
1
1
1
1
1
1
1
1
1
1
1
1
1
1
1
1
1
1
1
1
1
1
1
1
1
1
1
1
1
1
1
1
1
1
1
1
1
1
1
1
1
1
1
1
1
1
1
1
1
1
1
1
1
1
1
1
1
1
1
1
1
1
1
1
1
1
1
1
1
1
1
1
1
1
1
1
1
1
1
1
1
1
1
1
1
1
1
1
1
1
1
1
1
1
1
1
1
1
1
1
1
1
1
1
1
1
1
1
1
1
1
1
1
1
1
1
1
1
1
1
1
1
1
1
1
1
1
1
1
1
1
1
1
1
1
1
1
1
1
1
1
1
1
1
1
1
1
1
1
1
1
1
1
1
1
1
1
1
1
1
1
1
1
1
1
1
1
1
1
1
1
1
1
1
1
1
1
1
1
1
1
1
1
1
1
1
1
1
1
1
1
1
1
1
1
1
1
1
1
1
1
1
1
1
1
1
1
1
1
1
1
1
1
1
1
1
1
1
1
1
1
1
1
1
1
1
1
1
1
1
1
1
1
1
1
1
1
1
1
1
1
1
1
1
1
1
1
1
1
1
1
1
1
1
1
1
1
1
1
1
1
1
1
1
1
1
1
1
1
1
1
1
1
1
1
1
1
1
1
1
1
1
1
1
1
1
1
1
1
1
1
1
1
1
1
1
1
1
1
1
1
1
1
1
1
1
1
1
1
1
1
1
1
1
1
1
1
1
1
1
1
1
1
1
1
1
1
1
1
1
1
1
1
1
1
1
1
1
1
1
1
1
1
1
1
1
1
1
1.47479
1.55743
1.60423
1.66861
1.75044
1.82071
1.82107
1.82397
1.816
1.80616
1.80244
1.7942
1.77808
2.38762
2.86039
2.8081
2.75651
2.71246
2.68524
2.66107
2.632
2.59526
2.55216
2.50396
2.45445
2.40761
2.3709
2.3378
2.30538
2.27286
2.23516
2.19363
2.15494
2.12142
2.09415
2.07256
2.05469
2.0325
2.00439
1.96996
1.98983
1.65613
1.56136
1.6089
1.69146
1.74577
1.76162
1.77454
1.77054
1.77104
1.76809
1.75883
1.7465
2.3142
2.82506
2.76617
2.71058
2.66676
2.63581
2.61257
2.59154
2.56519
2.53025
2.48611
2.43651
2.38825
2.34935
2.31587
2.28576
2.25793
2.22715
2.19086
2.15216
2.11718
2.08816
2.06499
2.04444
2.02368
2.00256
1.97039
1.97073
1.64904
1.48892
1.52999
1.57636
1.62165
1.66186
1.67958
1.67892
1.6844
1.68991
1.68915
1.69053
2.16415
2.69124
2.64951
2.60372
2.57186
2.544
2.51932
2.49939
2.48165
2.45892
2.42812
2.39002
2.34977
2.31035
2.27423
2.24463
2.21817
2.19288
2.16596
2.13608
2.10353
2.07174
2.0448
2.02198
2.00108
1.98618
1.96316
1.98507
1.69406
1.4953
1.47831
1.46335
1.48586
1.53099
1.56624
1.5879
1.59167
1.59398
1.5997
1.61518
1.96626
2.5373
2.51771
2.4756
2.45181
2.43263
2.41189
2.39411
2.37746
2.35935
2.33908
2.31355
2.2835
2.25109
2.21848
2.19074
2.16723
2.14565
2.12475
2.10173
2.07391
2.0424
2.01214
1.98673
1.96768
1.95854
1.94249
2.04297
1.75412
1.54055
1.45918
1.40425
1.41603
1.44136
1.47217
1.50534
1.52886
1.54102
1.53987
1.58041
1.87691
2.3594
2.44658
2.40037
2.37455
2.35909
2.33657
2.31498
2.29741
2.28124
2.26329
2.24226
2.21885
2.19083
2.16043
2.13211
2.1091
2.09161
2.07649
2.05921
2.03653
2.00681
1.97346
1.9455
1.92967
1.92437
1.91187
2.09299
1.81775
1.61389
1.49247
1.39515
1.3982
1.39717
1.41481
1.45123
1.48218
1.49576
1.50605
1.6181
1.86161
2.19331
2.38259
2.36763
2.34084
2.32066
2.29851
2.27442
2.25166
2.23161
2.21241
2.19339
2.17351
2.15005
2.12274
2.09312
2.06694
2.04881
2.03474
2.01939
1.99921
1.97229
1.94112
1.91372
1.89762
1.89123
1.87807
2.12168
1.87114
1.68596
1.54496
1.43084
1.40323
1.38323
1.38579
1.41172
1.44776
1.46533
1.49302
1.71407
1.89623
2.05836
2.31543
2.35571
2.33014
2.30772
2.28673
2.26015
2.23325
2.2094
2.18715
2.16736
2.14842
2.12734
2.10322
2.07491
2.04575
2.02124
2.00253
1.98563
1.96602
1.94231
1.91644
1.89216
1.87362
1.86344
1.84665
2.13806
1.91567
1.74713
1.60612
1.49252
1.42804
1.37917
1.38165
1.38713
1.41017
1.44224
1.50617
1.81603
1.93515
1.9644
2.21194
2.33362
2.32256
2.30174
2.28187
2.25599
2.2275
2.20145
2.17642
2.15402
2.13413
2.11456
2.0933
2.06689
2.03511
2.00367
1.97966
1.96067
1.94238
1.92189
1.90103
1.87985
1.85868
1.84499
1.82347
2.15251
1.95103
1.80221
1.66051
1.55155
1.46906
1.39502
1.39086
1.38135
1.38814
1.42158
1.55189
1.88245
1.96355
1.95778
2.06598
2.28581
2.31107
2.29304
2.27274
2.24829
2.22296
2.19649
2.16954
2.14406
2.122
2.10358
2.08297
2.05799
2.02723
1.99245
1.96197
1.93788
1.92067
1.90686
1.89131
1.87424
1.85244
1.831
1.80165
2.16523
1.98548
1.85011
1.7064
1.60198
1.51504
1.43221
1.40826
1.3801
1.38109
1.40112
1.62696
1.90433
1.9682
1.9549
1.96552
2.1719
2.27679
2.2812
2.25726
2.23351
2.21143
2.18669
2.16046
2.13413
2.10988
2.08685
2.06514
2.04398
2.01724
1.98521
1.95223
1.92692
1.90899
1.89759
1.8888
1.87264
1.84682
1.8188
1.78563
2.17367
2.01699
1.88631
1.74613
1.64697
1.55241
1.4759
1.43182
1.38398
1.38359
1.42372
1.71108
1.87597
1.95116
1.94355
1.92683
2.02927
2.21947
2.25841
2.2343
2.21164
2.19093
2.16892
2.14588
2.12107
2.09502
2.06975
2.0475
2.02588
2.00367
1.97778
1.94796
1.92095
1.90279
1.89012
1.87787
1.86234
1.83862
1.80982
1.77565
2.17289
2.03801
1.91099
1.7796
1.6865
1.58631
1.52038
1.46424
1.40064
1.39156
1.47099
1.78261
1.84236
1.89426
1.91357
1.9071
1.93176
2.11383
2.21635
2.21182
2.18783
2.1664
2.14644
2.1265
2.10436
2.07918
2.05342
2.03001
2.00838
1.98838
1.96715
1.94257
1.91732
1.89667
1.88024
1.86479
1.84758
1.82537
1.80151
1.76991
2.16876
2.05069
1.92741
1.80842
1.71819
1.61918
1.56071
1.49486
1.42512
1.40962
1.56079
1.84122
1.84613
1.84066
1.85967
1.87581
1.88187
1.98322
2.15145
2.19073
2.16538
2.14076
2.1206
2.10283
2.08383
2.06218
2.03831
2.01437
1.99305
1.97446
1.95625
1.93597
1.91263
1.88852
1.86719
1.84816
1.83016
1.80987
1.79086
1.76461
2.1627
2.05833
1.93978
1.83451
1.7435
1.6507
1.59553
1.52449
1.45942
1.45278
1.67457
1.86738
1.85343
1.83013
1.81413
1.82561
1.83408
1.87591
2.04999
2.15088
2.14469
2.11823
2.0956
2.07756
2.06075
2.04261
2.0223
2.0003
1.9792
1.96055
1.94335
1.92531
1.90371
1.87824
1.85246
1.83079
1.81206
1.79366
1.7801
1.75828
2.15796
2.0634
1.95017
1.85784
1.76522
1.68231
1.62692
1.55083
1.49096
1.52703
1.7901
1.87498
1.85749
1.82422
1.79273
1.77722
1.78136
1.79792
1.91267
2.0813
2.12477
2.10061
2.07629
2.05566
2.03906
2.0229
2.00565
1.98605
1.96502
1.94464
1.92574
1.90785
1.88811
1.86444
1.83809
1.81423
1.79492
1.77914
1.76919
1.75003
2.15622
2.06802
1.96106
1.87861
1.78308
1.71447
1.65349
1.57519
1.52244
1.64489
1.88916
1.88181
1.85719
1.82258
1.78543
1.75263
1.73481
1.73704
1.78323
1.9654
2.08082
2.08626
2.06078
2.03681
2.0189
2.00314
1.98753
1.96977
1.94848
1.92583
1.90494
1.88632
1.86775
1.84695
1.82336
1.79973
1.78033
1.76678
1.75803
1.73982
2.15533
2.07116
1.97296
1.89626
1.80168
1.74462
1.67321
1.59735
1.56552
1.78488
1.94703
1.91295
1.86853
1.82508
1.78097
1.74233
1.71201
1.69164
1.69772
1.8055
1.99754
2.06147
2.04541
2.02347
2.00218
1.98418
1.96783
1.95059
1.92948
1.90555
1.88292
1.86383
1.8467
1.82872
1.80811
1.78613
1.7676
1.75464
1.74546
1.7272
2.15247
2.07228
1.98618
1.91042
1.82195
1.76966
1.68801
1.62139
1.64565
1.90848
1.96666
1.93461
1.88303
1.82963
1.77842
1.73542
1.69953
1.67286
1.6501
1.67426
1.85347
2.01046
2.03401
2.01213
1.9873
1.96542
1.94683
1.92902
1.90872
1.88541
1.86217
1.84263
1.82639
1.81084
1.79341
1.77374
1.75558
1.74112
1.73085
1.7123
2.14297
2.07025
1.99735
1.91831
1.84224
1.78681
1.70158
1.6469
1.76839
2.00299
1.98285
1.94544
1.8942
1.83794
1.78416
1.73376
1.69153
1.6572
1.63192
1.61251
1.68148
1.89877
2.00128
1.99522
1.9736
1.94959
1.9263
1.90658
1.88775
1.86581
1.84332
1.82411
1.8088
1.79517
1.7801
1.76192
1.74281
1.72592
1.71387
1.69485
2.12613
2.06271
2.00006
1.91962
1.86095
1.7963
1.7146
1.68136
1.91076
2.05318
2.00812
1.95499
1.90016
1.84294
1.78818
1.73722
1.68881
1.64903
1.61629
1.59055
1.58322
1.72118
1.92263
1.97248
1.95878
1.93742
1.91112
1.88703
1.86662
1.84672
1.82649
1.8083
1.7936
1.78083
1.76685
1.74926
1.72901
1.70939
1.6953
1.67568
2.10707
2.05089
1.99591
1.92149
1.87646
1.7996
1.72845
1.75393
2.02841
2.07032
2.02748
1.96483
1.90314
1.84608
1.79185
1.7402
1.69085
1.6464
1.60823
1.57607
1.55018
1.57384
1.77427
1.92916
1.94094
1.92358
1.89788
1.87163
1.84938
1.82948
1.81113
1.79485
1.78032
1.76718
1.7529
1.73531
1.71485
1.69319
1.6765
1.6565
2.08982
2.03879
1.98562
1.92428
1.88254
1.80038
1.74278
1.87791
2.10542
2.08228
2.0345
1.97051
1.9065
1.8488
1.79474
1.7426
1.69285
1.64702
1.60531
1.57053
1.54078
1.52033
1.59603
1.81903
1.91264
1.90704
1.88535
1.85926
1.83408
1.8161
1.8011
1.78601
1.77056
1.75447
1.73865
1.72086
1.70074
1.67875
1.66105
1.64138
2.07608
2.0286
1.97415
1.92864
1.87958
1.80234
1.76946
2.03056
2.15152
2.09972
2.038
1.97221
1.90812
1.85031
1.79585
1.74404
1.69544
1.65074
1.60877
1.57127
1.53666
1.50994
1.5025
1.64983
1.8543
1.88739
1.87397
1.84812
1.82134
1.80018
1.78282
1.7681
1.75401
1.73968
1.7248
1.70669
1.68577
1.6642
1.64807
1.63106
2.06526
2.02022
1.96714
1.93334
1.86948
1.8038
1.84436
2.15007
2.16371
2.10935
2.03721
1.96999
1.90883
1.85176
1.79684
1.74438
1.69628
1.65259
1.61141
1.57315
1.53781
1.50499
1.48164
1.50891
1.71331
1.85166
1.85762
1.83759
1.80994
1.78799
1.77052
1.75472
1.74134
1.7302
1.71555
1.69605
1.67476
1.65352
1.63926
1.62327
2.0575
2.01384
1.96802
1.93143
1.85466
1.80831
1.98031
2.21414
2.17255
2.10625
2.03318
1.96792
1.90921
1.85188
1.79583
1.74416
1.69797
1.65568
1.61619
1.57788
1.54121
1.50558
1.47678
1.46125
1.54412
1.75651
1.82665
1.8204
1.79968
1.77827
1.75968
1.74457
1.73205
1.71733
1.70051
1.68545
1.6707
1.65272
1.6391
1.61929
2.05304
2.00927
1.97038
1.92276
1.84478
1.83627
2.14411
2.25014
2.17938
2.09892
2.02762
1.96513
1.90689
1.84976
1.79481
1.74499
1.70021
1.65821
1.6186
1.58088
1.54556
1.51175
1.47563
1.45165
1.4495
1.59495
1.78217
1.80809
1.7913
1.76934
1.74944
1.73572
1.72338
1.70858
1.69261
1.67844
1.66278
1.64617
1.63108
1.607
2.04442
2.00621
1.96633
1.90515
1.84829
1.93147
2.25196
2.24758
2.17271
2.09085
2.02352
1.96328
1.90482
1.84748
1.79408
1.74622
1.7026
1.66108
1.62149
1.58387
1.54775
1.51512
1.4813
1.44826
1.42846
1.45961
1.65695
1.78055
1.78339
1.76404
1.74303
1.7279
1.71409
1.70224
1.69156
1.67648
1.65775
1.63878
1.62168
1.59628
2.03498
2.00474
1.95398
1.88074
1.85963
2.09848
2.29702
2.23289
2.1598
2.08714
2.02312
1.96225
1.9025
1.84599
1.79506
1.74916
1.70574
1.66367
1.62379
1.58669
1.55082
1.51739
1.48521
1.45044
1.42519
1.41228
1.50344
1.6948
1.76394
1.75754
1.73934
1.72138
1.70678
1.69576
1.68271
1.66668
1.64821
1.62979
1.61234
1.58636
2.00039
1.98639
1.93616
1.87177
1.8992
2.2517
2.30152
2.2221
2.15021
2.08568
2.0237
1.96209
1.90188
1.84728
1.79883
1.7535
1.70927
1.66626
1.62548
1.58763
1.55189
1.5186
1.48848
1.45779
1.42416
1.40203
1.4098
1.55973
1.72534
1.74916
1.73805
1.71655
1.69902
1.68616
1.67275
1.65765
1.63971
1.62185
1.60346
1.57807
1.92592
1.9847
1.93954
1.88246
2.02867
2.31476
2.28718
2.21493
2.14822
2.08729
2.02512
1.96254
1.90398
1.852
1.80446
1.7583
1.71253
1.66836
1.62716
1.58907
1.5535
1.51998
1.4892
1.46061
1.42855
1.39884
1.37815
1.4236
1.6162
1.71831
1.72043
1.70802
1.69139
1.67541
1.66041
1.64591
1.6291
1.61236
1.59371
1.57215
1.71098
1.99229
1.95405
1.90721
2.19934
2.34238
2.27989
2.21644
2.15279
2.08948
2.02514
1.96215
1.90603
1.85668
1.80989
1.76319
1.7169
1.67214
1.62941
1.58919
1.55241
1.51901
1.48932
1.46203
1.43245
1.39899
1.37208
1.36066
1.47394
1.65862
1.7004
1.69575
1.68142
1.66384
1.64737
1.63297
1.61775
1.60202
1.58419
1.56941
1.39018
1.96665
1.95363
2.01421
2.33939
2.36137
2.28621
2.22341
2.15927
2.09132
2.02359
1.96207
1.90871
1.86079
1.81439
1.76734
1.72059
1.67573
1.63272
1.59184
1.55411
1.5196
1.48845
1.45994
1.43321
1.40159
1.36641
1.34273
1.36435
1.53039
1.66162
1.6793
1.66901
1.65104
1.63408
1.61946
1.60626
1.59115
1.57604
1.58076
1.1127
1.84315
1.9214
2.19632
2.41657
2.36687
2.29313
2.22828
2.15905
2.08867
2.02218
1.96294
1.91076
1.86264
1.81674
1.77175
1.72695
1.68227
1.63763
1.59433
1.55456
1.51973
1.48904
1.45927
1.43027
1.39959
1.36481
1.33734
1.32365
1.39161
1.5716
1.64222
1.64623
1.63543
1.62056
1.60575
1.59378
1.57839
1.57111
1.62534
1.01438
1.71354
1.8861
2.35976
2.42672
2.36255
2.29287
2.22685
2.1549
2.08479
2.021
1.96505
1.91413
1.86567
1.81977
1.77717
1.73518
1.6908
1.64412
1.59836
1.55628
1.51901
1.48692
1.45697
1.42662
1.39687
1.36506
1.33258
1.31232
1.31599
1.43735
1.5976
1.62916
1.62124
1.60731
1.59309
1.58136
1.57035
1.57575
1.71634
0.999645
1.50602
1.97985
2.44943
2.42454
2.35293
2.28852
2.22232
2.15111
2.08409
2.02516
1.9722
1.92134
1.87168
1.82484
1.78236
1.74227
1.69921
1.65123
1.60323
1.56018
1.5217
1.48612
1.45274
1.42129
1.39185
1.36344
1.33234
1.30784
1.29451
1.32768
1.49517
1.59629
1.60813
1.59802
1.58597
1.56958
1.57269
1.62625
1.80714
0.999854
1.29866
2.04627
2.50036
2.42031
2.34815
2.28705
2.22078
2.15394
2.09301
2.03909
1.98786
1.9359
1.88403
1.83539
1.79052
1.74784
1.70487
1.65833
1.6089
1.56361
1.52406
1.48602
1.45007
1.41808
1.38774
1.36265
1.33824
1.30884
1.28695
1.28325
1.37057
1.52891
1.58014
1.57691
1.56908
1.5659
1.602
1.74273
1.85788
0.99995
1.14177
2.14398
2.55977
2.44932
2.37434
2.30898
2.2405
2.17629
2.11973
2.06455
2.00879
1.95325
1.89944
1.84873
1.80069
1.75438
1.70881
1.66339
1.61633
1.56856
1.52459
1.48754
1.45316
1.41858
1.38542
1.35854
1.33514
1.30929
1.28335
1.26779
1.28684
1.42065
1.54822
1.56442
1.55951
1.58419
1.70183
1.8374
1.85677
0.99999
1.10517
2.32817
2.6373
2.51891
2.43896
2.36191
2.28791
2.21755
2.15314
2.0914
2.03104
1.97306
1.91823
1.86543
1.81332
1.76156
1.71179
1.66542
1.62069
1.57339
1.52936
1.48899
1.45
1.41468
1.38365
1.35666
1.33362
1.31044
1.28375
1.2653
1.25815
1.30886
1.46934
1.52622
1.56551
1.67709
1.8196
1.87263
1.85717
0.999998
1.29153
2.50762
2.72769
2.61772
2.51533
2.42062
2.33766
2.25841
2.1839
2.11436
2.04924
1.98863
1.93367
1.88211
1.82612
1.76857
1.71501
1.66625
1.62221
1.58456
1.5413
1.49507
1.45075
1.41317
1.38702
1.36291
1.3395
1.3174
1.29405
1.27058
1.25019
1.25545
1.35809
1.5094
1.6408
1.77514
1.85214
1.86889
1.85178
0.999999
1.47107
2.61119
2.77482
2.67373
2.56465
2.46225
2.36322
2.2774
2.19758
2.12369
2.0572
1.99761
1.93972
1.87996
1.82195
1.76507
1.71106
1.6644
1.62403
1.5801
1.53423
1.488
1.44686
1.4123
1.38282
1.35569
1.33106
1.30928
1.28684
1.26432
1.23834
1.23094
1.27384
1.50511
1.74486
1.8744
1.90016
1.87796
1.84591
)
;

boundaryField
{
    inlet
    {
        type            fixedValue;
        value           uniform 1;
    }
    outlet
    {
        type            inletOutlet;
        inletValue      uniform 1;
        value           nonuniform List<scalar> 
40
(
1.97002
1.97031
1.96356
1.94324
1.91276
1.87893
1.84734
1.82376
1.80153
1.78552
1.77554
1.76996
1.76493
1.75878
1.75061
1.74032
1.72749
1.71236
1.69479
1.6756
1.65653
1.64166
1.63201
1.62423
1.61932
1.60668
1.59586
1.58596
1.57778
1.57196
1.5694
1.58042
1.62445
1.71498
1.80616
1.85753
1.85664
1.85713
1.85162
1.84584
)
;
    }
    top
    {
        type            symmetryPlane;
    }
    bottom
    {
        type            symmetryPlane;
    }
    step
    {
        type            zeroGradient;
    }
    defaultFaces
    {
        type            empty;
    }
}


// ************************************************************************* //
