/*--------------------------------*- C++ -*----------------------------------*\
  =========                 |
  \\      /  F ield         | OpenFOAM: The Open Source CFD Toolbox
   \\    /   O peration     | Website:  https://openfoam.org
    \\  /    A nd           | Version:  6.0
     \\/     M anipulation  |
\*---------------------------------------------------------------------------*/
FoamFile
{
    version     2.0;
    format      ascii;
    class       volVectorField;
    location    "3.00033481";
    object      U;
}
// * * * * * * * * * * * * * * * * * * * * * * * * * * * * * * * * * * * * * //

dimensions      [0 1 -1 0 0 0 0];

internalField   nonuniform List<vector> 
4800
(
(3 2.53326e-16 0)
(3 3.0162e-16 0)
(3 5.71636e-17 0)
(3 -1.58664e-16 0)
(3 3.67904e-16 0)
(3 5.08532e-16 0)
(3 -1.02244e-17 0)
(3 -8.83142e-16 0)
(3 -4.7096e-16 0)
(3 -4.47774e-16 0)
(3 -2.43645e-16 0)
(3 -2.00391e-16 0)
(3 -4.91677e-17 0)
(3 -2.89977e-16 0)
(3 -8.02112e-17 0)
(3 -5.34804e-17 0)
(3 -2.13276e-16 0)
(3 1.13822e-16 0)
(3 -1.34744e-16 0)
(3 -7.53659e-18 0)
(2.37708 0.00160911 0)
(0.86875 -0.00299801 0)
(0.702558 -1.05209e-06 0)
(0.657202 0.0205069 0)
(0.622825 0.0316986 0)
(0.603735 0.0188664 0)
(0.579904 -0.0239651 0)
(0.539767 -0.0449864 0)
(0.48199 -0.0425019 0)
(0.40255 0.0275323 0)
(0.339736 0.0879605 0)
(0.321168 0.104813 0)
(0.324425 0.0609262 0)
(0.323099 -0.0645852 0)
(0.28445 -0.134999 0)
(0.175229 -0.11813 0)
(0.0808376 0.010655 0)
(0.0319533 0.0758528 0)
(0.0515439 0.0601669 0)
(0.0349567 -0.0101018 0)
(3 1.94553e-16 0)
(3 1.02811e-15 0)
(3 3.4101e-16 0)
(3 -6.73848e-17 0)
(3 2.87258e-16 0)
(3 4.58694e-16 0)
(3 -7.13262e-16 0)
(3 -2.0343e-15 0)
(3 -1.59566e-15 0)
(3 -1.47149e-15 0)
(3 -4.19486e-16 0)
(3 -2.17094e-16 0)
(3 6.93072e-17 0)
(3 8.32522e-17 0)
(3 9.60715e-17 0)
(3 -4.53249e-16 0)
(3 -6.18219e-16 0)
(3 -9.58473e-17 0)
(3 1.48417e-16 0)
(3 4.2769e-16 0)
(2.38557 0.0113671 0)
(0.859177 0.00710812 0)
(0.702196 -0.0202254 0)
(0.67585 0.0138366 0)
(0.633565 0.0644702 0)
(0.598297 0.0724325 0)
(0.558591 0.0318637 0)
(0.511737 -0.05019 0)
(0.470294 -0.0967196 0)
(0.441962 -0.0674448 0)
(0.408218 0.0823372 0)
(0.357189 0.235308 0)
(0.317011 0.238513 0)
(0.258938 0.121401 0)
(0.21232 -0.10962 0)
(0.179875 -0.218132 0)
(0.145695 -0.10391 0)
(0.110716 0.159113 0)
(0.072216 0.252854 0)
(0.0302192 0.231445 0)
(3 2.08669e-16 0)
(3 5.41939e-16 0)
(3 7.26674e-16 0)
(3 7.62353e-16 0)
(3 1.8841e-16 0)
(3 2.48456e-16 0)
(3 -5.08084e-16 0)
(3 -8.96235e-16 0)
(3 -7.80539e-16 0)
(3 -1.38526e-15 0)
(3 -8.25248e-16 0)
(3 2.67826e-16 0)
(3 8.74142e-16 0)
(3 4.09199e-16 0)
(3 -7.32892e-17 0)
(3 -5.14004e-16 0)
(3 -7.30788e-16 0)
(3 -7.01251e-16 0)
(3 3.06909e-16 0)
(3 5.76789e-16 0)
(2.39788 0.0171594 0)
(0.844849 0.0201252 0)
(0.708979 0.0176171 0)
(0.681624 0.0374499 0)
(0.64128 0.0492165 0)
(0.589096 0.0462126 0)
(0.533196 0.0253958 0)
(0.487563 -0.0021669 0)
(0.468024 -0.00143183 0)
(0.468923 0.0325876 0)
(0.442776 0.0744716 0)
(0.392919 0.108255 0)
(0.29474 0.096953 0)
(0.197367 0.0357988 0)
(0.151248 -0.0330656 0)
(0.182446 -0.036286 0)
(0.193326 0.0256693 0)
(0.167606 0.106125 0)
(0.0710669 0.110051 0)
(0.0168353 0.0449007 0)
(3 2.20559e-17 0)
(3 -7.85066e-17 0)
(3 3.5884e-16 0)
(3 6.16938e-16 0)
(3 -4.20285e-18 0)
(3 -1.02844e-16 0)
(3 3.41197e-17 0)
(3 6.1343e-16 0)
(3 3.80415e-16 0)
(3 -2.61514e-16 0)
(3 -2.32025e-16 0)
(3 -7.41133e-17 0)
(3 3.01898e-16 0)
(3 -1.98749e-16 0)
(3 -7.44886e-16 0)
(3 -3.59323e-16 0)
(3 -8.60358e-16 0)
(3 -7.36314e-16 0)
(3 3.80703e-16 0)
(3 9.94335e-16 0)
(2.40353 0.027145 0)
(0.846782 0.0385024 0)
(0.706706 0.0612403 0)
(0.680849 0.0420712 0)
(0.640526 0.0203292 0)
(0.592124 0.021888 0)
(0.535889 0.0409507 0)
(0.496248 0.0845238 0)
(0.481433 0.109901 0)
(0.468851 0.0920861 0)
(0.441953 0.0105012 0)
(0.378284 -0.0950553 0)
(0.302869 -0.0947526 0)
(0.211248 0.0131414 0)
(0.173963 0.152735 0)
(0.197827 0.197449 0)
(0.188531 0.131933 0)
(0.146417 -0.00424936 0)
(0.0507569 -0.0755233 0)
(0.0142471 -0.0726972 0)
(3 -3.09528e-16 0)
(3 -6.1659e-16 0)
(3 -3.03707e-16 0)
(3 -4.24649e-17 0)
(3 -1.61178e-16 0)
(3 -1.07545e-16 0)
(3 5.90403e-16 0)
(3 -1.30562e-16 0)
(3 -3.86741e-17 0)
(3 -2.30643e-16 0)
(3 -7.9855e-16 0)
(3 -2.67451e-16 0)
(3 -9.4647e-17 0)
(3 1.69527e-16 0)
(3 1.73625e-16 0)
(3 -3.51026e-16 0)
(3 -4.19934e-16 0)
(3 -5.26467e-16 0)
(3 -5.89551e-17 0)
(3 -3.17679e-16 0)
(2.41275 0.036443 0)
(0.864119 0.0557978 0)
(0.705519 0.0858218 0)
(0.671552 0.0588593 0)
(0.62937 0.0180617 0)
(0.589695 -0.00891201 0)
(0.559387 0.0177702 0)
(0.527589 0.10267 0)
(0.484497 0.176889 0)
(0.440607 0.144215 0)
(0.383611 -0.000411709 0)
(0.343155 -0.141789 0)
(0.313569 -0.181536 0)
(0.287883 -0.0553117 0)
(0.250371 0.211321 0)
(0.186208 0.36744 0)
(0.12634 0.239621 0)
(0.0664025 -0.0355397 0)
(0.0321749 -0.202666 0)
(0.0270597 -0.210645 0)
(3 1.54814e-16 0)
(3 -7.74064e-16 0)
(3 9.58251e-17 0)
(3 -3.16897e-16 0)
(3 8.96637e-17 0)
(3 7.0912e-16 0)
(3 6.55625e-16 0)
(3 5.74279e-17 0)
(3 -1.46405e-16 0)
(3 -5.12141e-16 0)
(3 -7.06787e-16 0)
(3 -2.36248e-16 0)
(3 -6.5743e-17 0)
(3 4.80921e-16 0)
(3 4.61379e-16 0)
(3 3.07095e-16 0)
(3 4.15769e-16 0)
(3 -1.90355e-16 0)
(3 -7.65275e-16 0)
(3 -8.60593e-16 0)
(2.42791 0.0471545 0)
(0.877077 0.0684596 0)
(0.704576 0.0806029 0)
(0.658999 0.0549596 0)
(0.614511 0.0334314 0)
(0.589172 0.0252373 0)
(0.577778 0.0651087 0)
(0.544347 0.0915983 0)
(0.497841 0.0957842 0)
(0.409647 0.0461949 0)
(0.343985 0.00963759 0)
(0.307092 -0.00807093 0)
(0.322655 0.018468 0)
(0.331761 0.0962318 0)
(0.303289 0.150528 0)
(0.194717 0.149986 0)
(0.071134 0.0629542 0)
(0.0016884 0.00378877 0)
(0.0141971 0.00959939 0)
(0.0337178 0.0309606 0)
(3 -1.26563e-16 0)
(3 1.27337e-16 0)
(3 5.58817e-16 0)
(3 6.28777e-16 0)
(3 6.59009e-16 0)
(3 6.854e-16 0)
(3 1.09955e-16 0)
(3 4.65528e-16 0)
(3 -9.85492e-17 0)
(3 2.57208e-16 0)
(3 1.54869e-16 0)
(3 -9.5316e-17 0)
(3 2.14308e-16 0)
(3 7.46264e-16 0)
(3 4.28992e-16 0)
(3 -5.66656e-17 0)
(3 5.75981e-16 0)
(3 2.46771e-16 0)
(3 -1.13221e-15 0)
(3 -2.37104e-16 0)
(2.45611 0.0579042 0)
(0.883422 0.0788761 0)
(0.701128 0.0575267 0)
(0.656314 0.0609793 0)
(0.617465 0.0743757 0)
(0.598358 0.09815 0)
(0.577157 0.0842635 0)
(0.545534 0.052301 0)
(0.486086 -0.00883506 0)
(0.415807 0.0117126 0)
(0.355114 0.076922 0)
(0.330436 0.172857 0)
(0.344158 0.215117 0)
(0.334004 0.172232 0)
(0.287449 0.0136377 0)
(0.175165 -0.137145 0)
(0.0891209 -0.0515207 0)
(0.0153845 0.101882 0)
(0.0191527 0.204452 0)
(0.0384267 0.226988 0)
(3 -4.28271e-16 0)
(3 4.38674e-16 0)
(3 3.52409e-16 0)
(3 3.88551e-16 0)
(3 6.09286e-16 0)
(3 -4.34025e-16 0)
(3 1.21501e-16 0)
(3 5.17281e-16 0)
(3 1.55976e-16 0)
(3 2.8201e-16 0)
(3 7.14206e-16 0)
(3 -3.37401e-16 0)
(3 4.31495e-16 0)
(3 7.37897e-16 0)
(3 6.4163e-16 0)
(3 1.10529e-16 0)
(3 -3.37536e-16 0)
(3 -4.64954e-16 0)
(3 -3.84557e-16 0)
(3 -2.86724e-16 0)
(2.4981 0.067013 0)
(0.880864 0.0848515 0)
(0.698201 0.0464579 0)
(0.671657 0.0588339 0)
(0.636733 0.114237 0)
(0.605453 0.150412 0)
(0.566509 0.141232 0)
(0.514228 0.0559734 0)
(0.468927 -0.0206321 0)
(0.441085 -0.0393763 0)
(0.421044 0.0772057 0)
(0.389276 0.2596 0)
(0.335357 0.359042 0)
(0.273767 0.229902 0)
(0.197938 -0.0502468 0)
(0.177784 -0.185388 0)
(0.136464 -0.127526 0)
(0.11468 0.109635 0)
(0.0896621 0.332623 0)
(0.0355458 0.418118 0)
(3 1.05637e-16 0)
(3 -2.12786e-16 0)
(3 -2.43524e-16 0)
(3 6.83896e-18 0)
(3 -3.1682e-16 0)
(3 -3.0388e-16 0)
(3 2.74718e-16 0)
(3 8.70556e-16 0)
(3 6.12629e-16 0)
(3 2.2778e-16 0)
(3 5.18304e-16 0)
(3 -9.43522e-18 0)
(3 -2.55217e-17 0)
(3 -1.98831e-16 0)
(3 -1.39341e-16 0)
(3 -3.41758e-16 0)
(3 -1.22247e-15 0)
(3 -2.31998e-16 0)
(3 1.18968e-15 0)
(3 4.2963e-16 0)
(2.53653 0.063961 0)
(0.876009 0.0809384 0)
(0.702263 0.0741542 0)
(0.68381 0.107177 0)
(0.651396 0.122523 0)
(0.610613 0.136634 0)
(0.552815 0.106346 0)
(0.491433 0.0690375 0)
(0.453526 0.059836 0)
(0.456472 0.0949475 0)
(0.453795 0.159766 0)
(0.429339 0.189916 0)
(0.344945 0.171165 0)
(0.20267 0.0488848 0)
(0.137753 0.00961337 0)
(0.138397 -0.00637863 0)
(0.173532 0.0288309 0)
(0.173285 0.146428 0)
(0.13442 0.243724 0)
(0.0420902 0.191521 0)
(3 -1.44823e-16 0)
(3 -4.07138e-16 0)
(3 -3.32661e-16 0)
(3 3.11491e-16 0)
(3 -2.54386e-16 0)
(3 2.59126e-16 0)
(3 2.34867e-16 0)
(3 -7.26301e-17 0)
(3 -1.88769e-16 0)
(3 6.46757e-16 0)
(3 5.49521e-17 0)
(3 2.39293e-16 0)
(3 -1.16937e-15 0)
(3 -6.70089e-16 0)
(3 -5.57136e-16 0)
(3 -1.49725e-16 0)
(3 3.66128e-16 0)
(3 9.58472e-16 0)
(3 1.65651e-15 0)
(3 1.39973e-15 0)
(2.57113 0.0630955 0)
(0.878902 0.0885496 0)
(0.710204 0.125059 0)
(0.686001 0.12699 0)
(0.652593 0.115101 0)
(0.612975 0.0918967 0)
(0.554208 0.0790751 0)
(0.493065 0.110371 0)
(0.470804 0.161837 0)
(0.4685 0.206496 0)
(0.457164 0.17441 0)
(0.4137 0.072757 0)
(0.30565 -0.0724755 0)
(0.217997 -0.0196677 0)
(0.158253 0.124177 0)
(0.169452 0.251897 0)
(0.185912 0.270553 0)
(0.169193 0.170253 0)
(0.0900487 0.0172871 0)
(0.0123922 -0.0886432 0)
(3 1.15961e-16 0)
(3 3.14749e-16 0)
(3 -1.90626e-17 0)
(3 2.80315e-16 0)
(3 5.36711e-16 0)
(3 1.74443e-16 0)
(3 1.24722e-16 0)
(3 -2.74428e-16 0)
(3 -2.4633e-16 0)
(3 3.50331e-16 0)
(3 1.67672e-16 0)
(3 -5.27212e-16 0)
(3 -8.52083e-16 0)
(3 2.44121e-17 0)
(3 2.06685e-16 0)
(3 3.98845e-16 0)
(3 1.35241e-15 0)
(3 2.00026e-15 0)
(3 1.34581e-15 0)
(3 4.67727e-16 0)
(2.5991 0.0693543 0)
(0.898955 0.111617 0)
(0.720089 0.15248 0)
(0.687888 0.147788 0)
(0.645306 0.127961 0)
(0.599456 0.0607325 0)
(0.555072 0.0430597 0)
(0.533747 0.0987026 0)
(0.509784 0.20875 0)
(0.468207 0.254929 0)
(0.416773 0.20194 0)
(0.343535 0.000823005 0)
(0.306892 -0.10474 0)
(0.288902 -0.0515663 0)
(0.263549 0.191126 0)
(0.217937 0.412957 0)
(0.149308 0.439503 0)
(0.0907978 0.251872 0)
(0.0191315 -0.0887292 0)
(0.0213684 -0.204902 0)
(3 3.42056e-16 0)
(3 1.5664e-16 0)
(3 -4.74598e-18 0)
(3 -6.37383e-16 0)
(3 5.12762e-16 0)
(3 3.33081e-16 0)
(3 -3.19494e-16 0)
(3 -5.22751e-16 0)
(3 1.16165e-17 0)
(3 6.09121e-16 0)
(3 5.1255e-16 0)
(3 6.46186e-17 0)
(3 2.36256e-16 0)
(3 4.04086e-17 0)
(3 5.34811e-16 0)
(3 8.56827e-16 0)
(3 2.20838e-15 0)
(3 2.0644e-15 0)
(3 9.78349e-16 0)
(3 -8.50641e-16 0)
(2.6295 0.0830398 0)
(0.919709 0.140406 0)
(0.724769 0.159207 0)
(0.689519 0.14987 0)
(0.635407 0.10708 0)
(0.584875 0.0793969 0)
(0.566049 0.0831203 0)
(0.562114 0.149243 0)
(0.53351 0.183294 0)
(0.483262 0.184286 0)
(0.37069 0.0731235 0)
(0.300912 0.0386941 0)
(0.283014 0.0422313 0)
(0.321645 0.14752 0)
(0.324067 0.258302 0)
(0.265108 0.320126 0)
(0.147392 0.315806 0)
(0.00499024 0.124381 0)
(-0.026542 0.0333554 0)
(0.0277262 -0.00140757 0)
(3 -1.10702e-16 0)
(3 -1.92815e-16 0)
(3 -2.61789e-17 0)
(3 4.26977e-16 0)
(3 7.20274e-16 0)
(3 5.89265e-16 0)
(3 -5.14605e-16 0)
(3 -4.00792e-16 0)
(3 -2.37904e-16 0)
(3 -4.76975e-16 0)
(3 3.6678e-16 0)
(3 3.23253e-16 0)
(3 4.32872e-16 0)
(3 5.95992e-16 0)
(3 5.67349e-16 0)
(3 9.10382e-16 0)
(3 1.51412e-15 0)
(3 1.27928e-15 0)
(3 8.1256e-16 0)
(3 4.85737e-16 0)
(2.67327 0.0910973 0)
(0.934695 0.162448 0)
(0.726577 0.150757 0)
(0.683712 0.117785 0)
(0.6303 0.109157 0)
(0.595374 0.127585 0)
(0.584938 0.182609 0)
(0.560333 0.176423 0)
(0.533165 0.138283 0)
(0.447582 0.0485305 0)
(0.3672 0.0609401 0)
(0.319441 0.12829 0)
(0.32372 0.246758 0)
(0.342351 0.291336 0)
(0.328865 0.244871 0)
(0.2505 0.129146 0)
(0.0941256 -0.0291688 0)
(0.0151662 0.0888015 0)
(-0.0528013 0.195513 0)
(0.0240404 0.233894 0)
(3 -1.8787e-16 0)
(3 2.09987e-17 0)
(3 6.70463e-16 0)
(3 8.11408e-16 0)
(3 -3.1618e-16 0)
(3 -5.0665e-16 0)
(3 -1.95365e-16 0)
(3 -2.53823e-17 0)
(3 2.91089e-18 0)
(3 -6.5516e-16 0)
(3 -1.69984e-16 0)
(3 8.19419e-16 0)
(3 1.16106e-15 0)
(3 9.82305e-16 0)
(3 6.31464e-16 0)
(3 -1.00233e-16 0)
(3 -4.78081e-16 0)
(3 -3.01752e-16 0)
(3 1.02468e-15 0)
(3 1.07345e-15 0)
(2.71086 0.0913276 0)
(0.949604 0.163463 0)
(0.715798 0.142882 0)
(0.679254 0.102191 0)
(0.645921 0.10568 0)
(0.627335 0.18722 0)
(0.593251 0.236944 0)
(0.558379 0.236621 0)
(0.49294 0.133067 0)
(0.439548 0.0157954 0)
(0.409456 0.0142576 0)
(0.392553 0.173686 0)
(0.370812 0.359839 0)
(0.333294 0.409897 0)
(0.255936 0.297079 0)
(0.158837 -0.041073 0)
(0.135476 -0.128533 0)
(0.0781916 -0.00167174 0)
(0.0262709 0.227803 0)
(0.0363493 0.349938 0)
(3 9.68402e-17 0)
(3 5.16731e-16 0)
(3 3.31984e-16 0)
(3 4.5995e-18 0)
(3 -4.78978e-16 0)
(3 -9.40431e-16 0)
(3 -4.97427e-16 0)
(3 -1.54149e-16 0)
(3 -4.65318e-16 0)
(3 2.34481e-16 0)
(3 -4.73891e-18 0)
(3 9.23529e-16 0)
(3 7.09414e-16 0)
(3 3.69187e-16 0)
(3 1.9112e-16 0)
(3 4.00696e-16 0)
(3 -3.14441e-16 0)
(3 -7.91875e-16 0)
(3 -1.12909e-15 0)
(3 -2.50453e-16 0)
(2.75237 0.0820967 0)
(0.957627 0.156813 0)
(0.703104 0.131703 0)
(0.678033 0.122944 0)
(0.666096 0.172447 0)
(0.642422 0.199212 0)
(0.607612 0.212926 0)
(0.552698 0.183147 0)
(0.467975 0.122383 0)
(0.418268 0.112361 0)
(0.431988 0.189946 0)
(0.434444 0.284294 0)
(0.404455 0.302793 0)
(0.338517 0.26915 0)
(0.17133 0.0489535 0)
(0.100674 0.0207285 0)
(0.111482 -0.00905548 0)
(0.137324 0.0746383 0)
(0.1062 0.307955 0)
(0.0518091 0.420775 0)
(3 -1.03823e-16 0)
(3 1.18869e-17 0)
(3 -2.66606e-16 0)
(3 8.38941e-17 0)
(3 5.06997e-16 0)
(3 7.6445e-17 0)
(3 1.44515e-16 0)
(3 8.05253e-17 0)
(3 -1.67248e-16 0)
(3 3.40971e-16 0)
(3 2.54791e-16 0)
(3 5.02297e-16 0)
(3 4.25611e-16 0)
(3 2.33238e-16 0)
(3 -8.81602e-17 0)
(3 8.72e-17 0)
(3 -6.04406e-17 0)
(3 -2.85311e-16 0)
(3 -8.5245e-16 0)
(3 -1.55777e-15 0)
(2.79578 0.0791595 0)
(0.963199 0.157192 0)
(0.70756 0.134985 0)
(0.699996 0.176159 0)
(0.676513 0.206958 0)
(0.647337 0.194608 0)
(0.609824 0.168359 0)
(0.538081 0.117086 0)
(0.470211 0.136232 0)
(0.454806 0.242529 0)
(0.461418 0.305375 0)
(0.441055 0.303854 0)
(0.392269 0.227315 0)
(0.259874 0.0029104 0)
(0.181706 -0.0294815 0)
(0.138209 0.0945755 0)
(0.149669 0.269631 0)
(0.175558 0.342243 0)
(0.15092 0.340404 0)
(0.064506 0.36515 0)
(3 -1.54695e-16 0)
(3 -7.96736e-16 0)
(3 -4.84256e-16 0)
(3 6.38377e-16 0)
(3 9.29868e-16 0)
(3 5.56848e-16 0)
(3 9.31075e-16 0)
(3 1.10492e-15 0)
(3 6.92033e-16 0)
(3 -7.11582e-16 0)
(3 6.16532e-17 0)
(3 5.23324e-16 0)
(3 -3.67194e-16 0)
(3 -7.36507e-16 0)
(3 -9.15808e-16 0)
(3 -1.08806e-15 0)
(3 2.69597e-17 0)
(3 8.30649e-16 0)
(3 3.93898e-16 0)
(3 -7.40002e-16 0)
(2.85739 0.0825953 0)
(0.975065 0.169897 0)
(0.733612 0.168441 0)
(0.720191 0.209296 0)
(0.685294 0.222047 0)
(0.643678 0.21296 0)
(0.590717 0.148719 0)
(0.531592 0.117831 0)
(0.513579 0.172241 0)
(0.503747 0.28055 0)
(0.463927 0.351691 0)
(0.413606 0.337421 0)
(0.302105 0.0994761 0)
(0.247994 -0.0288414 0)
(0.22269 0.00418129 0)
(0.233614 0.235297 0)
(0.211221 0.470644 0)
(0.155558 0.507132 0)
(0.098962 0.408095 0)
(0.0310217 0.112666 0)
(3 1.95147e-16 0)
(3 -2.17534e-17 0)
(3 -1.95441e-16 0)
(3 2.77522e-16 0)
(3 6.75881e-16 0)
(3 8.18458e-16 0)
(3 8.49135e-16 0)
(3 5.32601e-16 0)
(3 1.06372e-15 0)
(3 6.37697e-16 0)
(3 -1.23274e-16 0)
(3 1.48691e-16 0)
(3 -9.69717e-17 0)
(3 -8.68874e-16 0)
(3 -1.30602e-15 0)
(3 2.68346e-16 0)
(3 5.44988e-16 0)
(3 8.06483e-16 0)
(3 2.18759e-16 0)
(3 -5.03627e-16 0)
(2.91475 0.0820399 0)
(1.01386 0.203157 0)
(0.762181 0.205935 0)
(0.739683 0.212459 0)
(0.698674 0.219243 0)
(0.645623 0.199749 0)
(0.576387 0.147595 0)
(0.543286 0.149525 0)
(0.544876 0.20761 0)
(0.525801 0.253535 0)
(0.493482 0.273207 0)
(0.361156 0.123852 0)
(0.269235 0.0985251 0)
(0.222589 0.10362 0)
(0.266943 0.273534 0)
(0.28431 0.409825 0)
(0.257115 0.447612 0)
(0.162927 0.441612 0)
(0.00362221 0.141393 0)
(0.0147255 0.0631641 0)
(3 1.82168e-16 0)
(3 5.80282e-16 0)
(3 1.89591e-16 0)
(3 -3.91249e-16 0)
(3 -5.73444e-17 0)
(3 1.07285e-15 0)
(3 4.06305e-16 0)
(3 1.43469e-16 0)
(3 4.153e-16 0)
(3 1.15229e-15 0)
(3 2.52635e-16 0)
(3 -4.04661e-16 0)
(3 -3.04324e-16 0)
(3 -1.05015e-15 0)
(3 -1.17606e-15 0)
(3 2.47146e-16 0)
(3 8.4611e-16 0)
(3 7.97462e-16 0)
(3 -2.15936e-16 0)
(3 -2.37668e-16 0)
(2.96726 0.0497945 0)
(1.04999 0.229198 0)
(0.772265 0.225336 0)
(0.750077 0.211052 0)
(0.707897 0.197111 0)
(0.638354 0.160059 0)
(0.58146 0.172608 0)
(0.561081 0.20614 0)
(0.563253 0.258386 0)
(0.527238 0.251503 0)
(0.443416 0.113348 0)
(0.355968 0.0495377 0)
(0.305525 0.101833 0)
(0.29763 0.314281 0)
(0.321271 0.46041 0)
(0.288343 0.48931 0)
(0.235588 0.390565 0)
(0.0728187 0.075983 0)
(-0.00331127 0.0663126 0)
(0.015015 0.110358 0)
(3 -8.7781e-17 0)
(3 6.30271e-16 0)
(3 8.38515e-16 0)
(3 -6.3785e-17 0)
(3 -7.40991e-16 0)
(3 -8.91647e-16 0)
(3 -2.9631e-16 0)
(3 7.08095e-16 0)
(3 3.89535e-16 0)
(3 -1.0382e-15 0)
(3 -8.65834e-17 0)
(3 7.00387e-17 0)
(3 -6.05643e-16 0)
(3 -3.35841e-16 0)
(3 -3.05342e-16 0)
(3 -1.80869e-16 0)
(3 3.39096e-16 0)
(3 -3.29714e-16 0)
(3 -1.87033e-16 0)
(3 -2.43443e-17 0)
(2.97386 0.0185892 0)
(1.07594 0.224921 0)
(0.777372 0.225328 0)
(0.752455 0.223098 0)
(0.697955 0.176765 0)
(0.646191 0.136902 0)
(0.615183 0.180527 0)
(0.596922 0.295891 0)
(0.56731 0.314602 0)
(0.499649 0.225931 0)
(0.413865 0.0822714 0)
(0.36352 0.0577317 0)
(0.372021 0.201095 0)
(0.379524 0.438469 0)
(0.323239 0.521266 0)
(0.273816 0.472877 0)
(0.111258 0.0850902 0)
(0.0719836 -0.00864808 0)
(0.00836115 0.0460794 0)
(0.0414906 0.0878047 0)
(3 -4.01163e-19 0)
(3 2.00927e-16 0)
(3 -4.87835e-16 0)
(3 -9.2402e-16 0)
(3 -1.51767e-15 0)
(3 -1.37338e-15 0)
(3 -7.0534e-16 0)
(3 1.05198e-15 0)
(3 5.85541e-17 0)
(3 -5.01783e-16 0)
(3 -3.44672e-16 0)
(3 5.64872e-17 0)
(3 -4.2825e-16 0)
(3 -2.96544e-16 0)
(3 7.1469e-16 0)
(3 5.58258e-16 0)
(3 -7.81592e-16 0)
(3 -1.14552e-15 0)
(3 -5.49234e-16 0)
(3 -6.29339e-17 0)
(2.98019 0.0126975 0)
(1.0914 0.209469 0)
(0.77741 0.204188 0)
(0.747885 0.187581 0)
(0.68995 0.185479 0)
(0.653079 0.210006 0)
(0.650111 0.286004 0)
(0.61482 0.305247 0)
(0.56324 0.284781 0)
(0.468828 0.205661 0)
(0.395353 0.163173 0)
(0.395054 0.247839 0)
(0.423959 0.384588 0)
(0.407835 0.408128 0)
(0.348419 0.40585 0)
(0.152914 0.130096 0)
(0.0746776 0.0602242 0)
(0.0687426 0.0660003 0)
(0.0265054 0.12403 0)
(0.0395161 0.210733 0)
(3 -5.19324e-17 0)
(3 -3.99926e-16 0)
(3 -8.93263e-17 0)
(3 -1.03362e-15 0)
(3 -1.04789e-15 0)
(3 -1.0405e-15 0)
(3 -5.71222e-16 0)
(3 2.92626e-17 0)
(3 2.00411e-17 0)
(3 4.16993e-16 0)
(3 2.31553e-16 0)
(3 2.05768e-16 0)
(3 -2.80229e-18 0)
(3 1.28466e-16 0)
(3 4.66355e-16 0)
(3 -1.74879e-16 0)
(3 -1.57682e-15 0)
(3 -1.60669e-15 0)
(3 -1.05674e-15 0)
(3 -5.16557e-16 0)
(2.9934 0.0153938 0)
(1.10617 0.199954 0)
(0.7691 0.185865 0)
(0.74174 0.184597 0)
(0.700851 0.210302 0)
(0.681385 0.30469 0)
(0.654279 0.320479 0)
(0.618752 0.297475 0)
(0.554703 0.245243 0)
(0.465821 0.21737 0)
(0.431167 0.303514 0)
(0.448336 0.424885 0)
(0.430241 0.456966 0)
(0.398293 0.426706 0)
(0.25141 0.13753 0)
(0.135854 0.0346292 0)
(0.100198 0.0680077 0)
(0.0967365 0.161733 0)
(0.0944924 0.344362 0)
(0.0572852 0.471575 0)
(3 -4.07099e-16 0)
(3 -4.14161e-16 0)
(3 7.18993e-17 0)
(3 1.20432e-16 0)
(3 -7.4928e-17 0)
(3 -4.88303e-16 0)
(3 -6.1706e-16 0)
(3 -1.20276e-15 0)
(3 9.93648e-17 0)
(3 1.81803e-16 0)
(3 3.943e-16 0)
(3 7.18478e-17 0)
(3 6.30422e-16 0)
(3 6.28979e-16 0)
(3 -3.5662e-17 0)
(3 -6.44124e-16 0)
(3 -1.06137e-15 0)
(3 -8.54967e-16 0)
(3 -9.97885e-16 0)
(3 -8.01604e-16 0)
(3.00639 0.00642629 0)
(1.1298 0.202522 0)
(0.756229 0.190457 0)
(0.744968 0.198574 0)
(0.727194 0.274864 0)
(0.696754 0.311983 0)
(0.660821 0.334835 0)
(0.608609 0.344445 0)
(0.533397 0.258554 0)
(0.485477 0.263635 0)
(0.49391 0.364111 0)
(0.462746 0.435676 0)
(0.440607 0.439882 0)
(0.328855 0.218052 0)
(0.207392 0.0658182 0)
(0.133338 0.131639 0)
(0.153031 0.317179 0)
(0.182366 0.564547 0)
(0.119323 0.622669 0)
(0.0573389 0.594062 0)
(3 -1.0751e-16 0)
(3 -4.52183e-16 0)
(3 -6.50153e-16 0)
(3 5.92732e-16 0)
(3 7.27157e-16 0)
(3 -2.91598e-16 0)
(3 -8.30662e-17 0)
(3 -3.91105e-16 0)
(3 -5.20872e-16 0)
(3 9.96389e-16 0)
(3 1.10251e-15 0)
(3 7.1454e-16 0)
(3 3.39531e-16 0)
(3 8.62333e-16 0)
(3 2.8539e-16 0)
(3 -2.36041e-16 0)
(3 -1.11771e-15 0)
(3 -1.19663e-15 0)
(3 -9.29543e-16 0)
(3 -1.47895e-15 0)
(3.00214 0.00128626 0)
(1.15593 0.222238 0)
(0.756185 0.206753 0)
(0.751053 0.260448 0)
(0.730681 0.283999 0)
(0.708148 0.293151 0)
(0.67523 0.306849 0)
(0.6014 0.246892 0)
(0.523474 0.240128 0)
(0.522378 0.276255 0)
(0.520103 0.358799 0)
(0.486818 0.380773 0)
(0.412898 0.279147 0)
(0.261018 0.128454 0)
(0.21546 0.122687 0)
(0.195409 0.252418 0)
(0.270554 0.574709 0)
(0.208279 0.629874 0)
(0.122312 0.629657 0)
(0.0602688 0.562301 0)
(3 4.50756e-16 0)
(3 1.92094e-16 0)
(3 -2.09113e-16 0)
(3 -2.71456e-16 0)
(3 -2.17415e-16 0)
(3 -4.65851e-17 0)
(3 -2.99232e-17 0)
(3 -7.07357e-18 0)
(3 -1.24042e-16 0)
(3 1.92401e-15 0)
(3 2.55793e-15 0)
(3 2.69664e-15 0)
(3 1.04081e-15 0)
(3 2.37339e-16 0)
(3 -6.63281e-16 0)
(3 -5.95714e-16 0)
(3 -2.71439e-16 0)
(3 -8.23807e-16 0)
(3 -9.00864e-16 0)
(3 -8.97019e-16 0)
(3.0001 8.77071e-05 0)
(1.19486 0.257095 0)
(0.765061 0.23939 0)
(0.749533 0.28633 0)
(0.726607 0.296048 0)
(0.700555 0.287283 0)
(0.655738 0.234382 0)
(0.585921 0.191567 0)
(0.544851 0.234738 0)
(0.544176 0.309297 0)
(0.54413 0.355573 0)
(0.478819 0.345112 0)
(0.335814 0.183508 0)
(0.274869 0.131552 0)
(0.257602 0.203062 0)
(0.299037 0.514272 0)
(0.304784 0.635872 0)
(0.214246 0.676466 0)
(0.0910818 0.556171 0)
(0.0419418 0.313868 0)
(3 -5.99615e-17 0)
(3 3.14398e-16 0)
(3 1.88026e-16 0)
(3 -4.66094e-16 0)
(3 -5.50013e-16 0)
(3 -6.68026e-16 0)
(3 -6.08355e-16 0)
(3 -3.465e-16 0)
(3 9.6378e-16 0)
(3 1.28716e-15 0)
(3 1.77732e-15 0)
(3 1.64314e-15 0)
(3 1.25402e-15 0)
(3 -2.48567e-16 0)
(3 -6.73873e-16 0)
(3 -4.21828e-16 0)
(3 -8.30631e-16 0)
(3 -1.04557e-15 0)
(3 -1.21786e-15 0)
(3 -7.10043e-16 0)
(3.00001 -1.0496e-05 0)
(1.25117 0.270987 0)
(0.77497 0.252786 0)
(0.748256 0.288242 0)
(0.714026 0.310232 0)
(0.67853 0.284231 0)
(0.625486 0.201431 0)
(0.592054 0.175771 0)
(0.573717 0.232956 0)
(0.57837 0.341226 0)
(0.551684 0.354437 0)
(0.434631 0.212333 0)
(0.326446 0.217428 0)
(0.288653 0.266337 0)
(0.345191 0.519438 0)
(0.329759 0.561179 0)
(0.328249 0.587343 0)
(0.163439 0.410441 0)
(0.013052 0.196298 0)
(0.0397714 0.208012 0)
(3 -1.67971e-16 0)
(3 6.78524e-17 0)
(3 2.24619e-16 0)
(3 1.23984e-16 0)
(3 -2.99425e-16 0)
(3 -1.1688e-16 0)
(3 4.00166e-16 0)
(3 7.85869e-16 0)
(3 8.24418e-16 0)
(3 1.39598e-15 0)
(3 1.80724e-15 0)
(3 8.5925e-16 0)
(3 6.07862e-16 0)
(3 4.51446e-16 0)
(3 -4.41982e-16 0)
(3 -8.91427e-16 0)
(3 -1.21368e-15 0)
(3 -1.27382e-15 0)
(3 -9.54535e-16 0)
(3 3.05839e-16 0)
(3.00001 -1.01899e-05 0)
(1.31257 0.274179 0)
(0.785664 0.262698 0)
(0.746775 0.276808 0)
(0.709721 0.269926 0)
(0.655924 0.250119 0)
(0.609369 0.243812 0)
(0.598175 0.280129 0)
(0.604122 0.370546 0)
(0.585355 0.379044 0)
(0.522763 0.31125 0)
(0.415088 0.217285 0)
(0.364576 0.243718 0)
(0.391201 0.48347 0)
(0.378341 0.605262 0)
(0.320841 0.593988 0)
(0.249961 0.402557 0)
(0.112286 0.159395 0)
(0.0273918 0.198434 0)
(0.0512074 0.246528 0)
(3 -2.68543e-17 0)
(3 -4.42915e-16 0)
(3 1.2943e-16 0)
(3 -8.84716e-17 0)
(3 2.26656e-16 0)
(3 6.49545e-16 0)
(3 1.19294e-15 0)
(3 5.34203e-16 0)
(3 3.39219e-16 0)
(3 6.64337e-16 0)
(3 6.737e-16 0)
(3 7.39255e-17 0)
(3 5.98433e-16 0)
(3 6.31833e-16 0)
(3 -1.30889e-16 0)
(3 -1.42664e-15 0)
(3 -1.00606e-15 0)
(3 -1.39663e-15 0)
(3 -2.05714e-16 0)
(3 9.89868e-16 0)
(3 -3.46845e-06 0)
(1.38111 0.279184 0)
(0.795046 0.260193 0)
(0.735945 0.25458 0)
(0.694716 0.234339 0)
(0.654399 0.235413 0)
(0.622204 0.287698 0)
(0.62664 0.416259 0)
(0.601273 0.425138 0)
(0.571855 0.391825 0)
(0.49467 0.300762 0)
(0.417864 0.245746 0)
(0.410249 0.366693 0)
(0.464665 0.567956 0)
(0.392897 0.624508 0)
(0.294057 0.594909 0)
(0.141343 0.293722 0)
(0.111321 0.183582 0)
(0.0487714 0.25413 0)
(0.0579785 0.344211 0)
(3 7.28087e-17 0)
(3 -2.29276e-16 0)
(3 -2.72483e-16 0)
(3 6.54861e-17 0)
(3 4.58265e-16 0)
(3 5.75074e-16 0)
(3 -2.24011e-16 0)
(3 -4.15004e-16 0)
(3 -5.04192e-18 0)
(3 2.41039e-16 0)
(3 -3.91434e-16 0)
(3 -9.75712e-16 0)
(3 -7.06163e-16 0)
(3 6.79712e-16 0)
(3 1.19293e-15 0)
(3 1.27408e-16 0)
(3 -4.81849e-16 0)
(3 -5.14307e-16 0)
(3 -9.59587e-16 0)
(3 -6.00769e-16 0)
(3 -3.75739e-07 0)
(1.46004 0.284334 0)
(0.792608 0.256115 0)
(0.725992 0.246112 0)
(0.68398 0.245853 0)
(0.657085 0.263626 0)
(0.659612 0.372667 0)
(0.633533 0.421647 0)
(0.595233 0.455115 0)
(0.549412 0.42744 0)
(0.467892 0.311085 0)
(0.44099 0.348784 0)
(0.482501 0.507003 0)
(0.487923 0.574302 0)
(0.410646 0.587641 0)
(0.219184 0.383108 0)
(0.101893 0.285099 0)
(0.120828 0.299478 0)
(0.127423 0.498907 0)
(0.0838815 0.628819 0)
(3 1.25112e-17 0)
(3 -1.65261e-16 0)
(3 4.44326e-17 0)
(3 3.69452e-16 0)
(3 3.46043e-16 0)
(3 2.73062e-16 0)
(3 -2.29127e-16 0)
(3 -1.92326e-16 0)
(3 -2.92455e-16 0)
(3 -6.45723e-16 0)
(3 -1.44546e-15 0)
(3 -1.19492e-15 0)
(3 -5.93604e-16 0)
(3 1.27545e-15 0)
(3 1.9278e-15 0)
(3 1.55164e-15 0)
(3 7.78228e-16 0)
(3 2.54554e-16 0)
(3 -9.19109e-16 0)
(3 -4.98339e-16 0)
(3 -3.85208e-07 0)
(1.54925 0.293539 0)
(0.791375 0.255135 0)
(0.720388 0.257619 0)
(0.686339 0.274436 0)
(0.675257 0.352861 0)
(0.660234 0.375192 0)
(0.646802 0.393548 0)
(0.612827 0.412655 0)
(0.520175 0.337224 0)
(0.46854 0.328604 0)
(0.50689 0.470885 0)
(0.496213 0.505758 0)
(0.501764 0.533048 0)
(0.349632 0.349481 0)
(0.197719 0.277738 0)
(0.147923 0.376792 0)
(0.198729 0.549581 0)
(0.177324 0.659433 0)
(0.0918489 0.683373 0)
(3 6.12978e-17 0)
(3 1.60444e-16 0)
(3 9.91067e-17 0)
(3 3.50872e-16 0)
(3 -3.68706e-18 0)
(3 -5.62909e-16 0)
(3 1.49106e-16 0)
(3 2.2015e-16 0)
(3 -7.36391e-16 0)
(3 -1.03735e-15 0)
(3 -1.80555e-16 0)
(3 -1.86631e-16 0)
(3 -2.41604e-17 0)
(3 1.30953e-15 0)
(3 1.53357e-15 0)
(3 1.11194e-15 0)
(3 2.71472e-16 0)
(3 -1.27796e-16 0)
(3 -2.27916e-16 0)
(3 -4.21784e-16 0)
(3 -4.28009e-07 0)
(1.64764 0.316633 0)
(0.789276 0.270465 0)
(0.731035 0.295423 0)
(0.702106 0.357559 0)
(0.677176 0.379311 0)
(0.662193 0.389895 0)
(0.641066 0.396031 0)
(0.574454 0.293213 0)
(0.517764 0.301354 0)
(0.510694 0.401849 0)
(0.524489 0.496894 0)
(0.505892 0.48692 0)
(0.45937 0.380395 0)
(0.307962 0.224365 0)
(0.214627 0.30183 0)
(0.211849 0.45971 0)
(0.240497 0.631752 0)
(0.197333 0.677593 0)
(0.10448 0.703663 0)
(3 2.97577e-16 0)
(3 1.24137e-16 0)
(3 -1.60282e-16 0)
(3 -3.44719e-16 0)
(3 -9.45584e-16 0)
(3 -6.93696e-16 0)
(3 -2.58466e-16 0)
(3 -1.26432e-17 0)
(3 -1.94679e-16 0)
(3 -8.99617e-17 0)
(3 3.75522e-16 0)
(3 -3.12982e-16 0)
(3 -3.93812e-16 0)
(3 -7.24105e-16 0)
(3 -4.18425e-17 0)
(3 -4.65505e-17 0)
(3 -5.45307e-16 0)
(3 -3.15166e-16 0)
(3 -5.48347e-16 0)
(3 -3.83683e-16 0)
(3 -3.34961e-07 0)
(1.74897 0.342538 0)
(0.807816 0.314659 0)
(0.742481 0.354895 0)
(0.709721 0.366694 0)
(0.682494 0.375703 0)
(0.666153 0.37935 0)
(0.600769 0.279883 0)
(0.558518 0.25547 0)
(0.546177 0.300761 0)
(0.554118 0.457927 0)
(0.535266 0.515757 0)
(0.497195 0.52771 0)
(0.383345 0.328217 0)
(0.316918 0.205317 0)
(0.27849 0.317666 0)
(0.280051 0.501146 0)
(0.2667 0.697617 0)
(0.193573 0.705448 0)
(0.0901353 0.526045 0)
(3 1.19632e-17 0)
(3 3.50716e-16 0)
(3 -8.54477e-17 0)
(3 -1.47829e-16 0)
(3 2.61804e-16 0)
(3 3.8648e-16 0)
(3 -1.17165e-15 0)
(3 -5.37933e-16 0)
(3 1.54821e-15 0)
(3 9.62909e-16 0)
(3 4.57534e-16 0)
(3 3.27179e-16 0)
(3 -6.38865e-16 0)
(3 -1.20165e-15 0)
(3 -1.0562e-15 0)
(3 -4.92765e-16 0)
(3 -9.83214e-16 0)
(3 -6.04071e-16 0)
(3 -1.31196e-15 0)
(3 -1.36152e-15 0)
(3 -6.44924e-08 0)
(1.86861 0.345137 0)
(0.827465 0.363119 0)
(0.744235 0.375095 0)
(0.713364 0.36888 0)
(0.685585 0.358572 0)
(0.632492 0.291933 0)
(0.582596 0.26214 0)
(0.558182 0.289733 0)
(0.57326 0.364227 0)
(0.585929 0.483341 0)
(0.545887 0.517167 0)
(0.482076 0.47103 0)
(0.326433 0.351103 0)
(0.301405 0.285772 0)
(0.331079 0.421872 0)
(0.35594 0.714207 0)
(0.287404 0.75183 0)
(0.15108 0.677618 0)
(0.061926 0.451896 0)
(3 1.57961e-16 0)
(3 4.7141e-16 0)
(3 6.04661e-16 0)
(3 6.04551e-16 0)
(3 1.50852e-16 0)
(3 -4.08603e-17 0)
(3 -1.91413e-15 0)
(3 -1.07339e-15 0)
(3 -1.27661e-16 0)
(3 -4.40068e-16 0)
(3 -1.85084e-16 0)
(3 1.83729e-16 0)
(3 -4.65448e-16 0)
(3 -1.39851e-15 0)
(3 -1.82824e-15 0)
(3 -1.0907e-15 0)
(3 -6.91733e-16 0)
(3 -1.25938e-15 0)
(3 -1.2048e-15 0)
(3 -1.19369e-15 0)
(3 -9.53788e-09 0)
(2.0048 0.3443 0)
(0.858631 0.37214 0)
(0.751099 0.377198 0)
(0.711823 0.363292 0)
(0.6602 0.305527 0)
(0.620186 0.270571 0)
(0.589694 0.264194 0)
(0.582893 0.357753 0)
(0.602676 0.478939 0)
(0.589124 0.475501 0)
(0.555564 0.48801 0)
(0.450616 0.374596 0)
(0.3391 0.426995 0)
(0.392758 0.615949 0)
(0.40652 0.760858 0)
(0.368135 0.776462 0)
(0.2787 0.76968 0)
(0.0706281 0.5339 0)
(0.0615436 0.474241 0)
(3 9.03467e-18 0)
(3 3.66655e-16 0)
(3 4.96845e-16 0)
(3 -2.28429e-16 0)
(3 -3.27204e-16 0)
(3 -1.47314e-15 0)
(3 -7.75046e-16 0)
(3 -9.86547e-16 0)
(3 -1.87884e-15 0)
(3 -8.75111e-16 0)
(3 -3.18376e-16 0)
(3 -4.61006e-16 0)
(3 -2.75526e-16 0)
(3 -1.3429e-15 0)
(3 -1.42309e-15 0)
(3 -9.48299e-16 0)
(3 -1.24928e-16 0)
(3 -9.28487e-16 0)
(3 -5.40958e-16 0)
(3 2.49297e-16 0)
(3 -8.8565e-09 0)
(2.14371 0.357909 0)
(0.892325 0.379302 0)
(0.752149 0.346227 0)
(0.704408 0.305129 0)
(0.655598 0.294466 0)
(0.61375 0.295191 0)
(0.613994 0.371399 0)
(0.620655 0.47467 0)
(0.602556 0.499713 0)
(0.575662 0.506677 0)
(0.508643 0.387024 0)
(0.457394 0.362714 0)
(0.413042 0.491981 0)
(0.461287 0.734438 0)
(0.424182 0.828508 0)
(0.355238 0.831902 0)
(0.220697 0.714156 0)
(0.0254895 0.544005 0)
(0.0648462 0.493332 0)
(3 -3.34147e-16 0)
(3 -1.07256e-16 0)
(3 -1.47827e-16 0)
(3 -6.43722e-16 0)
(3 -3.41169e-16 0)
(3 -5.22181e-16 0)
(3 -3.15439e-16 0)
(3 -8.39313e-16 0)
(3 -6.55409e-16 0)
(3 -5.15855e-16 0)
(3 -6.23264e-16 0)
(3 -4.24318e-16 0)
(3 -5.72566e-16 0)
(3 -7.22796e-16 0)
(3 -1.60747e-16 0)
(3 -5.53663e-16 0)
(3 -3.14658e-16 0)
(3 -1.43275e-16 0)
(3 3.72137e-16 0)
(3 1.30048e-15 0)
(3 -7.34827e-09 0)
(2.30878 0.36154 0)
(0.913941 0.394032 0)
(0.748115 0.331391 0)
(0.707034 0.297492 0)
(0.663616 0.304793 0)
(0.640663 0.363324 0)
(0.64926 0.461808 0)
(0.627355 0.476714 0)
(0.610436 0.492038 0)
(0.569416 0.466959 0)
(0.476872 0.351734 0)
(0.467523 0.378904 0)
(0.484194 0.54739 0)
(0.495495 0.739879 0)
(0.44256 0.809157 0)
(0.353197 0.846073 0)
(0.179844 0.677077 0)
(0.0433632 0.736484 0)
(0.0974781 0.861483 0)
(3 1.18512e-16 0)
(3 -8.25049e-17 0)
(3 -4.52471e-16 0)