/*--------------------------------*- C++ -*----------------------------------*\
  =========                 |
  \\      /  F ield         | OpenFOAM: The Open Source CFD Toolbox
   \\    /   O peration     | Website:  https://openfoam.org
    \\  /    A nd           | Version:  6.0
     \\/     M anipulation  |
\*---------------------------------------------------------------------------*/
FoamFile
{
    version     2.0;
    format      ascii;
    class       volVectorField;
    location    "1.9995778";
    object      U;
}
// * * * * * * * * * * * * * * * * * * * * * * * * * * * * * * * * * * * * * //

dimensions      [0 1 -1 0 0 0 0];

internalField   nonuniform List<vector> 
24000
(
(3 1.04562e-15 0)
(3 2.49346e-16 0)
(3 6.90849e-16 0)
(3 -4.869e-16 0)
(3 1.7747e-16 0)
(3 1.10812e-16 0)
(3 -1.05168e-15 0)
(3 -2.69028e-15 0)
(3 -1.98556e-15 0)
(3 1.3089e-16 0)
(1.73519 0.00620965 0)
(0.762784 0.00772833 0)
(0.663398 0.00983696 0)
(0.598035 0.0112165 0)
(0.521698 0.0128386 0)
(0.439145 0.0143435 0)
(0.35155 0.0149484 0)
(0.260085 0.015529 0)
(0.16258 0.0162024 0)
(0.0616712 0.0183834 0)
(3 1.18191e-15 0)
(3 6.27661e-17 0)
(3 2.83651e-16 0)
(3 -1.24417e-15 0)
(3 7.52465e-16 0)
(3 2.18707e-15 0)
(3 4.7919e-16 0)
(3 -5.99192e-16 0)
(3 -1.37054e-15 0)
(3 -1.76765e-15 0)
(1.73099 0.0212693 0)
(0.755468 0.0244802 0)
(0.653767 0.0278922 0)
(0.587675 0.0316913 0)
(0.510968 0.036263 0)
(0.42892 0.040973 0)
(0.343132 0.0435992 0)
(0.254626 0.0463965 0)
(0.160163 0.0490687 0)
(0.0616437 0.0559871 0)
(3 -3.28928e-16 0)
(3 -1.74268e-15 0)
(3 -5.57534e-16 0)
(3 6.79241e-16 0)
(3 -1.14379e-15 0)
(3 -1.50227e-15 0)
(3 -1.21662e-15 0)
(3 2.16698e-15 0)
(3 5.26605e-16 0)
(3 -3.06995e-15 0)
(1.73538 0.0412407 0)
(0.750222 0.0431316 0)
(0.643657 0.0472818 0)
(0.57549 0.0532925 0)
(0.497927 0.0605602 0)
(0.41613 0.0674448 0)
(0.331683 0.0709799 0)
(0.245811 0.0755207 0)
(0.154802 0.0804411 0)
(0.0605326 0.0927716 0)
(3 -5.75902e-16 0)
(3 2.29424e-16 0)
(3 -6.64693e-16 0)
(3 2.71358e-15 0)
(3 6.79554e-16 0)
(3 -9.68313e-16 0)
(3 -7.21473e-16 0)
(3 -6.12544e-16 0)
(3 -1.44819e-15 0)
(3 -1.30913e-15 0)
(1.75175 0.0645331 0)
(0.749155 0.0646573 0)
(0.635631 0.0681483 0)
(0.563586 0.0754824 0)
(0.48434 0.0848008 0)
(0.402913 0.0933673 0)
(0.320031 0.0974357 0)
(0.236338 0.103457 0)
(0.147957 0.110496 0)
(0.0584366 0.128458 0)
(3 4.8463e-16 0)
(3 1.35238e-15 0)
(3 -3.45705e-18 0)
(3 6.56489e-16 0)
(3 1.90415e-15 0)
(3 6.64666e-16 0)
(3 -6.03604e-16 0)
(3 3.34776e-16 0)
(3 1.96813e-15 0)
(3 -1.56121e-15 0)
(1.78088 0.0876939 0)
(0.752793 0.0881593 0)
(0.632037 0.0912948 0)
(0.555863 0.0995815 0)
(0.474133 0.109757 0)
(0.392709 0.119134 0)
(0.311571 0.123303 0)
(0.230232 0.130901 0)
(0.14356 0.139907 0)
(0.0572136 0.162969 0)
(3 -3.2036e-17 0)
(3 2.47657e-16 0)
(3 -3.00049e-16 0)
(3 -1.40079e-15 0)
(3 -2.88737e-16 0)
(3 -6.77939e-16 0)
(3 -1.15839e-15 0)
(3 -7.79408e-16 0)
(3 2.62139e-17 0)
(3 2.75112e-16 0)
(1.81878 0.109595 0)
(0.757461 0.11311 0)
(0.630751 0.115742 0)
(0.552224 0.124573 0)
(0.469412 0.135508 0)
(0.389035 0.145175 0)
(0.310336 0.149109 0)
(0.231306 0.158151 0)
(0.144953 0.169196 0)
(0.058931 0.197375 0)
(3 -3.30821e-16 0)
(3 3.56608e-16 0)
(3 3.40075e-16 0)
(3 1.00004e-15 0)
(3 -1.43748e-15 0)
(3 -1.19897e-15 0)
(3 1.84802e-16 0)
(3 -2.64239e-16 0)
(3 4.08536e-16 0)
(3 -2.48067e-16 0)
(1.86262 0.131777 0)
(0.761724 0.139085 0)
(0.630383 0.140399 0)
(0.552196 0.149968 0)
(0.471091 0.161411 0)
(0.393536 0.170842 0)
(0.31715 0.17415 0)
(0.238644 0.184932 0)
(0.149827 0.198822 0)
(0.0614735 0.232794 0)
(3 -2.02306e-16 0)
(3 3.16121e-16 0)
(3 1.33339e-15 0)
(3 9.00188e-16 0)
(3 8.52411e-16 0)
(3 1.32929e-15 0)
(3 1.0785e-15 0)
(3 4.61247e-16 0)
(3 9.66354e-16 0)
(3 -1.90901e-15 0)
(1.91634 0.154972 0)
(0.768322 0.165692 0)
(0.632847 0.164854 0)
(0.557671 0.175109 0)
(0.480283 0.186412 0)
(0.405558 0.195525 0)
(0.329313 0.199243 0)
(0.248372 0.213138 0)
(0.154798 0.230301 0)
(0.0628751 0.269405 0)
(3 -3.22771e-16 0)
(3 -5.14736e-16 0)
(3 7.60692e-16 0)
(3 -6.73943e-16 0)
(3 -4.35154e-16 0)
(3 -3.18291e-16 0)
(3 1.55079e-16 0)
(3 2.59371e-16 0)
(3 -1.36517e-16 0)
(3 -5.62549e-16 0)
(1.98553 0.178148 0)
(0.780615 0.192491 0)
(0.640935 0.189289 0)
(0.569704 0.198871 0)
(0.49579 0.210103 0)
(0.4229 0.220006 0)
(0.345829 0.225206 0)
(0.262372 0.242536 0)
(0.163997 0.26318 0)
(0.0671033 0.307459 0)
(3 -6.54757e-17 0)
(3 9.19511e-17 0)
(3 -8.28276e-16 0)
(3 1.8348e-16 0)
(3 -1.11534e-15 0)
(3 -1.73257e-15 0)
(3 6.82774e-16 0)
(3 1.94371e-15 0)
(3 1.20556e-15 0)
(3 -2.38649e-15 0)
(2.07129 0.197713 0)
(0.799762 0.21816 0)
(0.655326 0.210589 0)
(0.586603 0.220732 0)
(0.515494 0.232747 0)
(0.444413 0.244202 0)
(0.365863 0.251946 0)
(0.277942 0.274038 0)
(0.172076 0.298958 0)
(0.0684077 0.347749 0)
(3 -1.54401e-16 0)
(3 -1.63979e-15 0)
(3 -7.77224e-16 0)
(3 9.99948e-16 0)
(3 1.56279e-15 0)
(3 4.26253e-16 0)
(3 -1.90563e-15 0)
(3 4.54168e-16 0)
(3 8.81326e-16 0)
(3 -2.7439e-15 0)
(2.16735 0.211549 0)
(0.821514 0.242837 0)
(0.668393 0.232786 0)
(0.604192 0.242658 0)
(0.537534 0.254416 0)
(0.468392 0.268147 0)
(0.387509 0.28009 0)
(0.294593 0.307808 0)
(0.18196 0.337047 0)
(0.0721433 0.389756 0)
(3 2.4779e-16 0)
(3 -5.54467e-16 0)
(3 -1.21172e-15 0)
(3 -2.05226e-16 0)
(3 -1.86432e-15 0)
(3 -1.90122e-16 0)
(3 -8.87806e-16 0)
(3 -1.50714e-15 0)
(3 -8.7346e-16 0)
(3 -1.02251e-15 0)
(2.26629 0.222931 0)
(0.842341 0.268351 0)
(0.683753 0.251575 0)
(0.624564 0.260363 0)
(0.560887 0.274071 0)
(0.49254 0.292023 0)
(0.409005 0.310048 0)
(0.310307 0.344733 0)
(0.189285 0.378762 0)
(0.0718471 0.434115 0)
(3 4.83335e-16 0)
(3 4.71179e-16 0)
(3 -5.1798e-16 0)
(3 -1.36855e-15 0)
(3 -1.98074e-15 0)
(3 -1.73034e-15 0)
(3 -3.99885e-16 0)
(3 -1.28527e-15 0)
(3 -9.00975e-17 0)
(3 -1.32363e-15 0)
(2.37614 0.228853 0)
(0.868712 0.290642 0)
(0.696754 0.269777 0)
(0.6394 0.278861 0)
(0.578746 0.294291 0)
(0.51314 0.315827 0)
(0.429834 0.340863 0)
(0.329256 0.38319 0)
(0.203045 0.422666 0)
(0.0773912 0.480798 0)
(3 3.7394e-16 0)
(3 -2.32641e-16 0)
(3 -1.00336e-15 0)
(3 3.93263e-16 0)
(3 -9.08678e-18 0)
(3 1.22184e-15 0)
(3 1.53035e-17 0)
(3 3.52842e-16 0)
(3 5.34967e-16 0)
(3 -9.68547e-16 0)
(2.48325 0.229684 0)
(0.889523 0.317375 0)
(0.694868 0.288545 0)
(0.637234 0.298824 0)
(0.579501 0.315886 0)
(0.521198 0.340614 0)
(0.445269 0.371958 0)
(0.347162 0.423304 0)
(0.21513 0.471076 0)
(0.0786851 0.532056 0)
(3 2.6793e-17 0)
(3 -6.90226e-16 0)
(3 2.06634e-16 0)
(3 -7.3492e-16 0)
(3 -1.04995e-15 0)
(3 7.2855e-16 0)
(3 1.69265e-15 0)
(3 4.64938e-17 0)
(3 -3.18061e-16 0)
(3 -1.25116e-15 0)
(2.58947 0.237378 0)
(0.909716 0.349263 0)
(0.692285 0.308134 0)
(0.632274 0.316981 0)
(0.572935 0.332921 0)
(0.519058 0.361545 0)
(0.452042 0.401174 0)
(0.363556 0.463018 0)
(0.233963 0.521541 0)
(0.0885296 0.587782 0)
(3 -1.1237e-15 0)
(3 1.08998e-15 0)
(3 2.73815e-19 0)
(3 -6.04209e-16 0)
(3 -2.80972e-16 0)
(3 7.93607e-16 0)
(3 7.29233e-16 0)
(3 -2.3771e-15 0)
(3 -1.31708e-15 0)
(3 -6.51104e-16 0)
(2.73766 0.230222 0)
(0.957832 0.383231 0)
(0.70919 0.331592 0)
(0.640234 0.340851 0)
(0.573267 0.354519 0)
(0.515085 0.381193 0)
(0.453648 0.426866 0)
(0.376195 0.500835 0)
(0.247537 0.576986 0)
(0.0912634 0.652153 0)
(3 -4.46391e-16 0)
(3 -8.61794e-16 0)
(3 -3.70588e-16 0)
(3 5.82397e-16 0)
(3 1.55804e-15 0)
(3 2.33873e-15 0)
(3 1.4251e-15 0)
(3 -8.29581e-16 0)
(3 -1.87451e-15 0)
(3 -2.97028e-15 0)
(2.93398 0.181794 0)
(1.04724 0.412854 0)
(0.763461 0.352894 0)
(0.675211 0.364989 0)
(0.590037 0.378606 0)
(0.51954 0.403809 0)
(0.457125 0.451241 0)
(0.389601 0.536533 0)
(0.269952 0.634084 0)
(0.104637 0.7239 0)
(3 7.63881e-16 0)
(3 1.54732e-17 0)
(3 -8.88633e-16 0)
(3 1.46218e-16 0)
(3 1.57125e-15 0)
(3 9.93166e-16 0)
(3 9.84659e-16 0)
(3 5.73535e-17 0)
(3 -2.8375e-15 0)
(3 -6.22708e-16 0)
(3.06909 0.0833868 0)
(1.14744 0.413519 0)
(0.834287 0.375771 0)
(0.729516 0.399666 0)
(0.622731 0.408299 0)
(0.537675 0.429388 0)
(0.467769 0.475888 0)
(0.406297 0.570426 0)
(0.294301 0.697152 0)
(0.111622 0.8126 0)
(3 1.0419e-16 0)
(3 3.05225e-16 0)
(3 -2.43963e-16 0)
(3 -2.55585e-16 0)
(3 8.83827e-16 0)
(3 -5.71721e-16 0)
(3 -8.92738e-16 0)
(3 -9.03608e-16 0)
(3 -8.13752e-16 0)
(3 -2.93162e-16 0)
(3.0523 0.0178115 0)
(1.19139 0.395082 0)
(0.852309 0.411413 0)
(0.776162 0.436655 0)
(0.669303 0.441588 0)
(0.574658 0.457567 0)
(0.491314 0.501888 0)
(0.430816 0.604324 0)
(0.338552 0.760455 0)
(0.13363 0.916355 0)
(3 -1.74245e-16 0)
(3 1.58961e-15 0)
(3 6.21551e-16 0)
(3 2.39804e-16 0)
(3 4.20116e-16 0)
(3 1.81352e-16 0)
(3 7.48019e-17 0)
(3 -5.17604e-16 0)
(3 2.28136e-15 0)
(3 3.06508e-16 0)
(3.00786 0.000857072 0)
(1.22856 0.396309 0)
(0.838722 0.429137 0)
(0.793695 0.466234 0)
(0.711985 0.473017 0)
(0.624085 0.489747 0)
(0.533184 0.528644 0)
(0.468985 0.634659 0)
(0.403554 0.825556 0)
(0.204853 1.07694 0)
(3 2.23929e-16 0)
(3 -7.51413e-17 0)
(3 3.07339e-16 0)
(3 8.5995e-16 0)
(3 4.99003e-16 0)
(3 9.25377e-17 0)
(3 -3.31893e-16 0)
(3 -2.64283e-16 0)
(3 6.36583e-16 0)
(3 -5.44177e-16 0)
(1.73519 0.00620965 0)
(0.762784 0.00772833 0)
(0.663398 0.00983696 0)
(0.598035 0.0112165 0)
(0.521698 0.0128386 0)
(0.439145 0.0143435 0)
(0.35155 0.0149484 0)
(0.260085 0.015529 0)
(0.16258 0.0162024 0)
(0.0616712 0.0183834 0)
(3 3.39855e-16 0)
(3 -6.66574e-16 0)
(3 -4.66377e-16 0)
(3 1.54789e-17 0)
(3 3.38284e-17 0)
(3 7.05465e-16 0)
(3 4.6834e-16 0)
(3 7.47831e-16 0)
(3 3.35621e-16 0)
(3 -7.84629e-16 0)
(1.73099 0.0212693 0)
(0.755468 0.0244802 0)
(0.653767 0.0278922 0)
(0.587675 0.0316913 0)
(0.510968 0.036263 0)
(0.42892 0.040973 0)
(0.343132 0.0435992 0)
(0.254626 0.0463965 0)
(0.160163 0.0490687 0)
(0.0616437 0.0559871 0)
(3 -3.58233e-17 0)
(3 -6.96638e-16 0)
(3 -4.77894e-16 0)
(3 -8.83308e-16 0)
(3 -6.16816e-16 0)
(3 5.03427e-16 0)
(3 8.7301e-16 0)
(3 8.37172e-16 0)
(3 7.50123e-17 0)
(3 -4.96851e-16 0)
(1.73538 0.0412407 0)
(0.750222 0.0431316 0)
(0.643657 0.0472818 0)
(0.57549 0.0532925 0)
(0.497927 0.0605602 0)
(0.41613 0.0674448 0)
(0.331683 0.0709799 0)
(0.245811 0.0755207 0)
(0.154802 0.0804411 0)
(0.0605326 0.0927716 0)
(3 -3.50512e-16 0)
(3 1.66517e-16 0)
(3 3.61692e-16 0)
(3 1.48861e-16 0)
(3 1.00716e-15 0)
(3 9.95722e-16 0)
(3 3.85307e-16 0)
(3 7.27623e-16 0)
(3 2.22273e-16 0)
(3 -3.02541e-16 0)
(1.75175 0.0645331 0)
(0.749155 0.0646573 0)
(0.635631 0.0681483 0)
(0.563586 0.0754824 0)
(0.48434 0.0848008 0)
(0.402913 0.0933673 0)
(0.320031 0.0974357 0)
(0.236338 0.103457 0)
(0.147957 0.110496 0)
(0.0584366 0.128458 0)
(3 4.21963e-16 0)
(3 7.5095e-16 0)
(3 6.42741e-16 0)
(3 1.03172e-15 0)
(3 1.31492e-15 0)
(3 3.35611e-16 0)
(3 4.2814e-16 0)
(3 8.00398e-16 0)
(3 -1.35165e-16 0)
(3 -4.49991e-16 0)
(1.78088 0.0876939 0)
(0.752793 0.0881593 0)
(0.632037 0.0912948 0)
(0.555863 0.0995815 0)
(0.474133 0.109757 0)
(0.392709 0.119134 0)
(0.311571 0.123303 0)
(0.230232 0.130901 0)
(0.14356 0.139907 0)
(0.0572136 0.162969 0)
(3 5.66425e-16 0)
(3 2.629e-16 0)
(3 3.29247e-16 0)
(3 8.09251e-16 0)
(3 1.70292e-16 0)
(3 -3.49914e-16 0)
(3 -3.36129e-16 0)
(3 -7.77596e-17 0)
(3 -2.61446e-17 0)
(3 -2.88745e-16 0)
(1.81878 0.109595 0)
(0.757461 0.11311 0)
(0.630751 0.115742 0)
(0.552224 0.124573 0)
(0.469412 0.135508 0)
(0.389035 0.145175 0)
(0.310336 0.149109 0)
(0.231306 0.158151 0)
(0.144953 0.169196 0)
(0.058931 0.197375 0)
(3 -8.15821e-17 0)
(3 -8.80462e-17 0)
(3 -1.45965e-16 0)
(3 3.5856e-16 0)
(3 -4.22656e-16 0)
(3 -1.83211e-16 0)
(3 -5.69485e-16 0)
(3 -3.96798e-16 0)
(3 8.17222e-16 0)
(3 3.93439e-17 0)
(1.86262 0.131777 0)
(0.761724 0.139085 0)
(0.630383 0.140399 0)
(0.552196 0.149968 0)
(0.471091 0.161411 0)
(0.393536 0.170842 0)
(0.31715 0.17415 0)
(0.238644 0.184932 0)
(0.149827 0.198822 0)
(0.0614735 0.232794 0)
(3 -2.63429e-16 0)
(3 -4.31128e-17 0)
(3 1.85764e-16 0)
(3 -1.65854e-16 0)
(3 -4.85363e-16 0)
(3 -5.71925e-16 0)
(3 -2.2879e-16 0)
(3 -3.46664e-16 0)
(3 1.4417e-16 0)
(3 -8.25593e-16 0)
(1.91634 0.154972 0)
(0.768322 0.165692 0)
(0.632847 0.164854 0)
(0.557671 0.175109 0)
(0.480283 0.186412 0)
(0.405558 0.195525 0)
(0.329313 0.199243 0)
(0.248372 0.213138 0)
(0.154798 0.230301 0)
(0.0628751 0.269405 0)
(3 -2.63603e-16 0)
(3 -2.49786e-16 0)
(3 9.42697e-17 0)
(3 -2.42558e-16 0)
(3 -1.13414e-16 0)
(3 -1.01215e-15 0)
(3 -7.15786e-16 0)
(3 -1.22523e-15 0)
(3 -1.16949e-15 0)
(3 -5.61949e-16 0)
(1.98553 0.178148 0)
(0.780615 0.192491 0)
(0.640935 0.189289 0)
(0.569704 0.198871 0)
(0.49579 0.210103 0)
(0.4229 0.220006 0)
(0.345829 0.225206 0)
(0.262372 0.242536 0)
(0.163997 0.26318 0)
(0.0671033 0.307459 0)
(3 1.57801e-17 0)
(3 -2.17346e-16 0)
(3 -4.74132e-16 0)
(3 -1.29629e-16 0)
(3 -4.15778e-16 0)
(3 -6.38452e-16 0)
(3 3.31119e-16 0)
(3 1.93711e-17 0)
(3 -4.99576e-16 0)
(3 -8.14152e-16 0)
(2.07129 0.197713 0)
(0.799762 0.21816 0)
(0.655326 0.210589 0)
(0.586603 0.220732 0)
(0.515494 0.232747 0)
(0.444413 0.244202 0)
(0.365863 0.251946 0)
(0.277942 0.274038 0)
(0.172076 0.298958 0)
(0.0684077 0.347749 0)
(3 1.75874e-16 0)
(3 5.15935e-16 0)
(3 -4.2462e-17 0)
(3 -4.24892e-16 0)
(3 4.53239e-16 0)
(3 5.78154e-16 0)
(3 1.04761e-15 0)
(3 3.45318e-16 0)
(3 7.52144e-17 0)
(3 1.9038e-17 0)
(2.16735 0.211549 0)
(0.821514 0.242837 0)
(0.668393 0.232786 0)
(0.604192 0.242658 0)
(0.537534 0.254416 0)
(0.468392 0.268147 0)
(0.387509 0.28009 0)
(0.294593 0.307808 0)
(0.18196 0.337047 0)
(0.0721433 0.389756 0)
(3 -2.20753e-16 0)
(3 1.22731e-16 0)
(3 3.19659e-16 0)
(3 -1.91108e-17 0)
(3 3.12131e-16 0)
(3 1.8498e-16 0)
(3 2.59932e-16 0)
(3 2.12098e-16 0)
(3 -3.86763e-16 0)
(3 -5.51539e-16 0)
(2.26629 0.222931 0)
(0.842341 0.268351 0)
(0.683753 0.251575 0)
(0.624564 0.260363 0)
(0.560887 0.274071 0)
(0.49254 0.292023 0)
(0.409005 0.310048 0)
(0.310307 0.344733 0)
(0.189285 0.378762 0)
(0.0718471 0.434115 0)
(3 8.77883e-17 0)
(3 8.76379e-17 0)
(3 1.37244e-16 0)
(3 2.08704e-16 0)
(3 2.60815e-17 0)
(3 -5.38598e-17 0)
(3 -4.15363e-17 0)
(3 2.68936e-16 0)
(3 -3.9452e-17 0)
(3 -5.13407e-16 0)
(2.37614 0.228853 0)
(0.868712 0.290642 0)
(0.696754 0.269777 0)
(0.6394 0.278861 0)
(0.578746 0.294291 0)
(0.51314 0.315827 0)
(0.429834 0.340863 0)
(0.329256 0.38319 0)
(0.203045 0.422666 0)
(0.0773912 0.480798 0)
(3 -7.40324e-17 0)
(3 -8.27911e-17 0)
(3 1.50917e-16 0)
(3 1.11592e-16 0)
(3 -3.68202e-16 0)
(3 2.21821e-16 0)
(3 3.3398e-16 0)
(3 1.22607e-16 0)
(3 1.72037e-16 0)
(3 -8.71738e-17 0)
(2.48325 0.229684 0)
(0.889523 0.317375 0)
(0.694868 0.288545 0)
(0.637234 0.298824 0)
(0.579501 0.315886 0)
(0.521198 0.340614 0)
(0.445269 0.371958 0)
(0.347162 0.423304 0)
(0.21513 0.471076 0)
(0.0786851 0.532056 0)
(3 -1.10519e-16 0)
(3 -6.78663e-16 0)
(3 -2.33379e-16 0)
(3 2.63818e-16 0)
(3 7.95195e-17 0)
(3 4.98831e-17 0)
(3 -1.32124e-16 0)
(3 1.95583e-16 0)
(3 -2.08481e-16 0)
(3 -7.62964e-17 0)
(2.58947 0.237378 0)
(0.909716 0.349263 0)
(0.692285 0.308134 0)
(0.632274 0.316981 0)
(0.572935 0.332921 0)
(0.519058 0.361545 0)
(0.452042 0.401174 0)
(0.363556 0.463018 0)
(0.233963 0.521541 0)
(0.0885296 0.587782 0)
(3 -2.21777e-16 0)
(3 -6.25244e-16 0)
(3 -4.99352e-16 0)
(3 2.61013e-16 0)
(3 2.50873e-16 0)
(3 -1.93646e-16 0)
(3 -5.53248e-16 0)
(3 1.02766e-16 0)
(3 -2.23134e-16 0)
(3 -1.23414e-16 0)
(2.73766 0.230222 0)
(0.957832 0.383231 0)
(0.70919 0.331592 0)
(0.640234 0.340851 0)
(0.573267 0.354519 0)
(0.515085 0.381193 0)
(0.453648 0.426866 0)
(0.376195 0.500835 0)
(0.247537 0.576986 0)
(0.0912634 0.652153 0)
(3 -4.95466e-17 0)
(3 4.50026e-17 0)
(3 -2.69285e-16 0)
(3 -5.76012e-16 0)
(3 -1.64627e-17 0)
(3 5.53257e-16 0)
(3 4.85857e-16 0)
(3 -6.80934e-16 0)
(3 -4.37536e-16 0)
(3 2.26183e-16 0)
(2.93398 0.181794 0)
(1.04724 0.412854 0)
(0.763461 0.352894 0)
(0.675211 0.364989 0)
(0.590037 0.378606 0)
(0.51954 0.403809 0)
(0.457125 0.451241 0)
(0.389601 0.536533 0)
(0.269952 0.634084 0)
(0.104637 0.7239 0)
(3 1.75554e-16 0)
(3 -6.79503e-17 0)
(3 -2.93822e-16 0)
(3 -9.73759e-16 0)
(3 -5.10512e-16 0)
(3 1.38928e-16 0)
(3 2.81398e-16 0)
(3 -3.63024e-16 0)
(3 -1.16563e-15 0)
(3 -1.07913e-15 0)
(3.06909 0.0833868 0)
(1.14744 0.413519 0)
(0.834287 0.375771 0)
(0.729516 0.399666 0)
(0.622731 0.408299 0)
(0.537675 0.429388 0)
(0.467769 0.475888 0)
(0.406297 0.570426 0)
(0.294301 0.697152 0)
(0.111622 0.8126 0)
(3 2.18688e-17 0)
(3 -2.60794e-16 0)
(3 -6.3374e-16 0)
(3 -3.84095e-16 0)
(3 -4.21077e-16 0)
(3 -4.47478e-16 0)
(3 -7.82845e-16 0)
(3 -3.24002e-16 0)
(3 -6.27316e-16 0)
(3 -9.10496e-16 0)
(3.0523 0.0178115 0)
(1.19139 0.395082 0)
(0.852309 0.411413 0)
(0.776162 0.436655 0)
(0.669303 0.441588 0)
(0.574658 0.457567 0)
(0.491314 0.501888 0)
(0.430816 0.604324 0)
(0.338552 0.760455 0)
(0.13363 0.916355 0)
(3 -1.15537e-16 0)
(3 3.2095e-17 0)
(3 -8.91291e-18 0)
(3 -2.01771e-16 0)
(3 -3.68045e-16 0)
(3 -1.05736e-16 0)
(3 2.42238e-16 0)
(3 -1.40633e-16 0)
(3 2.99424e-16 0)
(3 -1.57186e-17 0)
(3.00786 0.000857072 0)
(1.22856 0.396309 0)
(0.838722 0.429137 0)
(0.793695 0.466234 0)
(0.711985 0.473017 0)
(0.624085 0.489747 0)
(0.533184 0.528644 0)
(0.468985 0.634659 0)
(0.403554 0.825556 0)
(0.204853 1.07694 0)
(3 2.15589e-16 0)
(3 -9.1993e-17 0)
(3 2.64429e-16 0)
(3 5.19223e-16 0)
(3 2.269e-16 0)
(3 -1.49775e-16 0)
(3 1.78914e-16 0)
(3 4.18747e-16 0)
(3 6.38082e-16 0)
(3 -9.30679e-16 0)
(1.73519 0.00620965 0)
(0.762784 0.00772833 0)
(0.663398 0.00983696 0)
(0.598035 0.0112165 0)
(0.521698 0.0128386 0)
(0.439145 0.0143435 0)
(0.35155 0.0149484 0)
(0.260085 0.015529 0)
(0.16258 0.0162024 0)
(0.0616712 0.0183834 0)
(3 1.67405e-16 0)
(3 -4.65956e-16 0)
(3 -1.29803e-16 0)
(3 3.52224e-16 0)
(3 3.72366e-16 0)
(3 3.22862e-16 0)
(3 9.96089e-16 0)
(3 7.15078e-16 0)
(3 3.60309e-16 0)
(3 -9.25731e-16 0)
(1.73099 0.0212693 0)
(0.755468 0.0244802 0)
(0.653767 0.0278922 0)
(0.587675 0.0316913 0)
(0.510968 0.036263 0)
(0.42892 0.040973 0)
(0.343132 0.0435992 0)
(0.254626 0.0463965 0)
(0.160163 0.0490687 0)
(0.0616437 0.0559871 0)
(3 -2.0971e-16 0)
(3 -2.73902e-16 0)
(3 -4.59664e-16 0)
(3 -6.20956e-16 0)
(3 -2.49658e-16 0)
(3 9.87399e-16 0)
(3 9.307e-16 0)
(3 4.46492e-16 0)
(3 1.12417e-16 0)
(3 -3.20767e-16 0)
(1.73538 0.0412407 0)
(0.750222 0.0431316 0)
(0.643657 0.0472818 0)
(0.57549 0.0532925 0)
(0.497927 0.0605602 0)
(0.41613 0.0674448 0)
(0.331683 0.0709799 0)
(0.245811 0.0755207 0)
(0.154802 0.0804411 0)
(0.0605326 0.0927716 0)
(3 1.12445e-16 0)
(3 3.79929e-16 0)
(3 -7.62005e-17 0)
(3 -2.35914e-16 0)
(3 5.39552e-16 0)
(3 9.74185e-16 0)
(3 1.88958e-16 0)
(3 3.98862e-16 0)
(3 2.6046e-16 0)
(3 -3.11208e-16 0)
(1.75175 0.0645331 0)
(0.749155 0.0646573 0)
(0.635631 0.0681483 0)
(0.563586 0.0754824 0)
(0.48434 0.0848008 0)
(0.402913 0.0933673 0)
(0.320031 0.0974357 0)
(0.236338 0.103457 0)
(0.147957 0.110496 0)
(0.0584366 0.128458 0)
(3 2.33403e-16 0)
(3 3.15324e-16 0)
(3 4.75432e-16 0)
(3 7.25661e-16 0)
(3 1.12281e-15 0)
(3 1.87727e-16 0)
(3 1.62574e-17 0)
(3 7.3622e-16 0)
(3 -2.12994e-17 0)
(3 -1.16564e-16 0)
(1.78088 0.0876939 0)
(0.752793 0.0881593 0)
(0.632037 0.0912948 0)
(0.555863 0.0995815 0)
(0.474133 0.109757 0)
(0.392709 0.119134 0)
(0.311571 0.123303 0)
(0.230232 0.130901 0)
(0.14356 0.139907 0)
(0.0572136 0.162969 0)
(3 1.17846e-16 0)
(3 1.03033e-16 0)
(3 3.56744e-16 0)
(3 6.50452e-16 0)
(3 2.39928e-16 0)
(3 -4.07773e-16 0)
(3 -2.55988e-16 0)
(3 4.36053e-16 0)
(3 1.38153e-16 0)
(3 -4.73957e-16 0)
(1.81878 0.109595 0)
(0.757461 0.11311 0)
(0.630751 0.115742 0)
(0.552224 0.124573 0)
(0.469412 0.135508 0)
(0.389035 0.145175 0)
(0.310336 0.149109 0)
(0.231306 0.158151 0)
(0.144953 0.169196 0)
(0.058931 0.197375 0)
(3 2.70437e-18 0)
(3 -1.87459e-16 0)
(3 2.07787e-17 0)
(3 6.18101e-16 0)
(3 1.86543e-17 0)
(3 -4.31006e-17 0)
(3 -2.83703e-16 0)
(3 -3.85386e-16 0)
(3 2.20246e-16 0)
(3 -3.83739e-16 0)
(1.86262 0.131777 0)
(0.761724 0.139085 0)
(0.630383 0.140399 0)
(0.552196 0.149968 0)
(0.471091 0.161411 0)
(0.393536 0.170842 0)
(0.31715 0.17415 0)
(0.238644 0.184932 0)
(0.149827 0.198822 0)
(0.0614735 0.232794 0)
(3 -1.42192e-16 0)
(3 1.57114e-17 0)
(3 1.95959e-16 0)
(3 5.64045e-17 0)
(3 -1.77416e-16 0)
(3 -2.19545e-16 0)
(3 -2.13443e-16 0)
(3 -5.45274e-16 0)
(3 1.57648e-16 0)
(3 -5.41473e-16 0)
(1.91634 0.154972 0)
(0.768322 0.165692 0)
(0.632847 0.164854 0)
(0.557671 0.175109 0)
(0.480283 0.186412 0)
(0.405558 0.195525 0)
(0.329313 0.199243 0)
(0.248372 0.213138 0)
(0.154798 0.230301 0)
(0.0628751 0.269405 0)
(3 -9.08535e-17 0)
(3 -1.98994e-16 0)
(3 3.6773e-17 0)
(3 -3.75077e-16 0)
(3 -5.24082e-16 0)
(3 -9.58847e-16 0)
(3 -5.03536e-16 0)
(3 -1.15725e-15 0)
(3 -1.10628e-15 0)
(3 -6.11671e-16 0)
(1.98553 0.178148 0)
(0.780615 0.192491 0)
(0.640935 0.189289 0)
(0.569704 0.198871 0)
(0.49579 0.210103 0)
(0.4229 0.220006 0)
(0.345829 0.225206 0)
(0.262372 0.242536 0)
(0.163997 0.26318 0)
(0.0671033 0.307459 0)
(3 -1.66929e-16 0)
(3 -1.66584e-16 0)
(3 -1.71975e-16 0)
(3 -4.75792e-17 0)
(3 -2.3788e-16 0)
(3 -6.82414e-16 0)
(3 -8.0514e-17 0)
(3 -7.36068e-18 0)
(3 -7.17626e-16 0)
(3 -8.90351e-16 0)
(2.07129 0.197713 0)
(0.799762 0.21816 0)
(0.655326 0.210589 0)
(0.586603 0.220732 0)
(0.515494 0.232747 0)
(0.444413 0.244202 0)
(0.365863 0.251946 0)
(0.277942 0.274038 0)
(0.172076 0.298958 0)
(0.0684077 0.347749 0)
(3 1.68961e-16 0)
(3 7.20709e-16 0)
(3 3.127e-16 0)
(3 4.64453e-17 0)
(3 1.80173e-16 0)
(3 4.40545e-16 0)
(3 6.78184e-16 0)
(3 5.17544e-16 0)
(3 5.19036e-16 0)
(3 1.20924e-16 0)
(2.16735 0.211549 0)
(0.821514 0.242837 0)
(0.668393 0.232786 0)
(0.604192 0.242658 0)
(0.537534 0.254416 0)
(0.468392 0.268147 0)
(0.387509 0.28009 0)
(0.294593 0.307808 0)
(0.18196 0.337047 0)
(0.0721433 0.389756 0)
(3 4.17822e-16 0)
(3 8.95367e-17 0)
(3 -1.27083e-16 0)
(3 -3.10704e-16 0)
(3 6.24106e-17 0)
(3 2.94817e-16 0)
(3 5.77105e-16 0)
(3 7.63945e-17 0)
(3 2.08425e-16 0)
(3 -9.27638e-17 0)
(2.26629 0.222931 0)
(0.842341 0.268351 0)
(0.683753 0.251575 0)
(0.624564 0.260363 0)
(0.560887 0.274071 0)
(0.49254 0.292023 0)
(0.409005 0.310048 0)
(0.310307 0.344733 0)
(0.189285 0.378762 0)
(0.0718471 0.434115 0)
(3 -1.71038e-16 0)
(3 -2.3692e-16 0)
(3 3.11583e-18 0)
(3 4.28381e-17 0)
(3 6.59715e-17 0)
(3 1.40714e-16 0)
(3 5.73271e-17 0)
(3 3.39084e-16 0)
(3 -6.88844e-17 0)
(3 -3.72313e-16 0)
(2.37614 0.228853 0)
(0.868712 0.290642 0)
(0.696754 0.269777 0)
(0.6394 0.278861 0)
(0.578746 0.294291 0)
(0.51314 0.315827 0)
(0.429834 0.340863 0)
(0.329256 0.38319 0)
(0.203045 0.422666 0)
(0.0773912 0.480798 0)
(3 -2.54023e-16 0)
(3 -1.08037e-16 0)
(3 2.15432e-16 0)
(3 8.53809e-16 0)
(3 7.30504e-16 0)
(3 5.27849e-16 0)
(3 4.41727e-16 0)
(3 5.36694e-16 0)
(3 3.22706e-16 0)
(3 -2.97787e-16 0)
(2.48325 0.229684 0)
(0.889523 0.317375 0)
(0.694868 0.288545 0)
(0.637234 0.298824 0)
(0.579501 0.315886 0)
(0.521198 0.340614 0)
(0.445269 0.371958 0)
(0.347162 0.423304 0)
(0.21513 0.471076 0)
(0.0786851 0.532056 0)
(3 1.61026e-17 0)
(3 -3.10772e-16 0)
(3 -2.45968e-16 0)
(3 4.22211e-16 0)
(3 5.04041e-16 0)
(3 1.91972e-16 0)
(3 4.47807e-18 0)
(3 -1.1839e-16 0)
(3 3.26809e-16 0)
(3 -1.34414e-16 0)
(2.58947 0.237378 0)
(0.909716 0.349263 0)
(0.692285 0.308134 0)
(0.632274 0.316981 0)
(0.572935 0.332921 0)
(0.519058 0.361545 0)
(0.452042 0.401174 0)
(0.363556 0.463018 0)
(0.233963 0.521541 0)
(0.0885296 0.587782 0)
(3 -4.15491e-17 0)
(3 -5.0533e-16 0)
(3 -5.59769e-16 0)
(3 -6.54607e-16 0)
(3 -9.97986e-17 0)
(3 1.96606e-17 0)
(3 -2.72281e-16 0)
(3 8.43663e-18 0)
(3 -1.57732e-16 0)
(3 -2.70854e-16 0)
(2.73766 0.230222 0)
(0.957832 0.383231 0)
(0.70919 0.331592 0)
(0.640234 0.340851 0)
(0.573267 0.354519 0)
(0.515085 0.381193 0)
(0.453648 0.426866 0)
(0.376195 0.500835 0)
(0.247537 0.576986 0)
(0.0912634 0.652153 0)
(3 -6.82287e-18 0)
(3 -4.85346e-17 0)
(3 -4.24006e-16 0)
(3 -4.19786e-16 0)
(3 -3.91113e-16 0)
(3 2.26396e-16 0)
(3 1.27177e-16 0)
(3 -4.58791e-16 0)
(3 -2.8159e-16 0)
(3 -4.18961e-17 0)
(2.93398 0.181794 0)
(1.04724 0.412854 0)
(0.763461 0.352894 0)
(0.675211 0.364989 0)
(0.590037 0.378606 0)
(0.51954 0.403809 0)
(0.457125 0.451241 0)
(0.389601 0.536533 0)
(0.269952 0.634084 0)
(0.104637 0.7239 0)
(3 1.28067e-17 0)
(3 -2.61663e-17 0)
(3 -3.19573e-16 0)
(3 -1.07212e-15 0)
(3 -6.97996e-16 0)
(3 -1.51469e-16 0)
(3 -1.85794e-16 0)
(3 -3.05923e-16 0)
(3 -6.21483e-16 0)
(3 -8.59181e-16 0)
(3.06909 0.0833868 0)
(1.14744 0.413519 0)
(0.834287 0.375771 0)
(0.729516 0.399666 0)
(0.622731 0.408299 0)
(0.537675 0.429388 0)
(0.467769 0.475888 0)
(0.406297 0.570426 0)
(0.294301 0.697152 0)
(0.111622 0.8126 0)
(3 -6.76479e-17 0)
(3 -1.33537e-16 0)
(3 -2.95685e-16 0)
(3 -6.03111e-16 0)
(3 -6.16591e-16 0)
(3 -2.34124e-16 0)
(3 -5.58402e-16 0)
(3 -2.86938e-16 0)
(3 -2.05222e-16 0)
(3 -8.2255e-16 0)
(3.0523 0.0178115 0)
(1.19139 0.395082 0)
(0.852309 0.411413 0)
(0.776162 0.436655 0)
(0.669303 0.441588 0)
(0.574658 0.457567 0)
(0.491314 0.501888 0)
(0.430816 0.604324 0)
(0.338552 0.760455 0)
(0.13363 0.916355 0)
(3 5.8907e-17 0)
(3 -6.49262e-17 0)
(3 1.86944e-16 0)
(3 1.38153e-16 0)
(3 -3.30503e-16 0)
(3 6.31526e-17 0)
(3 4.55921e-17 0)
(3 -9.25507e-17 0)
(3 1.66927e-17 0)
(3 -8.95244e-17 0)
(3.00786 0.000857072 0)
(1.22856 0.396309 0)
(0.838722 0.429137 0)
(0.793695 0.466234 0)
(0.711985 0.473017 0)
(0.624085 0.489747 0)
(0.533184 0.528644 0)
(0.468985 0.634659 0)
(0.403554 0.825556 0)
(0.204853 1.07694 0)
(3 1.18526e-16 0)
(3 -1.64401e-16 0)
(3 2.83011e-16 0)
(3 1.09595e-16 0)
(3 3.1371e-17 0)
(3 6.52554e-17 0)
(3 3.00116e-16 0)
(3 2.21049e-16 0)
(3 3.24076e-16 0)
(3 -3.83256e-16 0)
(1.73519 0.00620965 0)
(0.762784 0.00772833 0)
(0.663398 0.00983696 0)
(0.598035 0.0112165 0)
(0.521698 0.0128386 0)
(0.439145 0.0143435 0)
(0.35155 0.0149484 0)
(0.260085 0.015529 0)
(0.16258 0.0162024 0)
(0.0616712 0.0183834 0)
(3 1.31641e-18 0)
(3 -3.27772e-16 0)
(3 1.91685e-16 0)
(3 1.76325e-16 0)
(3 1.8605e-16 0)
(3 3.86512e-16 0)
(3 7.25364e-16 0)
(3 6.26506e-16 0)
(3 3.28788e-16 0)
(3 -5.7229e-16 0)
(1.73099 0.0212693 0)
(0.755468 0.0244802 0)
(0.653767 0.0278922 0)
(0.587675 0.0316913 0)
(0.510968 0.036263 0)
(0.42892 0.040973 0)
(0.343132 0.0435992 0)
(0.254626 0.0463965 0)
(0.160163 0.0490687 0)
(0.0616437 0.0559871 0)
(3 -1.14708e-16 0)
(3 1.05827e-16 0)
(3 -2.13098e-17 0)
(3 1.31363e-16 0)
(3 3.69058e-16 0)
(3 9.16998e-16 0)
(3 8.47935e-16 0)
(3 6.75946e-16 0)
(3 2.5947e-16 0)
(3 -4.43445e-16 0)
(1.73538 0.0412407 0)
(0.750222 0.0431316 0)
(0.643657 0.0472818 0)
(0.57549 0.0532925 0)
(0.497927 0.0605602 0)
(0.41613 0.0674448 0)
(0.331683 0.0709799 0)
(0.245811 0.0755207 0)
(0.154802 0.0804411 0)
(0.0605326 0.0927716 0)
(3 5.38547e-17 0)
(3 3.805e-16 0)
(3 1.42637e-17 0)
(3 2.31517e-17 0)
(3 6.00995e-16 0)
(3 9.4906e-16 0)
(3 1.14423e-16 0)
(3 2.2643e-16 0)
(3 3.70712e-16 0)
(3 -2.16294e-16 0)
(1.75175 0.0645331 0)
(0.749155 0.0646573 0)
(0.635631 0.0681483 0)
(0.563586 0.0754824 0)
(0.48434 0.0848008 0)
(0.402913 0.0933673 0)
(0.320031 0.0974357 0)
(0.236338 0.103457 0)
(0.147957 0.110496 0)
(0.0584366 0.128458 0)
(3 9.79471e-17 0)
(3 8.07612e-17 0)
(3 3.08136e-16 0)
(3 5.59895e-16 0)
(3 9.39437e-16 0)
(3 5.7817e-16 0)
(3 -1.4765e-16 0)
(3 2.5149e-16 0)
(3 1.56487e-16 0)
(3 1.46013e-16 0)
(1.78088 0.0876939 0)
(0.752793 0.0881593 0)
(0.632037 0.0912948 0)
(0.555863 0.0995815 0)
(0.474133 0.109757 0)
(0.392709 0.119134 0)
(0.311571 0.123303 0)
(0.230232 0.130901 0)
(0.14356 0.139907 0)
(0.0572136 0.162969 0)
(3 1.48295e-16 0)
(3 -1.44749e-16 0)
(3 1.76534e-16 0)
(3 3.81566e-16 0)
(3 4.13403e-16 0)
(3 -2.93325e-16 0)
(3 5.17609e-17 0)
(3 -1.59189e-16 0)
(3 -4.39287e-16 0)
(3 -4.6118e-16 0)
(1.81878 0.109595 0)
(0.757461 0.11311 0)
(0.630751 0.115742 0)
(0.552224 0.124573 0)
(0.469412 0.135508 0)
(0.389035 0.145175 0)
(0.310336 0.149109 0)
(0.231306 0.158151 0)
(0.144953 0.169196 0)
(0.058931 0.197375 0)
(3 -1.268e-16 0)
(3 -2.36899e-16 0)
(3 -1.36176e-16 0)
(3 3.98841e-16 0)
(3 -1.44564e-18 0)
(3 -4.87538e-16 0)
(3 -3.33571e-16 0)
(3 -4.2613e-17 0)
(3 -3.17914e-16 0)
(3 -1.80778e-16 0)
(1.86262 0.131777 0)
(0.761724 0.139085 0)
(0.630383 0.140399 0)
(0.552196 0.149968 0)
(0.471091 0.161411 0)
(0.393536 0.170842 0)
(0.31715 0.17415 0)
(0.238644 0.184932 0)
(0.149827 0.198822 0)
(0.0614735 0.232794 0)
(3 -9.28566e-17 0)
(3 -1.93254e-16 0)
(3 3.64285e-17 0)
(3 1.35598e-16 0)
(3 -3.06283e-16 0)
(3 -7.52738e-17 0)
(3 -3.89915e-16 0)
(3 -2.88631e-16 0)
(3 5.85548e-17 0)
(3 3.58418e-16 0)
(1.91634 0.154972 0)
(0.768322 0.165692 0)
(0.632847 0.164854 0)
(0.557671 0.175109 0)
(0.480283 0.186412 0)
(0.405558 0.195525 0)
(0.329313 0.199243 0)
(0.248372 0.213138 0)
(0.154798 0.230301 0)
(0.0628751 0.269405 0)
(3 5.18198e-17 0)
(3 -1.39768e-16 0)
(3 -1.92503e-16 0)
(3 -4.60248e-16 0)
(3 -7.17266e-16 0)
(3 -2.79549e-16 0)
(3 2.14258e-16 0)
(3 -6.34311e-16 0)
(3 -8.85949e-16 0)
(3 -1.28488e-15 0)
(1.98553 0.178148 0)
(0.780615 0.192491 0)
(0.640935 0.189289 0)
(0.569704 0.198871 0)
(0.49579 0.210103 0)
(0.4229 0.220006 0)
(0.345829 0.225206 0)
(0.262372 0.242536 0)
(0.163997 0.26318 0)
(0.0671033 0.307459 0)
(3 -2.01861e-16 0)
(3 1.19886e-17 0)
(3 -9.78982e-17 0)
(3 -1.93719e-16 0)
(3 -2.31393e-16 0)
(3 -3.35267e-16 0)
(3 2.21174e-16 0)
(3 -9.38498e-17 0)
(3 -1.16264e-16 0)
(3 -7.19155e-16 0)
(2.07129 0.197713 0)
(0.799762 0.21816 0)
(0.655326 0.210589 0)
(0.586603 0.220732 0)
(0.515494 0.232747 0)
(0.444413 0.244202 0)
(0.365863 0.251946 0)
(0.277942 0.274038 0)
(0.172076 0.298958 0)
(0.0684077 0.347749 0)
(3 1.28005e-16 0)
(3 2.46657e-16 0)
(3 4.12374e-16 0)
(3 2.5032e-16 0)
(3 6.29153e-16 0)
(3 3.43201e-16 0)
(3 3.22347e-16 0)
(3 4.33616e-16 0)
(3 5.22104e-16 0)
(3 2.90172e-16 0)
(2.16735 0.211549 0)
(0.821514 0.242837 0)
(0.668393 0.232786 0)
(0.604192 0.242658 0)
(0.537534 0.254416 0)
(0.468392 0.268147 0)
(0.387509 0.28009 0)
(0.294593 0.307808 0)
(0.18196 0.337047 0)
(0.0721433 0.389756 0)
(3 3.56647e-16 0)
(3 -1.24048e-16 0)
(3 -1.94227e-16 0)
(3 1.73465e-16 0)
(3 2.37196e-16 0)
(3 3.62557e-16 0)
(3 2.27248e-16 0)
(3 2.3286e-16 0)
(3 2.47837e-16 0)
(3 -1.91059e-16 0)
(2.26629 0.222931 0)
(0.842341 0.268351 0)
(0.683753 0.251575 0)
(0.624564 0.260363 0)
(0.560887 0.274071 0)
(0.49254 0.292023 0)
(0.409005 0.310048 0)
(0.310307 0.344733 0)
(0.189285 0.378762 0)
(0.0718471 0.434115 0)
(3 -1.6666e-16 0)
(3 -1.33414e-16 0)
(3 1.71537e-16 0)
(3 2.02744e-16 0)
(3 1.02534e-16 0)
(3 1.59716e-16 0)
(3 1.75442e-16 0)
(3 1.34724e-16 0)
(3 1.41437e-16 0)