/*--------------------------------*- C++ -*----------------------------------*\
  =========                 |
  \\      /  F ield         | OpenFOAM: The Open Source CFD Toolbox
   \\    /   O peration     | Website:  https://openfoam.org
    \\  /    A nd           | Version:  6.0
     \\/     M anipulation  |
\*---------------------------------------------------------------------------*/
FoamFile
{
    version     2.0;
    format      ascii;
    class       volScalarField;
    location    "0.5";
    object      p;
}
// * * * * * * * * * * * * * * * * * * * * * * * * * * * * * * * * * * * * * //

dimensions      [1 -1 -2 0 0 0 0];

internalField   nonuniform List<scalar> 
192000
(
0.758322
0.653493
0.611402
0.584053
0.566441
0.553521
0.543624
0.53582
0.52944
0.524064
0.519527
0.515565
0.512168
0.509065
0.506425
0.503864
0.501813
0.499694
0.498304
0.498408
0.499346
0.501087
0.51174
0.526164
0.59664
0.701674
1.19343
2.31218
5.44919
5.63934
5.53217
5.26931
5.18035
5.20467
5.28838
5.4834
5.70653
6.00828
6.44015
7.33687
0.75832
0.653494
0.611403
0.584055
0.56644
0.553521
0.543623
0.53582
0.52944
0.524064
0.519528
0.515564
0.512169
0.509064
0.506425
0.503864
0.501813
0.499694
0.498305
0.498409
0.499394
0.501031
0.511942
0.525314
0.59811
0.694405
1.20672
2.30354
5.45278
5.63828
5.53157
5.26856
5.18207
5.20626
5.29028
5.48496
5.70525
6.0078
6.43976
7.33517
0.75832
0.653494
0.611403
0.584055
0.56644
0.553521
0.543622
0.53582
0.52944
0.524063
0.519528
0.515564
0.512169
0.509064
0.506425
0.503864
0.501814
0.499693
0.498311
0.498417
0.499405
0.501051
0.511946
0.525342
0.597969
0.694671
1.20594
2.302
5.45247
5.63756
5.53061
5.26779
5.1847
5.2086
5.29272
5.48707
5.70396
6.00716
6.43871
7.33228
0.75832
0.653494
0.611403
0.584055
0.56644
0.553521
0.543622
0.53582
0.52944
0.524064
0.519527
0.515565
0.512168
0.509065
0.506424
0.503864
0.501813
0.499693
0.498309
0.498416
0.4994
0.501049
0.511975
0.525587
0.597599
0.697893
1.2004
2.30473
5.45052
5.63622
5.5288
5.26648
5.18814
5.21191
5.29653
5.48996
5.70306
6.00625
6.43695
7.32828
0.758321
0.653494
0.611403
0.584054
0.56644
0.553521
0.543623
0.53582
0.52944
0.524063
0.519527
0.515564
0.512168
0.509065
0.506424
0.503865
0.501812
0.499695
0.498302
0.498406
0.499383
0.501018
0.511906
0.525293
0.597915
0.694416
1.20479
2.30255
5.44941
5.63392
5.52679
5.26604
5.19228
5.21645
5.30159
5.49338
5.70254
6.00501
6.43457
7.32385
0.758323
0.653493
0.611402
0.584053
0.566441
0.553521
0.543623
0.53582
0.52944
0.524064
0.519527
0.515565
0.512168
0.509065
0.506424
0.503865
0.501812
0.499695
0.4983
0.498403
0.499318
0.501054
0.511641
0.526078
0.596187
0.702463
1.18981
2.31017
5.44286
5.6316
5.52466
5.26564
5.19706
5.2215
5.30685
5.49701
5.70272
6.00366
6.43186
7.31956
0.758324
0.653493
0.611401
0.584052
0.566441
0.553521
0.543624
0.53582
0.52944
0.524064
0.519527
0.515565
0.512168
0.509066
0.506424
0.503865
0.501812
0.499696
0.498296
0.498396
0.499311
0.501029
0.511569
0.525844
0.596322
0.698301
1.19465
2.30554
5.44105
5.62842
5.52208
5.26558
5.2029
5.22785
5.3136
5.50171
5.7029
6.00207
6.42861
7.31505
0.758323
0.653493
0.611402
0.584052
0.566441
0.553521
0.543623
0.53582
0.52944
0.524064
0.519527
0.515565
0.512168
0.509066
0.506424
0.503865
0.50181
0.499697
0.498294
0.498395
0.499302
0.501019
0.511572
0.525904
0.5959
0.701333
1.18885
2.30484
5.43454
5.62512
5.51935
5.26556
5.20944
5.23505
5.32194
5.50683
5.70265
6.0002
6.42503
7.31099
0.758321
0.653494
0.611403
0.584054
0.566441
0.553521
0.543623
0.535821
0.529439
0.524064
0.519527
0.515565
0.512168
0.509066
0.506423
0.503866
0.501809
0.499698
0.49829
0.498391
0.499336
0.500942
0.511744
0.524978
0.597267
0.692626
1.20251
2.29191
5.43061
5.62114
5.51637
5.26578
5.21707
5.24368
5.33343
5.51205
5.70195
5.99804
6.42109
7.30718
0.758321
0.653494
0.611403
0.584055
0.566441
0.553521
0.543622
0.535821
0.529439
0.524064
0.519527
0.515565
0.512168
0.509066
0.506423
0.503867
0.501808
0.499699
0.498287
0.498389
0.49933
0.500938
0.51171
0.524982
0.596917
0.692973
1.19946
2.2879
5.42029
5.61689
5.51321
5.26601
5.22551
5.25269
5.34715
5.51696
5.70131
5.99584
6.41693
7.30385
0.758321
0.653494
0.611403
0.584055
0.566441
0.553521
0.543623
0.535821
0.529439
0.524064
0.519527
0.515565
0.512167
0.509066
0.506422
0.503867
0.501808
0.499699
0.498285
0.498386
0.49929
0.500996
0.511498
0.525716
0.595251
0.700191
1.18413
2.2905
5.40378
5.61228
5.51001
5.26684
5.23359
5.26267
5.36123
5.52237
5.70147
5.99376
6.41276
7.30088
0.758321
0.653494
0.611403
0.584054
0.566441
0.553521
0.543622
0.535821
0.529439
0.524064
0.519527
0.515565
0.512168
0.509066
0.506422
0.503867
0.501806
0.499701
0.498279
0.498379
0.499318
0.500914
0.511633
0.524749
0.596478
0.690659
1.19681
2.27457
5.39293
5.60574
5.50577
5.26792
5.24141
5.27304
5.37492
5.52803
5.70257
5.99181
6.40867
7.2983
0.758322
0.653494
0.611403
0.584054
0.566441
0.553521
0.543622
0.535821
0.529439
0.524065
0.519527
0.515565
0.512168
0.509066
0.506421
0.503868
0.501804
0.499702
0.498275
0.498375
0.499319
0.500915
0.511608
0.524743
0.595937
0.691197
1.19236
2.26634
5.37454
5.59789
5.50068
5.26905
5.24905
5.28336
5.38825
5.53402
5.70412
5.99027
6.4047
7.29614
0.758323
0.653494
0.611404
0.584053
0.566441
0.55352
0.543623
0.535821
0.529439
0.524065
0.519527
0.515565
0.512167
0.509066
0.506421
0.503869
0.501801
0.499706
0.498263
0.498361
0.4993
0.50089
0.511524
0.524589
0.595499
0.689983
1.18965
2.25691
5.35371
5.58881
5.49464
5.27002
5.25652
5.29338
5.40098
5.54016
5.70601
5.98917
6.40085
7.29443
0.758325
0.653494
0.611403
0.584051
0.566441
0.553519
0.543623
0.535821
0.529439
0.524066
0.519526
0.515566
0.512167
0.509067
0.506419
0.503871
0.501797
0.499711
0.498237
0.498324
0.49927
0.500835
0.511393
0.524343
0.595083
0.687997
1.18749
2.2468
5.32977
5.57771
5.4871
5.27084
5.26391
5.30317
5.41325
5.54635
5.70815
5.98848
6.39712
7.29304
0.758328
0.653493
0.611402
0.584049
0.566442
0.553518
0.543624
0.535821
0.529439
0.524066
0.519526
0.515566
0.512166
0.509069
0.506417
0.503874
0.501793
0.499715
0.498227
0.498318
0.499184
0.500845
0.511074
0.524998
0.593005
0.693313
1.17154
2.24345
5.29883
5.56497
5.47815
5.27147
5.27028
5.31198
5.42498
5.55251
5.71041
5.98836
6.39357
7.29171
0.75833
0.653493
0.611402
0.584047
0.566442
0.553517
0.543624
0.53582
0.529439
0.524066
0.519525
0.515567
0.512165
0.50907
0.506415
0.503876
0.501788
0.49972
0.49821
0.498298
0.499132
0.500772
0.510901
0.524735
0.592197
0.69171
1.16596
2.23127
5.26766
5.55023
5.46789
5.27233
5.27466
5.31977
5.43632
5.55859
5.71267
5.98879
6.39039
7.28998
0.758331
0.653494
0.611402
0.584046
0.566443
0.553517
0.543625
0.53582
0.529439
0.524067
0.519525
0.515568
0.512164
0.509071
0.506414
0.503878
0.501784
0.499724
0.498195
0.498279
0.499104
0.500723
0.510754
0.524412
0.591546
0.6888
1.16326
2.21484
5.23321
5.53376
5.45643
5.273
5.27783
5.32667
5.44685
5.56459
5.71481
5.98961
6.38751
7.28777
0.758332
0.653494
0.611402
0.584045
0.566443
0.553516
0.543625
0.535819
0.529439
0.524067
0.519524
0.515569
0.512162
0.509072
0.506412
0.503881
0.50178
0.499729
0.498174
0.49825
0.499075
0.500661
0.510601
0.524113
0.590621
0.687051
1.15733
2.19752
5.19338
5.51543
5.44367
5.27335
5.28024
5.33257
5.45628
5.57028
5.71658
5.99074
6.38457
7.28531
0.758333
0.653494
0.611402
0.584045
0.566443
0.553515
0.543626
0.535818
0.52944
0.524067
0.519523
0.51557
0.512161
0.509074
0.506409
0.503884
0.501774
0.499735
0.498156
0.498229
0.499037
0.500599
0.510423
0.523721
0.589748
0.683862
1.15237
2.17724
5.1488
5.49554
5.4298
5.27348
5.28211
5.33764
5.46439
5.57528
5.71788
5.99164
6.38117
7.28271
0.758334
0.653493
0.611402
0.584044
0.566443
0.553515
0.543627
0.535818
0.529441
0.524067
0.519523
0.515571
0.512159
0.509076
0.506405
0.503889
0.501767
0.499743
0.498135
0.498205
0.498992
0.50053
0.510271
0.523483
0.588528
0.68379
1.14186
2.15659
5.09755
5.47369
5.41444
5.27313
5.28317
5.34182
5.4711
5.57954
5.71871
5.99195
6.37697
7.27998
0.758334
0.653494
0.611402
0.584044
0.566443
0.553514
0.543627
0.535817
0.529442
0.524066
0.519523
0.515572
0.512156
0.509079
0.506401
0.503894
0.501758
0.499752
0.498111
0.498178
0.498964
0.500385
0.510235
0.52232
0.588905
0.674991
1.14495
2.12515
5.04417
5.45044
5.39786
5.27231
5.28339
5.34517
5.47624
5.58297
5.71903
5.9912
6.37162
7.27701
0.758336
0.653493
0.611401
0.584043
0.566443
0.553514
0.543628
0.535817
0.529442
0.524066
0.519523
0.515573
0.512154
0.509082
0.506396
0.5039
0.501749
0.499761
0.498088
0.498152
0.498891
0.500389
0.509853
0.522725
0.586041
0.678096
1.12506
2.10607
4.97549
5.42649
5.37991
5.27093
5.28298
5.348
5.4795
5.58537
5.7187
5.98872
6.3649
7.27341
0.758338
0.653493
0.611401
0.584042
0.566443
0.553514
0.543628
0.535817
0.529443
0.524065
0.519524
0.515573
0.512153
0.509084
0.506391
0.503906
0.501739
0.499771
0.49806
0.49812
0.498828
0.5003
0.509598
0.522207
0.584627
0.67434
1.11534
2.07553
4.90343
5.4024
5.36199
5.26875
5.28272
5.34903
5.4809
5.58672
5.71697
5.98451
6.35675
7.26861
0.758339
0.653493
0.611401
0.584041
0.566443
0.553514
0.543628
0.535817
0.529444
0.524064
0.519525
0.515572
0.512152
0.509086
0.506386
0.503912
0.501728
0.499782
0.498028
0.498081
0.498784
0.500112
0.509493
0.52092
0.584517
0.665762
1.11334
2.03613
4.82649
5.37688
5.34318
5.26625
5.28161
5.34902
5.48081
5.58639
5.71419
5.97888
6.3467
7.26204
0.75834
0.653493
0.6114
0.58404
0.566443
0.553515
0.543628
0.535818
0.529443
0.524065
0.519524
0.515572
0.512151
0.509088
0.506382
0.503919
0.501718
0.499792
0.498002
0.498056
0.498676
0.500125
0.508979
0.521176
0.580942
0.669952
1.08405
2.01292
4.73062
5.35151
5.3254
5.26275
5.27936
5.34818
5.47919
5.58408
5.70971
5.97105
6.33425
7.25334
0.758342
0.653493
0.6114
0.584039
0.566443
0.553515
0.543627
0.535819
0.529443
0.524065
0.519524
0.515572
0.51215
0.509089
0.506378
0.503925
0.501706
0.499804
0.497969
0.498017
0.498601
0.500016
0.508638
0.520519
0.578969
0.665419
1.06953
1.97317
4.63186
5.32755
5.30892
5.25902
5.27683
5.34672
5.47562
5.5795
5.70329
5.9607
6.31891
7.24174
0.758342
0.653493
0.6114
0.584039
0.566444
0.553515
0.543627
0.53582
0.529442
0.524066
0.519523
0.515571
0.51215
0.50909
0.506375
0.50393
0.501695
0.499817
0.497931
0.49797
0.498544
0.49978
0.508478
0.519141
0.578382
0.65491
1.06604
1.92024
4.52784
5.30289
5.29239
5.25544
5.27473
5.34415
5.47057
5.57309
5.69476
5.94714
6.30002
7.22652
0.758344
0.653492
0.611399
0.584038
0.566444
0.553516
0.543627
0.535821
0.529441
0.524067
0.519521
0.515573
0.512147
0.509093
0.50637
0.503937
0.501682
0.499831
0.497893
0.497929
0.498436
0.499779
0.507879
0.519136
0.574364
0.655957
1.03655
1.88257
4.40133
5.27967
5.27785
5.25239
5.27271
5.33969
5.46362
5.56437
5.68362
5.92947
6.27698
7.20684
0.758344
0.653492
0.611399
0.584038
0.566444
0.553517
0.543627
0.535823
0.529439
0.524069
0.519518
0.515575
0.512144
0.509095
0.506365
0.503944
0.50167
0.499845
0.497851
0.497878
0.498349
0.499643
0.507477
0.518341
0.571816
0.65036
1.01676
1.83002
4.26564
5.25771
5.26943
5.24964
5.26992
5.33407
5.45465
5.55332
5.66886
5.90715
6.24885
7.18141
0.758344
0.653492
0.611399
0.584038
0.566444
0.553517
0.543627
0.535824
0.529438
0.52407
0.519515
0.515577
0.51214
0.509099
0.50636
0.503951
0.501658
0.499859
0.497808
0.497824
0.498272
0.499395
0.507214
0.516862
0.570361
0.640027
1.00566
1.7623
4.12093
5.23719
5.26419
5.24797
5.26694
5.32717
5.44344
5.53951
5.65039
5.8794
6.21454
7.1486
0.758344
0.653492
0.6114
0.584038
0.566445
0.553518
0.543627
0.535825
0.529436
0.524072
0.519512
0.51558
0.512135
0.509104
0.506353
0.50396
0.501644
0.499875
0.497762
0.497768
0.498166
0.499266
0.506652
0.516004
0.566966
0.634427
0.98182
1.69952
3.95525
5.22037
5.26106
5.2477
5.26408
5.31889
5.42918
5.52238
5.62758
5.845
6.17259
7.10642
0.758343
0.653493
0.611399
0.584039
0.566446
0.553519
0.543628
0.535825
0.529435
0.524073
0.519509
0.515583
0.51213
0.50911
0.506346
0.50397
0.50163
0.499886
0.497727
0.497662
0.498018
0.499056
0.506047
0.514862
0.563597
0.627489
0.955747
1.63262
3.76993
5.21113
5.26136
5.24827
5.2608
5.30931
5.41142
5.50159
5.5997
5.80293
6.12127
7.05163
0.758342
0.653493
0.611399
0.584039
0.566447
0.553519
0.543628
0.535825
0.529434
0.524073
0.519507
0.515585
0.512126
0.509115
0.506338
0.50398
0.501616
0.499895
0.4977
0.497518
0.497846
0.49893
0.505159
0.514216
0.55822
0.624934
0.916165
1.57133
3.55435
5.21188
5.26653
5.24881
5.25681
5.29778
5.38991
5.47638
5.5656
5.75191
6.05845
6.98037
0.75834
0.653493
0.6114
0.584041
0.566447
0.55352
0.543628
0.535825
0.529433
0.524074
0.519505
0.515587
0.512123
0.50912
0.506333
0.503988
0.501607
0.499901
0.497675
0.497388
0.497683
0.498676
0.504511
0.512964
0.554183
0.61738
0.884882
1.49231
3.31935
5.22078
5.27661
5.2498
5.25112
5.28301
5.36386
5.44565
5.52371
5.69081
5.98127
6.88665
0.758338
0.653494
0.6114
0.584043
0.566447
0.55352
0.543627
0.535825
0.529432
0.524074
0.519504
0.515589
0.512122
0.509122
0.50633
0.503991
0.501604
0.499897
0.497674
0.49727
0.497526
0.498356
0.504016
0.511248
0.551165
0.604519
0.863788
1.39509
3.0746
5.23731
5.2867
5.25016
5.2404
5.26582
5.33473
5.40889
5.47347
5.61854
5.88499
6.76192
0.758337
0.653494
0.611401
0.584045
0.566446
0.553522
0.543626
0.535826
0.529431
0.524074
0.519503
0.51559
0.512121
0.509123
0.50633
0.503991
0.501606
0.499884
0.497691
0.497123
0.497351
0.498151
0.503128
0.509997
0.546226
0.596897
0.828291
1.31631
2.81243
5.24048
5.29048
5.24717
5.22409
5.2439
5.30023
5.36335
5.41411
5.53168
5.76312
6.59356
0.758342
0.653487
0.6114
0.584048
0.566443
0.553526
0.543622
0.53583
0.529428
0.524077
0.519502
0.515592
0.51212
0.509126
0.506329
0.503991
0.501611
0.499866
0.497719
0.496933
0.497109
0.498395
0.500537
0.513398
0.530205
0.614068
0.745107
1.2962
2.52605
5.21339
5.28185
5.23579
5.20136
5.2159
5.25879
5.30757
5.34228
5.42757
5.60668
6.36208
0.758341
0.653486
0.6114
0.584049
0.566441
0.553527
0.543619
0.535832
0.529426
0.524079
0.519502
0.515592
0.512123
0.509123
0.506335
0.503983
0.501626
0.499837
0.497758
0.496776
0.496924
0.498126
0.500024
0.511972
0.527071
0.604889
0.716652
1.23339
2.33265
5.07753
5.25335
5.21208
5.16922
5.17789
5.20484
5.2366
5.2521
5.29762
5.40315
6.03464
0.758338
0.653487
0.611401
0.584051
0.56644
0.553527
0.543618
0.535832
0.529425
0.52408
0.519502
0.515592
0.512126
0.509118
0.506345
0.503969
0.501647
0.4998
0.497805
0.496626
0.496747
0.497766
0.499488
0.510291
0.524164
0.595021
0.694215
1.17308
2.16977
4.84505
5.20572
5.17481
5.12674
5.12595
5.13303
5.14446
5.13666
5.13175
5.12876
5.53721
1.05251
1.04335
1.01973
0.992495
0.973626
0.957362
0.94458
0.933995
0.925022
0.917323
0.910719
0.904846
0.899748
0.895012
0.89098
0.886996
0.883883
0.880445
0.878974
0.879331
0.880775
0.887477
0.899834
0.946783
1.03567
1.32165
2.03588
4.20529
9.79652
9.81252
9.48138
9.02604
8.96438
9.01932
9.16763
9.44833
9.78472
10.2772
10.9181
11.9107
1.0525
1.04335
1.01973
0.992496
0.973625
0.957363
0.944579
0.933996
0.925022
0.917324
0.910719
0.904846
0.899748
0.895013
0.89098
0.886995
0.883883
0.880446
0.878964
0.879311
0.881429
0.886122
0.904106
0.938894
1.0512
1.29491
2.06839
4.18101
9.80044
9.81
9.47928
9.02573
8.9665
9.02134
9.16777
9.44848
9.78282
10.2762
10.9168
11.9055
1.0525
1.04335
1.01973
0.992497
0.973624
0.957363
0.944578
0.933996
0.925021
0.917324
0.910718
0.904846
0.899747
0.895013
0.89098
0.886996
0.883883
0.880444
0.87898
0.879338
0.881469
0.886179
0.9043
0.938886
1.05164
1.29407
2.06925
4.1764
9.79966
9.80773
9.47566
9.02483
8.97001
9.02482
9.17019
9.44916
9.78038
10.2745
10.9132
11.8965
1.0525
1.04335
1.01973
0.992496
0.973625
0.957363
0.944578
0.933996
0.925021
0.917323
0.910718
0.904846
0.899748
0.895012
0.890981
0.886996
0.883883
0.880445
0.878977
0.879335
0.881446
0.886344
0.903974
0.939996
1.0496
1.29873
2.06473
4.17731
9.79568
9.80376
9.47005
9.02354
8.97434
9.02958
9.1745
9.45011
9.77769
10.2715
10.9068
11.8844
1.0525
1.04335
1.01973
0.992496
0.973625
0.957363
0.944579
0.933996
0.925021
0.917323
0.910718
0.904846
0.899748
0.895013
0.89098
0.886996
0.883882
0.880447
0.878958
0.879302
0.881426
0.886129
0.904003
0.939044
1.05039
1.2957
2.06508
4.17891
9.79013
9.79643
9.46278
9.02244
8.97902
9.03542
9.18021
9.45116
9.77461
10.2666
10.8973
11.8718
1.05251
1.04335
1.01973
0.992494
0.973626
0.957362
0.94458
0.933995
0.925022
0.917323
0.910719
0.904846
0.899748
0.895013
0.89098
0.886996
0.883882
0.880447
0.878971
0.879324
0.88073
0.887481
0.899619
0.946917
1.03459
1.32211
2.03127
4.19963
9.77868
9.78911
9.45505
9.02139
8.98413
9.04229
9.1873
9.4526
9.77164
10.2605
10.885
11.8587
1.05251
1.04335
1.01973
0.992494
0.973626
0.957362
0.94458
0.933995
0.925022
0.917323
0.910719
0.904846
0.899748
0.895013
0.89098
0.886997
0.883881
0.880447
0.878971
0.879325
0.880778
0.887387
0.899899
0.946122
1.0356
1.31816
2.03267
4.19603
9.76928
9.77781
9.44455
9.01954
8.98942
9.04974
9.19492
9.45416
9.76773
10.2528
10.8707
11.8452
1.05251
1.04335
1.01973
0.992494
0.973625
0.957362
0.944579
0.933995
0.925022
0.917323
0.910719
0.904846
0.899748
0.895013
0.890979
0.886997
0.88388
0.880449
0.878963
0.879312
0.880711
0.887406
0.899563
0.946482
1.03441
1.31964
2.02946
4.18897
9.75611
9.76752
9.43499
9.01734
8.99506
9.05766
9.20328
9.45552
9.7627
10.2439
10.8546
11.832
1.05251
1.04335
1.01973
0.992496
0.973624
0.957364
0.944578
0.933996
0.925021
0.917323
0.910718
0.904846
0.899748
0.895014
0.890979
0.886998
0.883878
0.880451
0.878946
0.879288
0.881317
0.886067
0.90368
0.93838
1.04954
1.29224
2.06063
4.15881
9.74176
9.75397
9.42383
9.01398
9.00062
9.06583
9.21245
9.45625
9.75639
10.2339
10.8372
11.8192
1.0525
1.04335
1.01973
0.992497
0.973623
0.957364
0.944578
0.933996
0.925021
0.917323
0.910718
0.904846
0.899747
0.895014
0.890978
0.886998
0.883877
0.880452
0.878941
0.879283
0.881291
0.886071
0.903554
0.93838
1.04869
1.29216
2.05646
4.15075
9.71958
9.73972
9.41263
9.00992
9.00592
9.07356
9.22246
9.4566
9.74948
10.2232
10.8187
11.8066
1.05251
1.04335
1.01973
0.992497
0.973624
0.957364
0.944578
0.933997
0.925021
0.917323
0.910718
0.904846
0.899747
0.895014
0.890977
0.886999
0.883876
0.880451
0.878942
0.879289
0.880719
0.887257
0.899567
0.94558
1.03384
1.315
2.02371
4.15944
9.68962
9.72443
9.40131
9.00633
9.00919
9.08074
9.23269
9.45677
9.7425
10.2118
10.7987
11.7941
1.05251
1.04335
1.01973
0.992497
0.973623
0.957365
0.944577
0.933997
0.92502
0.917324
0.910717
0.904847
0.899746
0.895014
0.890977
0.886999
0.883874
0.880452
0.878922
0.87926
0.881284
0.885985
0.903496
0.937851
1.04833
1.28825
2.05081
4.12555
9.6608
9.70321
9.38625
9.00212
9.01034
9.08707
9.24223
9.4567
9.73561
10.1998
10.7775
11.7814
1.05251
1.04335
1.01973
0.992497
0.973622
0.957365
0.944576
0.933998
0.92502
0.917325
0.910717
0.904848
0.899745
0.895015
0.890975
0.887001
0.883871
0.880454
0.878914
0.879256
0.881303
0.885944
0.903586
0.937422
1.04857
1.28522
2.04802
4.10683
9.62499
9.6808
9.37068
8.9975
9.01043
9.09248
9.25008
9.45624
9.72852
10.1873
10.7551
11.7686
1.05251
1.04336
1.01973
0.992497
0.973621
0.957365
0.944575
0.933998
0.92502
0.917325
0.910716
0.904848
0.899744
0.895017
0.890973
0.887003
0.883866
0.880458
0.878891
0.879232
0.881259
0.88588
0.90345
0.937133
1.04775
1.28324
2.04242
4.08952
9.58302
9.65483
9.35278
8.99206
9.00973
9.09666
9.25611
9.45528
9.72108
10.1747
10.7316
11.7557
1.05251
1.04336
1.01973
0.992495
0.973621
0.957365
0.944575
0.933998
0.92502
0.917325
0.910716
0.904848
0.899743
0.895018
0.890971
0.887007
0.883859
0.880465
0.878841
0.879161
0.881202
0.885722
0.903092
0.936979
1.04572
1.28274
2.03317
4.07449
9.53409
9.6246
9.33223
8.98578
9.00817
9.099
9.26029
9.45369
9.71311
10.1618
10.7073
11.7423
1.05252
1.04336
1.01973
0.992493
0.973622
0.957364
0.944575
0.933998
0.92502
0.917325
0.910715
0.904849
0.899741
0.89502
0.890968
0.88701
0.883854
0.880469
0.878827
0.879155
0.880508
0.88696
0.898776
0.944227
1.02982
1.30602
1.9942
4.07667
9.47515
9.59149
9.30947
8.97915
9.00548
9.09965
9.26303
9.45134
9.70449
10.1486
10.6822
11.7279
1.05252
1.04336
1.01972
0.992492
0.973622
0.957363
0.944575
0.933999
0.925019
0.917325
0.910715
0.90485
0.89974
0.895022
0.890965
0.887014
0.883848
0.880474
0.878798
0.879114
0.880377
0.886948
0.898296
0.944337
1.02769
1.30553
1.98218
4.05664
9.41226
9.55284
9.28328
8.9714
9.00089
9.09832
9.26435
9.44811
9.69524
10.1352
10.6567
11.7112
1.05252
1.04336
1.01972
0.992491
0.973621
0.957363
0.944574
0.933999
0.925018
0.917326
0.910714
0.90485
0.899739
0.895024
0.890962
0.887018
0.883841
0.88048
0.878773
0.879086
0.880362
0.886808
0.898186
0.943506
1.027
1.30059
1.97536
4.028
9.34415
9.51108
9.2552
8.96231
8.99435
9.09468
9.26387
9.44405
9.68512
10.1212
10.6306
11.6923
1.05252
1.04336
1.01972
0.99249
0.973621
0.957363
0.944573
0.933999
0.925017
0.917326
0.910713
0.904852
0.899737
0.895026
0.890958
0.887023
0.883834
0.880487
0.878748
0.879056
0.88035
0.886661
0.898129
0.942624
1.02581
1.29578
1.96636
3.99691
9.26856
9.4657
9.22526
8.9518
8.98586
9.08858
9.26149
9.43893
9.67396
10.1064
10.6034
11.6718
1.05253
1.04336
1.01972
0.99249
0.973621
0.957364
0.944572
0.934
0.925015
0.917328
0.910712
0.904853
0.899735
0.895029
0.890954
0.887028
0.883825
0.880495
0.878719
0.879023
0.880331
0.886488
0.897992
0.941613
1.02469
1.29027
1.95642
3.96219
9.18434
9.41695
9.19353
8.93981
8.97519
9.08005
9.25678
9.43246
9.66158
10.0904
10.5747
11.6499
1.05253
1.04336
1.01972
0.992489
0.973621
0.957363
0.944571
0.934002
0.925014
0.917329
0.910709
0.904855
0.899732
0.895032
0.890948
0.887035
0.883813
0.880508
0.878671
0.878961
0.880212
0.886335
0.897508
0.941109
1.02259
1.28691
1.94357
3.92202
9.09071
9.36536
9.16043
8.92622
8.96226
9.06919
9.24979
9.42436
9.64768
10.0728
10.544
11.6266
1.05253
1.04336
1.01972
0.992489
0.973621
0.957364
0.94457
0.934004
0.925012
0.917332
0.910707
0.904857
0.899729
0.895036
0.890942
0.887044
0.883798
0.880523
0.878614
0.878895
0.880593
0.885039
0.900733
0.933321
1.03413
1.2592
1.9586
3.85895
8.98864
9.3097
9.12484
8.91095
8.94744
9.05624
9.24054
9.41457
9.63219
10.053
10.5107
11.6013
1.05253
1.04336
1.01972
0.992487
0.973622
0.957362
0.944571
0.934004
0.925011
0.917333
0.910704
0.904859
0.899725
0.895041
0.890935
0.887054
0.883782
0.88054
0.878563
0.878836
0.880044
0.885959
0.896875
0.939183
1.01873
1.27607
1.91458
3.83221
8.86841
9.255
9.08755
8.89477
8.93095
9.04095
9.22888
9.40289
9.61486
10.0306
10.4745
11.5734
1.05253
1.04336
1.01972
0.992485
0.973623
0.957361
0.944572
0.934005
0.92501
0.917335
0.910702
0.904862
0.89972
0.895045
0.890928
0.887063
0.883766
0.880556
0.878503
0.878765
0.879951
0.885728
0.896526
0.937968
1.01665
1.26882
1.89812
3.77801
8.73663
9.19872
9.04727
8.87743
8.913
9.02352
9.21486
9.38885
9.59514
10.005
10.4351
11.5421
1.05253
1.04336
1.01972
0.992485
0.973624
0.957361
0.944572
0.934005
0.925009
0.917338
0.910698
0.904866
0.899715
0.895051
0.89092
0.887073
0.883749
0.880573
0.878433
0.878678
0.880303
0.884358
0.899596
0.929987
1.02758
1.23893
1.90953
3.69849
8.59504
9.13932
9.00495
8.85898
8.89358
9.00487
9.19862
9.372
9.57278
9.97573
10.3915
11.5066
1.05254
1.04336
1.01972
0.992483
0.973625
0.957359
0.944573
0.934004
0.925009
0.917338
0.910696
0.904869
0.899711
0.895057
0.890912
0.887084
0.883733
0.880588
0.878381
0.878616
0.879708
0.885305
0.895471
0.935967
1.00996
1.25835
1.84991
3.66613
8.43045
9.08091
8.96582
8.83862
8.87232
8.98508
9.18019
9.3524
9.54757
9.94235
10.3431
11.4657
1.05254
1.04336
1.01972
0.992482
0.973627
0.957358
0.944574
0.934004
0.925008
0.917339
0.910693
0.904872
0.899705
0.895064
0.890903
0.887096
0.883713
0.880608
0.87831
0.878531
0.879595
0.885023
0.894961
0.93451
1.00693
1.2494
1.82656
3.59617
8.25406
9.02262
8.92736
8.81657
8.85013
8.9644
9.15932
9.32955
9.51884
9.90397
10.2891
11.4183
1.05254
1.04336
1.01972
0.992481
0.973627
0.957358
0.944575
0.934004
0.925007
0.917341
0.91069
0.904876
0.899699
0.895071
0.890892
0.88711
0.883691
0.880631
0.878228
0.878435
0.879884
0.883653
0.897843
0.926188
1.01767
1.21505
1.83749
3.49221
8.06714
8.96435
8.88854
8.79384
8.82788
8.94255
9.13593
9.30322
9.486
9.8594
10.2285
11.3635
1.05254
1.04336
1.01972
0.99248
0.973629
0.957357
0.944576
0.934003
0.925007
0.917341
0.910688
0.904879
0.899694
0.895078
0.890882
0.887124
0.883668
0.880654
0.878149
0.878339
0.87935
0.884404
0.893827
0.931255
0.999692
1.23049
1.7727
3.43867
7.84929
8.91155
8.85273
8.77139
8.80561
8.91908
9.10992
9.27328
9.44855
9.80776
10.16
11.2996
1.05254
1.04336
1.01972
0.99248
0.97363
0.957357
0.944578
0.934003
0.925007
0.917341
0.910685
0.904882
0.899688
0.895086
0.89087
0.88714
0.883644
0.88068
0.878062
0.878236
0.879222
0.884064
0.893263
0.929372
0.996054
1.21877
1.7425
3.3457
7.61176
8.86167
8.82089
8.74962
8.78333
8.89417
9.08099
9.23919
9.40552
9.74816
10.0824
11.2246
1.05254
1.04336
1.01972
0.99248
0.97363
0.957358
0.944578
0.934004
0.925006
0.917342
0.910682
0.904885
0.899683
0.895094
0.890859
0.887157
0.883617
0.88071
0.877971
0.878133
0.879433
0.882766
0.895858
0.92118
1.0056
1.18159
1.74608
3.213
7.35872
8.81507
8.79102
8.72977
8.76108
8.86716
9.0485
9.20008
9.35609
9.67917
9.99426
11.1359
1.05254
1.04336
1.01972
0.99248
0.973632
0.957359
0.94458
0.934003
0.925005
0.917342
0.91068
0.904887
0.899678
0.895101
0.890847
0.887174
0.883589
0.88074
0.877875
0.878024
0.879228
0.882522
0.894908
0.919751
0.999395
1.17074
1.70752
3.10406
7.07527
8.77713
8.76551
8.71124
8.73876
8.83834
9.01178
9.15531
9.29925
9.59938
9.89328
11.0301
1.05254
1.04336
1.01972
0.99248
0.973634
0.957359
0.944581
0.934003
0.925004
0.917342
0.910678
0.90489
0.899674
0.895109
0.890837
0.88719
0.883561
0.88077
0.877759
0.877871
0.878961
0.881991
0.893854
0.916977
0.994528
1.15475
1.66893
2.98751
6.76051
8.75002
8.74653
8.6927
8.71575
8.80736
8.97021
9.10407
9.23394
9.50675
9.77712
10.9024
1.05254
1.04336
1.01972
0.992482
0.973637
0.957359
0.944582
0.934002
0.925004
0.917342
0.910677
0.904892
0.89967
0.895115
0.890828
0.887204
0.883536
0.880794
0.877635
0.877685
0.878379
0.882324
0.889577
0.92047
0.973501
1.16655
1.58284
2.90013
6.39823
8.73695
8.73615
8.67368
8.69191
8.77384
8.92343
9.04549
9.15907
9.39991
9.64245
10.7468
1.05254
1.04336
1.01972
0.992484
0.973638
0.957359
0.944583
0.934
0.925003
0.917341
0.910676
0.904893
0.899668
0.895119
0.890821
0.887215
0.883516
0.880815
0.877527
0.877511
0.878139
0.881763
0.888572
0.917589
0.96723
1.15008
1.53464
2.76423
6.00483
8.73462
8.73151
8.65386
8.66696
8.73729
8.87061
8.97882
9.07208
9.27631
9.4848
10.5547
1.05253
1.04336
1.01972
0.992486
0.973639
0.95736
0.944583
0.933999
0.925003
0.917341
0.910676
0.904894
0.899667
0.895122
0.890817
0.887221
0.883505
0.880821
0.877468
0.877385
0.878089
0.880533
0.890225
0.909337
0.974188
1.10695
1.526
2.58187
5.59515
8.73661
8.72708
8.63214
8.63789
8.69599
8.81137
8.90257
8.97135
9.13423
9.29844
10.3139
1.05253
1.04336
1.01972
0.992486
0.97364
0.957359
0.944584
0.933998
0.925004
0.91734
0.910678
0.904893
0.899669
0.895121
0.890818
0.887219
0.883504
0.880811
0.877438
0.877157
0.87779
0.880036
0.888994
0.906683
0.966986
1.08949
1.4752
2.43724
5.1602
8.73426
8.71823
8.61008
8.60413
8.64967
8.74359
8.81367
8.85549
8.97044
9.07507
10.0077
1.05253
1.04336
1.01972
0.99248
0.973644
0.957353
0.944589
0.933993
0.925008
0.917336
0.910683
0.904889
0.899675
0.895114
0.890826
0.887209
0.883515
0.880785
0.877429
0.876858
0.877356
0.880084
0.885983
0.907958
0.950917
1.08815
1.39326
2.33302
4.70271
8.70591
8.69649
8.58714
8.5624
8.5959
8.66546
8.71081
8.72254
8.78212
8.80379
9.60887
1.05253
1.04336
1.01973
0.992481
0.973644
0.957352
0.94459
0.933991
0.925011
0.917333
0.910687
0.904886
0.89968
0.895107
0.890836
0.887195
0.883533
0.880748
0.877451
0.876589
0.877032
0.879516
0.884894
0.905186
0.944183
1.07105
1.34313
2.20442
4.29997
8.59141
8.65215
8.55672
8.51128
8.53213
8.574
8.59212
8.56923
8.56165
8.47065
9.07975
1.05252
1.04336
1.01973
0.992484
0.97364
0.957353
0.944588
0.93399
0.925014
0.917331
0.910692
0.904881
0.899688
0.895098
0.890849
0.887175
0.88356
0.880699
0.877493
0.876318
0.87671
0.878761
0.88416
0.901334
0.940285
1.04959
1.30727
2.07683
4.00009
8.30239
8.59469
8.51863
8.45214
8.45706
8.46722
8.45822
8.39581
8.30874
8.05763
8.32525
1.06611
1.10996
1.11433
1.11125
1.10352
1.0929
1.08434
1.07618
1.06885
1.06239
1.05666
1.05139
1.04669
1.04224
1.03842
1.03457
1.03158
1.02817
1.02749
1.02804
1.0301
1.03878
1.05502
1.1142
1.2279
1.58465
2.47042
5.2155
12.3228
12.0617
11.3529
10.8622
10.8504
10.9407
11.1516
11.4364
11.7884
12.2881
12.8976
13.5287
1.06611
1.10997
1.11432
1.11125
1.10352
1.0929
1.08434
1.07618
1.06885
1.06239
1.05666
1.05139
1.04669
1.04224
1.03842
1.03458
1.03158
1.02817
1.02746
1.02798
1.0309
1.03653
1.06104
1.10139
1.25255
1.54639
2.51303
5.18779
12.3261
12.0591
11.3493
10.8618
10.8522
10.9437
11.1531
11.4362
11.7869
12.2861
12.8944
13.5237
1.06611
1.10997
1.11432
1.11125
1.10352
1.0929
1.08434
1.07618
1.06885
1.06239
1.05666
1.05139
1.04669
1.04224
1.03842
1.03458
1.03158
1.02817
1.02747
1.028
1.03097
1.03653
1.06137
1.10145
1.25292
1.54645
2.51322
5.18263
12.3238
12.0539
11.3415
10.8603
10.8548
10.9482
11.156
11.4355
11.7836
12.2817
12.8873
13.5144
1.06611
1.10997
1.11432
1.11125
1.10352
1.0929
1.08434
1.07618
1.06885
1.06239
1.05666
1.05139
1.04669
1.04224
1.03842
1.03458
1.03158
1.02817
1.02748
1.02803
1.03086
1.03743
1.05968
1.10677
1.2425
1.56267
2.49575
5.18945
12.316
12.0454
11.3303
10.8578
10.8576
10.954
11.1601
11.4343
11.7789
12.2746
12.876
13.502
1.06611
1.10997
1.11432
1.11125
1.10352
1.0929
1.08434
1.07618
1.06885
1.06239
1.05666
1.05139
1.04669
1.04224
1.03842
1.03458
1.03158
1.02817
1.02746
1.02798
1.03089
1.03665
1.0608
1.10194
1.25116
1.54762
2.50891
5.1854
12.3068
12.0312
11.3156
10.8547
10.8594
10.9606
11.1644
11.4324
11.7727
12.2649
12.8602
13.4873
1.06611
1.10996
1.11433
1.11125
1.10352
1.0929
1.08434
1.07618
1.06885
1.06239
1.05666
1.05139
1.04669
1.04224
1.03842
1.03457
1.03158
1.02817
1.0275
1.02806
1.02997
1.03917
1.05439
1.1158
1.22499
1.58881
2.46055
5.20962
12.2894
12.0146
11.2986
10.8506
10.8607
10.9677
11.1682
11.4297
11.7648
12.2527
12.8404
13.4705
1.06611
1.10996
1.11433
1.11125
1.10352
1.0929
1.08434
1.07618
1.06885
1.06239
1.05666
1.05139
1.04669
1.04224
1.03842
1.03457
1.03158
1.02817
1.0275
1.02806
1.03027
1.03858
1.05668
1.11115
1.23339
1.57559
2.47011
5.20224
12.273
11.9933
11.2791
10.8452