/*--------------------------------*- C++ -*----------------------------------*\
  =========                 |
  \\      /  F ield         | OpenFOAM: The Open Source CFD Toolbox
   \\    /   O peration     | Website:  https://openfoam.org
    \\  /    A nd           | Version:  6.0
     \\/     M anipulation  |
\*---------------------------------------------------------------------------*/
FoamFile
{
    version     2.0;
    format      ascii;
    class       volScalarField;
    location    "0.5";
    object      T;
}
// * * * * * * * * * * * * * * * * * * * * * * * * * * * * * * * * * * * * * //

dimensions      [0 0 0 1 0 0 0];

internalField   nonuniform List<scalar> 
192000
(
0.896226
0.861367
0.844698
0.833136
0.825472
0.819477
0.814915
0.811153
0.808079
0.805422
0.803183
0.801201
0.799462
0.797916
0.79651
0.795249
0.79411
0.793135
0.792629
0.792658
0.793553
0.795139
0.803374
0.81857
0.872799
0.970293
1.35741
2.09585
2.37977
2.37735
2.3485
2.28795
2.28024
2.30557
2.40017
2.47554
2.49091
2.46879
2.53448
2.2754
0.896239
0.861349
0.844714
0.83312
0.825482
0.819467
0.814921
0.811146
0.808088
0.80541
0.8032
0.801183
0.799481
0.7979
0.796522
0.795242
0.794113
0.793131
0.792635
0.792659
0.793612
0.795122
0.803704
0.817365
0.874648
0.9667
1.36654
2.10187
2.38007
2.37533
2.34499
2.29081
2.28769
2.31917
2.42065
2.4877
2.498
2.46972
2.53408
2.27851
0.89624
0.861349
0.844714
0.83312
0.825482
0.819466
0.814923
0.811145
0.808091
0.805409
0.803201
0.801182
0.799481
0.7979
0.796521
0.795242
0.794113
0.793131
0.792639
0.792664
0.793617
0.795136
0.80373
0.817185
0.874583
0.96569
1.36557
2.09844
2.37806
2.37351
2.34312
2.29157
2.29032
2.32418
2.42709
2.49012
2.49804
2.46952
2.53536
2.28429
0.896235
0.861355
0.84471
0.833124
0.82548
0.819468
0.814921
0.811147
0.808087
0.805415
0.803192
0.801194
0.799469
0.797912
0.796515
0.795245
0.794115
0.793131
0.792637
0.792665
0.793623
0.79508
0.803656
0.817724
0.873721
0.968361
1.36487
2.10424
2.38123
2.37651
2.34394
2.29356
2.29394
2.33046
2.43512
2.49407
2.50061
2.47296
2.54023
2.29211
0.896238
0.861348
0.844716
0.833117
0.825487
0.819464
0.814923
0.811147
0.808087
0.805412
0.803199
0.801184
0.79948
0.797902
0.79652
0.795243
0.794112
0.793131
0.792633
0.792657
0.793613
0.795069
0.803695
0.817206
0.874555
0.966558
1.36496
2.10262
2.38109
2.37583
2.34355
2.29564
2.29713
2.33583
2.44251
2.49819
2.50388
2.47589
2.54359
2.29644
0.896223
0.861368
0.8447
0.833133
0.825476
0.819475
0.814916
0.811156
0.808077
0.805426
0.803181
0.801203
0.79946
0.797918
0.796507
0.795251
0.794107
0.793136
0.792625
0.792657
0.793553
0.794973
0.803313
0.818142
0.872233
0.97047
1.35577
2.09623
2.37994
2.3768
2.34461
2.29459
2.29533
2.332
2.43826
2.49563
2.50328
2.48068
2.55044
2.30395
0.896222
0.861368
0.844701
0.833131
0.825479
0.819472
0.814919
0.811154
0.808079
0.805422
0.803185
0.801198
0.799463
0.797916
0.796508
0.795248
0.794109
0.793133
0.792624
0.79265
0.793535
0.795073
0.803353
0.817895
0.873193
0.966717
1.35568
2.09629
2.38126
2.37771
2.3448
2.29485
2.29598
2.33339
2.44065
2.4971
2.5053
2.48504
2.55549
2.30973
0.896222
0.861367
0.844702
0.833129
0.825481
0.819471
0.814919
0.811154
0.808078
0.805425
0.803182
0.801201
0.799461
0.797918
0.796507
0.79525
0.794107
0.793135
0.792622
0.792653
0.793543
0.794949
0.803261
0.818011
0.87202
0.969713
1.35532
2.09608
2.38021
2.37713
2.34393
2.29622
2.29849
2.33761
2.44495
2.49879
2.50645
2.48777
2.5592
2.31506
0.896237
0.861345
0.844722
0.833108
0.825497
0.819456
0.81493
0.811146
0.808087
0.805416
0.803197
0.801186
0.799476
0.797908
0.796513
0.795247
0.79411
0.793129
0.792624
0.79265
0.793603
0.794873
0.803589
0.816555
0.874074
0.963867
1.36289
2.09845
2.37924
2.37442
2.34146
2.30067
2.30623
2.3511
2.45753
2.50507
2.50982
2.48827
2.55911
2.31945
0.896238
0.861344
0.844722
0.833106
0.825499
0.819454
0.814932
0.811145
0.808088
0.805417
0.803196
0.801188
0.799476
0.797908
0.796512
0.795246
0.79411
0.793128
0.792623
0.792649
0.793598
0.794866
0.803564
0.816573
0.873865
0.963581
1.361
2.09591
2.37766
2.37254
2.33954
2.30449
2.31305
2.36309
2.46716
2.50855
2.51028
2.486
2.55829
2.3224
0.896232
0.861351
0.844717
0.833111
0.825495
0.819457
0.81493
0.811149
0.808082
0.805426
0.803185
0.801201
0.799464
0.797917
0.796508
0.795249
0.794106
0.793133
0.792616
0.792648
0.793537
0.79491
0.803192
0.817807
0.871366
0.968857
1.35243
2.09037
2.3745
2.37055
2.3372
2.30595
2.3171
2.37287
2.47453
2.51128
2.51074
2.48537
2.55977
2.32565
0.896236
0.861344
0.844724
0.833102
0.825505
0.819448
0.814938
0.811142
0.80809
0.805416
0.803199
0.801184
0.799482
0.797901
0.796517
0.795242
0.79411
0.793127
0.792618
0.792643
0.793586
0.794855
0.803519
0.816278
0.873518
0.962187
1.35839
2.09316
2.37531
2.3699
2.33662
2.30818
2.32112
2.38115
2.47938
2.51241
2.5105
2.4854
2.56235
2.32999
0.896233
0.861345
0.844726
0.833098
0.825512
0.819441
0.814945
0.811139
0.808093
0.805416
0.803201
0.801182
0.799485
0.797898
0.796518
0.795239
0.79411
0.793125
0.792616
0.79264
0.793575
0.794923
0.803445
0.816648
0.872827
0.962572
1.35673
2.0874
2.37144
2.3664
2.33447
2.31044
2.32555
2.38954
2.48368
2.51313
2.51009
2.48559
2.56444
2.33409
0.89623
0.861347
0.844727
0.833094
0.82552
0.819434
0.814953
0.811136
0.808094
0.805418
0.803201
0.801181
0.799487
0.797894
0.796522
0.795235
0.794112
0.793122
0.792609
0.792632
0.793558
0.794929
0.803397
0.816503
0.872527
0.961584
1.35439
2.08371
2.36898
2.36394
2.33288
2.31231
2.32937
2.39725
2.48703
2.51295
2.50869
2.48507
2.56625
2.33736
0.896224
0.861352
0.844726
0.833091
0.825528
0.819424
0.814964
0.81113
0.808096
0.805422
0.803196
0.801184
0.799487
0.797892
0.796524
0.795228
0.794122
0.793104
0.792607
0.792606
0.793549
0.794877
0.803352
0.816108
0.872313
0.960947
1.35126
2.08054
2.36737
2.36201
2.33182
2.31507
2.33495
2.40756
2.49115
2.51275
2.50686
2.48402
2.56769
2.34059
0.896208
0.861373
0.844707
0.833109
0.825517
0.819433
0.814962
0.811134
0.808092
0.805429
0.803187
0.801193
0.799476
0.797902
0.796509
0.795245
0.794102
0.79312
0.792585
0.792607
0.793456
0.794877
0.802913
0.817286
0.870093
0.96293
1.34054
2.0754
2.36598
2.36142
2.33031
2.31529
2.33766
2.41407
2.49351
2.51205
2.50502
2.48335
2.56921
2.34403
0.896202
0.861379
0.844704
0.833109
0.825523
0.819424
0.814974
0.811124
0.808098
0.80543
0.803183
0.801197
0.799474
0.797901
0.796509
0.795244
0.794099
0.793118
0.792574
0.792594
0.793431
0.794737
0.802786
0.816798
0.869474
0.9608
1.3356
2.07196
2.36467
2.36012
2.32815
2.31428
2.33855
2.41785
2.49419
2.51026
2.50264
2.48354
2.57272
2.34849
0.896197
0.861385
0.8447
0.83311
0.825527
0.819416
0.814986
0.811113
0.808109
0.805425
0.803184
0.801199
0.799474
0.797896
0.796516
0.795234
0.794106
0.793111
0.792565
0.792582
0.793407
0.794765
0.802714
0.816531
0.869169
0.958803
1.33262
2.06481
2.3615
2.35709
2.32622
2.31412
2.34
2.4212
2.49454
2.50846
2.50095
2.48555
2.57783
2.35296
0.896192
0.861392
0.844694
0.833115
0.825526
0.819414
0.814994
0.811104
0.808119
0.805421
0.803185
0.801202
0.799471
0.797897
0.796516
0.795231
0.794108
0.793101
0.792564
0.792563
0.793393
0.794689
0.802569
0.816342
0.868377
0.957124
1.32803
2.055
2.35656
2.35263
2.32349
2.31386
2.34181
2.42472
2.49492
2.50643
2.49899
2.48764
2.58338
2.35805
0.89619
0.861393
0.844693
0.833115
0.82553
0.819407
0.815009
0.811088
0.808137
0.805408
0.803192
0.801202
0.799468
0.797898
0.796515
0.795228
0.794107
0.793098
0.792553
0.792551
0.793367
0.794636
0.802476
0.815771
0.867888
0.954106
1.32297
2.04483
2.35124
2.34774
2.32142
2.31459
2.3455
2.4295
2.49484
2.5032
2.49572
2.48808
2.58767
2.36249
0.896183
0.861402
0.844684
0.833125
0.825524
0.819411
0.815013
0.811082
0.808148
0.8054
0.803198
0.801201
0.799464
0.797901
0.796512
0.795228
0.794104
0.793097
0.792541
0.792539
0.793343
0.794522
0.802267
0.81574
0.866269
0.954176
1.31691
2.03412
2.3452
2.34232
2.31891
2.31532
2.35003
2.43453
2.49475
2.50004
2.49226
2.48769
2.59121
2.36643
0.896185
0.861398
0.844688
0.833119
0.825535
0.819396
0.815038
0.811052
0.808186
0.805365
0.803226
0.801185
0.799468
0.7979
0.79651
0.795222
0.794107
0.793091
0.79253
0.792521
0.793365
0.794357
0.802431
0.814186
0.866758
0.95212
1.31688
2.02966
2.34101
2.33694
2.31661
2.31558
2.35425
2.43897
2.49397
2.49631
2.4882
2.48629
2.59437
2.37122
0.896172
0.861415
0.844671
0.833141
0.825513
0.81942
0.815019
0.811067
0.808178
0.805366
0.803228
0.801182
0.799464
0.797906
0.7965
0.795228
0.794099
0.793094
0.792513
0.792507
0.793278
0.794439
0.801938
0.815193
0.86443
0.949181
1.30261
2.01131
2.33083
2.33129
2.31425
2.3173
2.36273
2.44483
2.49211
2.49095
2.48221
2.48279
2.59692
2.37532
0.896167
0.861421
0.844665
0.83315
0.825506
0.819429
0.815017
0.811064
0.808191
0.805348
0.80325
0.801162
0.799474
0.797902
0.796494
0.795231
0.794096
0.793091
0.792496
0.79249
0.793242
0.794361
0.801721
0.814758
0.863301
0.946082
1.29348
1.99646
2.32105
2.32555
2.31192
2.31906
2.37106
2.44901
2.4893
2.48525
2.47611
2.47883
2.59862
2.37952
0.896165
0.861422
0.844665
0.833152
0.825506
0.819429
0.815024
0.811051
0.808217
0.805313
0.803294
0.801116
0.799512
0.797874
0.796503
0.795227
0.794094
0.793082
0.792482
0.792465
0.793231
0.794204
0.801808
0.813282
0.862932
0.94568
1.29161
1.98979
2.31318
2.31824
2.30861
2.31911
2.37555
2.45083
2.48677
2.48069
2.472
2.47653
2.60077
2.38352
0.896154
0.861437
0.844651
0.833172
0.825485
0.819457
0.814995
0.81108
0.808191
0.805331
0.803282
0.801117
0.799513
0.79787
0.7965
0.795231
0.794085
0.793088
0.792461
0.792455
0.793185
0.794071
0.801217
0.813691
0.859973
0.941104
1.26838
1.96611
2.30224
2.31298
2.30671
2.32095
2.38098
2.45091
2.48075
2.47195
2.46499
2.47257
2.60388
2.38909
0.896148
0.861445
0.844646
0.83318
0.825477
0.819469
0.814983
0.811093
0.808184
0.805331
0.803291
0.801096
0.799537
0.79784
0.79652
0.795217
0.794087
0.793086
0.792442
0.792433
0.79314
0.793985
0.800933
0.813121
0.858328
0.937136
1.2553
1.94425
2.28985
2.30688
2.30496
2.32328
2.38511
2.44938
2.4741
2.46342
2.45834
2.46906
2.60684
2.39458
0.896144
0.86145
0.844646
0.833181
0.825479
0.819472
0.814981
0.811096
0.808186
0.805323
0.803309
0.801062
0.799579
0.797785
0.796569
0.79517
0.794121
0.793053
0.792444
0.792408
0.793093
0.793855
0.800936
0.811919
0.857613
0.935586
1.25236
1.9288
2.27835
2.29894
2.3005
2.32511
2.38743
2.44648
2.46727
2.45557
2.45266
2.46666
2.61022
2.39957
0.896135
0.861465
0.844635
0.833195
0.825465
0.819489
0.81496
0.811122
0.808157
0.805351
0.80328
0.801083
0.799563
0.797787
0.796571
0.795166
0.794122
0.793051
0.792423
0.792381
0.793038
0.793767
0.800319
0.81195
0.854558
0.928634
1.22723
1.89555
2.26577
2.29484
2.29873
2.32804
2.38756
2.44039
2.45753
2.44575
2.44573
2.46446
2.61439
2.40439
0.89613
0.861476
0.844628
0.833202
0.825461
0.819495
0.814951
0.811134
0.808142
0.805364
0.803267
0.801086
0.799564
0.797771
0.796595
0.795135
0.794149
0.793027
0.792419
0.79234
0.792977
0.793681
0.799953
0.811518
0.852287
0.924826
1.20967
1.86463
2.24896
2.28731
2.29527
2.3308
2.38533
2.43252
2.44643
2.43485
2.43737
2.4618
2.61803
2.40845
0.896129
0.861483
0.844625
0.833206
0.82546
0.819497
0.814949
0.811139
0.808134
0.80537
0.803259
0.801084
0.799567
0.797751
0.796622
0.795093
0.794194
0.792979
0.792436
0.792285
0.792926
0.793521
0.799815
0.810348
0.850777
0.92206
1.2013
1.83481
2.23101
2.2785
2.29154
2.33316
2.38219
2.42443
2.4355
2.42422
2.42937
2.45939
2.62102
2.41161
0.896127
0.861492
0.844614
0.833217
0.825451
0.819506
0.81494
0.811151
0.808117
0.805388
0.803235
0.801105
0.799543
0.797768
0.796615
0.795088
0.794212
0.792955
0.792432
0.792241
0.792848
0.793437
0.799394
0.809288
0.84778
0.914836
1.18006
1.79954
2.21252
2.27026
2.28921
2.33515
2.37741
2.41446
2.42339
2.41305
2.42112
2.45663
2.62301
2.41488
0.896132
0.861494
0.844608
0.833224
0.825445
0.819509
0.814937
0.811155
0.808106
0.805399
0.803215
0.801122
0.799518
0.797789
0.796594
0.795098
0.79422
0.792927
0.792442
0.792159
0.79275
0.793276
0.798929
0.808506
0.84498
0.911102
1.15826
1.75731
2.1909
2.26504
2.2893
2.33585
2.37164
2.40369
2.41077
2.40185
2.41339
2.45414
2.62335
2.41604
0.896135
0.861494
0.8446
0.833235
0.825432
0.819521
0.814927
0.811162
0.808093
0.805413
0.803191
0.801146
0.799489
0.797823
0.79656
0.795139
0.794185
0.792953
0.7924
0.792088
0.792611
0.793182
0.798219
0.807377
0.840699
0.901309
1.12294
1.70168
2.16433
2.25933
2.28886
2.33408
2.36374
2.39123
2.39631
2.38888
2.40465
2.45085
2.62285
2.41678
0.896143
0.861486
0.844602
0.833239
0.825425
0.819529
0.814921
0.811164
0.808087
0.805416
0.803178
0.801158
0.799472
0.797839
0.796543
0.795157
0.794169
0.792969
0.792354
0.792025
0.792508
0.793009
0.797709
0.806483
0.837175
0.895909
1.09531
1.64509
2.12323
2.24884
2.28721
2.32612
2.34654
2.3712
2.37641
2.37267
2.39552
2.44761
2.6202
2.41606
0.896158
0.861467
0.844617
0.833232
0.825426
0.819533
0.814914
0.811165
0.808082
0.805414
0.803172
0.801162
0.799463
0.797848
0.796537
0.795166
0.794164
0.792974
0.792332
0.791956
0.792437
0.792809
0.797348
0.805482
0.83489
0.890372
1.07803
1.58321
2.08533
2.246
2.2858
2.31672
2.33263
2.35294
2.3575
2.35847
2.3905
2.44522
2.61609
2.41381
0.896163
0.861459
0.844628
0.833227
0.825428
0.819535
0.814905
0.811169
0.808073
0.805419
0.803164
0.801174
0.799451
0.797869
0.796519
0.795191
0.794142
0.792997
0.792291
0.791896
0.792317
0.792688
0.796917
0.803489
0.831468
0.881354
1.04969
1.54156
2.04064
2.22519
2.26598
2.29105
2.31065
2.33349
2.34098
2.34657
2.38817
2.44111
2.60634
2.4079
0.896072
0.861584
0.844516
0.833354
0.82531
0.819653
0.814801
0.811267
0.808003
0.805488
0.803119
0.80124
0.799396
0.797955
0.796443
0.795296
0.794055
0.793107
0.792171
0.791911
0.79197
0.793176
0.79499
0.80519
0.821605
0.886978
1.00212
1.41306
2.00327
2.21566
2.24715
2.27017
2.29847
2.32178
2.33237
2.34141
2.38775
2.43651
2.5956
2.39549
0.896087
0.861564
0.844531
0.833338
0.825312
0.819657
0.814779
0.811296
0.807967
0.80552
0.803098
0.801249
0.799401
0.79795
0.796452
0.795303
0.794044
0.793124
0.79214
0.79183
0.791868
0.792918
0.79494
0.803711
0.819873
0.877842
0.982712
1.36006
1.97108
2.22004
2.24849
2.26748
2.29666
2.31685
2.32554
2.33577
2.38493
2.42673
2.57252
2.37548
0.896107
0.861534
0.844556
0.833308
0.825336
0.819635
0.814788
0.8113
0.807949
0.805549
0.803069
0.801278
0.79939
0.797957
0.796466
0.795289
0.79406
0.793113
0.792125
0.791746
0.791774
0.792697
0.794259
0.802443
0.816457
0.869697
0.96406
1.31924
1.93927
2.21769
2.26405
2.28416
2.30544
2.32209
2.32986
2.34034
2.38686
2.41701
2.5419
2.31228
1.00318
0.996835
0.990618
0.983346
0.978003
0.9733
0.969703
0.966521
0.963879
0.961559
0.959541
0.957753
0.956139
0.954709
0.953375
0.952216
0.951126
0.950305
0.950104
0.950505
0.951216
0.955474
0.961951
0.988823
1.03294
1.20986
1.57164
2.52497
2.70004
2.67971
2.64945
2.66502
2.74374
2.8124
2.84695
2.85275
2.89295
2.94532
3.08394
2.79216
1.00319
0.996795
0.99066
0.983305
0.978048
0.973255
0.969755
0.966467
0.963938
0.9615
0.959599
0.957697
0.956193
0.954656
0.953426
0.952164
0.951176
0.95025
0.950156
0.950468
0.951253
0.956694
0.962495
0.991674
1.03596
1.20399
1.58066
2.55494
2.69837
2.67433
2.6506
2.67271
2.75885
2.82165
2.84661
2.8502
2.89071
2.94573
3.0884
2.79399
1.00319
0.996794
0.990661
0.983304
0.978047
0.973255
0.969754
0.96647
0.963933
0.96151
0.959586
0.957714
0.956176
0.954671
0.953413
0.952176
0.951163
0.950266
0.950148
0.950551
0.951232
0.956967
0.962449
0.992397
1.03572
1.20438
1.57759
2.54897
2.69522
2.67285
2.6514
2.67639
2.76389
2.8225
2.84393
2.84731
2.88923
2.94547
3.09167
2.7959
1.00319
0.996797
0.990657
0.983311
0.97804
0.973264
0.969744
0.966478
0.963925
0.961513
0.959588
0.957706
0.956189
0.954656
0.953431
0.952159
0.951181
0.950249
0.950164
0.950463
0.951344
0.956306
0.962722
0.989796
1.03639
1.20192
1.5823
2.54189
2.69536
2.67453
2.65406
2.67985
2.76601
2.82186
2.84236
2.84699
2.89194
2.9478
3.09654
2.79995
1.00319
0.996798
0.990658
0.983306
0.978047
0.973255
0.969754
0.966468
0.963935
0.961502
0.959597
0.957696
0.956195
0.954651
0.953434
0.952155
0.951185
0.950242
0.950162
0.950437
0.951275
0.956562
0.962523
0.991152
1.03585
1.20402
1.58053
2.55649
2.69689
2.67327
2.65375
2.68255
2.77087
2.82459
2.84293
2.84721
2.89219
2.94814
3.09955
2.80432
1.00318
0.996839
0.990617
0.983346
0.978005
0.973297
0.969707
0.966518
0.96388
0.961559
0.959538
0.957754
0.956136
0.954711
0.953371
0.95222
0.951123
0.950308
0.950101
0.950499
0.951206
0.955486
0.961896
0.988874
1.03334
1.20832
1.57051
2.52377
2.69619
2.67464
2.65444
2.68124
2.76761
2.82235
2.84237
2.84767
2.8932
2.94839
3.10169
2.81122
1.00318
0.996842
0.990615
0.983347
0.978007
0.973294
0.969711
0.966513
0.963883
0.961556
0.95954
0.957751
0.956139
0.954707
0.953375
0.952216
0.951128
0.950304
0.950107
0.950502
0.951219
0.95545
0.961871
0.988807
1.03286
1.20976
1.57227
2.54
2.69985
2.67688
2.65473
2.68121
2.76693
2.82228
2.84347
2.8499
2.89583
2.94948
3.10377
2.81738
1.00318
0.996841
0.990616
0.983347
0.978007
0.973294
0.969711
0.966514
0.963882
0.961557
0.959538
0.957753
0.956136
0.95471
0.953371
0.95222
0.951123
0.950308
0.950099
0.950493
0.951199
0.955451
0.961857
0.988684
1.03313
1.20743
1.57011
2.52362
2.69575
2.67456
2.65413
2.68167
2.76723
2.82345
2.84373
2.85055
2.89594
2.94887
3.10498
2.82343
1.00319
0.996803
0.990656
0.983307
0.97805
0.973251
0.969758
0.966465
0.963935
0.961502
0.959594
0.957698
0.956191
0.954653
0.953429
0.95216
0.951179
0.950247
0.950153
0.950425
0.951282
0.956441
0.962391
0.990724
1.03583
1.20225
1.57774
2.5492
2.69186
2.67017
2.6529
2.68455
2.77128
2.82706
2.84357
2.85005
2.89484
2.94771
3.10616
2.83083
1.00319
0.996803
0.990655
0.983307
0.97805
0.97325
0.969761
0.966463
0.963938
0.961502
0.959593
0.9577
0.956189
0.954654
0.953427
0.952161
0.951178
0.950247
0.950149
0.950423
0.951285
0.956363
0.96236
0.990321
1.03559
1.20169
1.57632
2.54537
2.68924
2.66807
2.65483
2.69249
2.77892
2.83048
2.84191
2.84713
2.89172
2.94591
3.10696
2.83557
1.00319
0.996808
0.990649
0.983316
0.978039
0.973263
0.969743
0.966485
0.963907
0.96154
0.959547
0.957751
0.956136
0.954708
0.953375
0.952214
0.951125
0.950301
0.950093
0.950489
0.951186
0.955439
0.961714
0.988556
1.03211
1.20595
1.56298
2.50879
2.6859
2.66718
2.65774
2.69858
2.78272
2.83086
2.83883
2.84262
2.88831
2.94433
3.10749
2.84038
1.00319
0.996808
0.99065
0.98331
0.97805
0.973247
0.969767
0.966456
0.963944
0.961496
0.959596
0.957696
0.95619
0.954651
0.953429
0.952157
0.95118
0.950242
0.950145
0.950413
0.951258
0.956416
0.962281
0.990611
1.03503
1.20013
1.57279
2.538
2.68525
2.66622
2.65782
2.70266
2.78402
2.83003
2.83648
2.83996
2.88704
2.94356
3.10739
2.84655
1.00319
0.996814
0.990646
0.983312
0.97805
0.973245
0.96977
0.966452
0.963946
0.961496
0.959592
0.957701
0.956181
0.95466
0.95342
0.952166
0.951172
0.950251
0.950134
0.950459
0.951194
0.956729
0.962144
0.991487
1.03456
1.19891
1.56791
2.52581
2.6798
2.66249
2.65767
2.70716
2.78607
2.82954
2.83458
2.83799
2.88621
2.9428
3.10698
2.85254
1.00319
0.996821
0.99064
0.983315
0.978049
0.973243
0.969773
0.966447
0.96395
0.961492
0.959594
0.9577
0.956178
0.954663
0.953413
0.952172
0.951166
0.950254
0.950122
0.95047
0.951167
0.956707
0.962072
0.991307
1.0341
1.19771
1.5654
2.51968
2.67736
2.66127
2.6585
2.71071
2.78901
2.82904
2.83289
2.8362
2.88525
2.94167
3.10616
2.85792
1.00319
0.996833
0.99063
0.983323
0.978045
0.973243
0.969775
0.966443
0.963952
0.961485
0.9596
0.957686
0.956194
0.954645
0.95343
0.952156
0.951183
0.950232
0.950122
0.950382
0.951177
0.956359
0.96206
0.990257
1.03337
1.19702
1.56465
2.52044
2.67598
2.66034
2.6598
2.71541
2.79226
2.82803
2.83051
2.83365
2.88356
2.93994
3.10499
2.86286
1.00318
0.996878
0.990582
0.983368
0.978
0.973282
0.969737
0.966478
0.963911
0.96153
0.959547
0.957739
0.956139
0.954698
0.953377
0.952213
0.951128
0.950289
0.950058
0.950431
0.951101
0.955204
0.961451
0.987421
1.02996
1.20128
1.55357
2.49277
2.67583
2.66144
2.66245
2.71957
2.79417
2.82536
2.82627
2.82935
2.88113
2.93791
3.10323
2.86789
1.00318
0.996893
0.990569
0.98338
0.977992
0.973285
0.969738
0.966472
0.963917
0.961523
0.959549
0.957737
0.956136
0.954701
0.953374
0.952217
0.951125
0.950291
0.950043
0.950402
0.951068
0.955133
0.961395
0.987084
1.03031
1.19866
1.55337
2.49046
2.67517
2.66119
2.66276
2.72098
2.79436
2.82284
2.82304
2.82628
2.8793
2.93609
3.10126
2.87232
1.00317
0.996904
0.990559
0.983389
0.977985
0.973288
0.969738
0.966466
0.963924
0.961513
0.959556
0.957731
0.956139
0.954698
0.953376
0.952216
0.951128
0.950285
0.950039
0.950394
0.951051
0.955054
0.961301
0.986668
1.02914
1.19755
1.54932
2.48445
2.67139
2.65885
2.66187
2.72193
2.79307
2.81942
2.8193
2.82333
2.87821
2.9349
3.09928
2.87581
1.00317
0.996912
0.990549
0.983399
0.977975
0.973295
0.969734
0.966465
0.963927
0.961506
0.959561
0.957724
0.956143
0.954694
0.953378
0.952215
0.951129
0.950283
0.950032
0.950387
0.95104
0.95503
0.961088
0.986449
1.0286
1.19485
1.5439
2.47522
2.66658
2.65524
2.66007
2.72256
2.79233
2.8176
2.8174
2.82208
2.87779
2.93379
3.09693
2.8792
1.00317
0.996913
0.990547
0.983401
0.977972
0.973296
0.969734
0.96646
0.963934
0.961497
0.959568
0.957719
0.956146
0.95469
0.95338
0.95221
0.951131
0.950277
0.950026
0.950376
0.951015
0.954971
0.960964
0.986298
1.02756
1.19368
1.53793
2.46531
2.65983
2.65128
2.65893
2.72394
2.79085
2.81499
2.81499
2.82084
2.87789
2.93259
3.0931
2.88184
1.00317
0.996927
0.990533
0.983415
0.977958
0.973309
0.969725
0.966464
0.963931
0.961494
0.959569
0.957715
0.956146
0.954689
0.95338
0.95221
0.951131
0.950274
0.950006
0.950348
0.950969
0.954884
0.960795
0.9857
1.02686
1.18889
1.53101
2.44393
2.65447
2.64886
2.65971
2.72696
2.78887
2.81046
2.81039
2.81806
2.87747
2.93031
3.08851
2.88408
1.00317
0.99692
0.990544
0.983396
0.97798
0.973279
0.969755
0.966428
0.963968
0.961453
0.95961
0.957671
0.956191
0.954642
0.953431
0.952162
0.951182
0.950222
0.95004
0.950252
0.951075
0.9553
0.961209
0.98622
1.02842
1.18075
1.53517
2.45906
2.64641
2.6432
2.65836
2.72912
2.78785
2.80763
2.80748
2.81597
2.87618
2.92778
3.0839
2.8864
1.00317
0.996947
0.990511
0.983437
0.977934
0.97333
0.969704
0.966473
0.963927
0.961482
0.959581
0.957696
0.956161
0.954679
0.953392
0.952206
0.95114
0.950263
0.949973
0.950292
0.950885
0.954679
0.960427
0.984633
1.02415
1.18363
1.51667
2.41745
2.63864
2.63928
2.65869
2.73103
2.78586
2.80318
2.80281
2.81262
2.87457
2.92529
3.08031
2.88831
1.00317
0.99696
0.990498
0.98345
0.97792
0.973343
0.96969
0.966482
0.963919
0.961481
0.959584
0.957688
0.956169
0.954672
0.9534
0.952202
0.951146
0.950256
0.949954
0.950261
0.95084
0.95456
0.960217
0.983982
1.0229
1.17953
1.50859
2.39463
2.63097
2.63692
2.66271
2.73519
2.78207
2.79464
2.7939
2.80592
2.87239
2.92271
3.07439
2.88873
1.00317
0.99696
0.990496
0.983445
0.977925
0.973328
0.969707
0.966456
0.963949
0.961446
0.95962
0.95765
0.956206
0.954632
0.953442
0.952158
0.951194
0.950202
0.949981
0.950162
0.950886
0.955132
0.960479
0.985063
1.02448
1.16857
1.51107
2.41148
2.6174
2.6304
2.6641
2.73741
2.77969
2.78928
2.78795
2.80112
2.86926
2.91846
3.06913
2.88967
1.00316
0.996987
0.990468
0.98348
0.977885
0.973375
0.969652
0.96651
0.963891
0.961495
0.959577
0.957683
0.95618
0.954662
0.953414
0.952197
0.951157
0.95024
0.949911
0.950192
0.950733
0.954315
0.959668
0.982801
1.02025
1.17046
1.48485
2.35833
2.60563
2.62669
2.66584
2.73798
2.77579
2.78318
2.78176
2.79609
2.86548
2.91348
3.06221
2.88967
1.00316
0.996999
0.990453
0.983495
0.977867
0.973392
0.969632
0.966527
0.963874
0.961507
0.959568
0.957687
0.956182
0.954658
0.953422
0.952191
0.951165
0.950228
0.949891
0.950145
0.950685
0.954149
0.959389
0.981961
1.01869
1.16498
1.47164
2.32415
2.59526
2.62737
2.67026
2.73776
2.76892
2.77372
2.77245
2.78962
2.86286
2.91012
3.05803
2.88953
1.00316
0.996991
0.990455
0.98349
0.977868
0.973387
0.969638
0.966516
0.963891
0.961482
0.959599
0.957651
0.956219
0.954622
0.953458
0.952159
0.951202
0.950183
0.949907
0.95005
0.950715
0.954634
0.959602
0.98249
1.01953
1.1529
1.47055
2.33488
2.58199
2.62503
2.67113
2.73676
2.76406
2.76708
2.76562
2.78395
2.85941
2.90587
3.05177
2.88849
1.00316
0.997016
0.990431
0.983515
0.977839
0.973419
0.969596
0.96656
0.963837
0.961538
0.959541
0.957707
0.956175
0.954661
0.953433
0.952185
0.951178
0.950203
0.949842
0.950051
0.950568
0.953801
0.958722
0.98015
1.01432
1.15443
1.44048
2.27781
2.57019
2.62316
2.67113
2.73314
2.75539
2.75812
2.75741
2.77836
2.85695
2.90263
3.04521
2.88526
1.00315
0.997024
0.99042
0.983524
0.977826
0.973431
0.969578
0.966578
0.963817
0.961556
0.959526
0.957721
0.956166
0.954669
0.953434
0.952186
0.951183
0.95019
0.949816
0.949999
0.950509
0.953608
0.958394
0.979053
1.01209
1.14763
1.42275
2.23216
2.55313
2.6212
2.67089
2.72893
2.74746
2.74969
2.74983
2.77314
2.85355
2.89709
3.03804
2.88205
1.00316
0.997013
0.990426
0.983516
0.977831
0.973425
0.96958
0.966577
0.963817
0.961549
0.95954
0.957697
0.956198
0.954636
0.953473
0.952153
0.951213
0.950157
0.949814
0.949922
0.950461
0.954334
0.958432
0.980348
1.01255
1.13313
1.41609
2.2227
2.53486
2.61748
2.6688
2.72266
2.73679
2.73889
2.74044
2.76729
2.84952
2.89256
3.02913
2.87517
1.00316
0.99701
0.990424
0.98352
0.977823
0.973434
0.969567
0.966594
0.963795
0.961576
0.959514
0.957725
0.956178
0.954655
0.953465
0.952157
0.951214
0.950149
0.949776
0.949873
0.950427
0.95385
0.958037
0.978248
1.00987
1.12526
1.39393
2.18055
2.51822
2.61573
2.66499
2.71544
2.72617
2.72913
2.73198
2.76279
2.84579
2.88406
3.01744
2.86898
1.00316
0.997011
0.990417
0.983525
0.977815
0.973439
0.969557
0.966607
0.963773
0.961606
0.959483
0.957762
0.95615
0.954687
0.953446
0.952171
0.951211
0.950135
0.949726
0.949802
0.950298
0.953665
0.957469
0.977311
1.00709
1.116
1.37119
2.1425
2.4979
2.61298
2.65869
2.70626
2.71455
2.71818
2.72334
2.75734
2.83953
2.87677
3.00498
2.86091
1.00316
0.997015
0.990403
0.983544
0.977792
0.973465
0.969531
0.966638
0.96374
0.961651
0.959437
0.95782
0.956094
0.95475
0.953384
0.952236
0.951146
0.950175
0.949616
0.949792
0.950118
0.952633
0.956433
0.973986
1.00125
1.11265
1.33494
2.05322
2.47526
2.60821
2.65527
2.69738
2.70439
2.708
2.71484
2.75311
2.83409
2.86681
2.99344
2.84997
1.00316
0.996998
0.990412
0.98354
0.977792
0.973467
0.969531
0.966641
0.963736
0.961666
0.959419
0.957849
0.95607
0.954777
0.953365
0.952253
0.951127
0.950179
0.949554
0.949717
0.950013
0.95234
0.955882
0.972388
0.997882
1.10209
1.30784
1.97279
2.44293
2.59736
2.64642
2.68067
2.69144
2.69619
2.70561
2.74629
2.82456
2.8542
2.97239
2.83768
1.00317
0.996959
0.990448
0.98351
0.977817
0.973446
0.96955
0.966621
0.963759
0.961647
0.959436
0.957847
0.956069
0.954786
0.953363
0.952247
0.951137
0.950155
0.949536
0.949587
0.949996
0.952475
0.955748
0.971539
0.997044
1.08545
1.29224
1.93047
2.40557
2.58708
2.63716
2.66423
2.67869
2.68389
2.69648
2.74191
2.81558
2.84171
2.95813
2.81917
1.00317
0.996935
0.990466
0.983497
0.977823
0.973446
0.96955
0.966624
0.963762
0.961649
0.959438
0.957855
0.95606
0.954807
0.953337
0.952274
0.951108
0.950163
0.949475
0.949515
0.949871
0.95216
0.95516
0.97023
0.993566
1.07565
1.26335
1.88176
2.36543
2.5737
2.62753
2.64992
2.66882
2.67133
2.68465
2.73263
2.80309
2.82263
2.92872
2.80056
1.00316
0.996915
0.990474
0.983482
0.977823
0.973442
0.969544
0.966627
0.963755
0.961655
0.959428
0.957865
0.956041
0.954823
0.953303
0.952302
0.951058
0.95019
0.949389
0.949428
0.949881
0.950856
0.956949
0.96456
0.995202
1.05585
1.24373
1.78899
2.33788
2.54639
2.60116
2.63235
2.65642
2.66067
2.67674
2.72643
2.79251
2.80682
2.90573
2.76363
1.00317
0.996884
0.990507
0.983453
0.977848
0.973426
0.969557
0.966624
0.963762
0.961652
0.959436
0.95786
0.956046
0.95482
0.953298
0.952307
0.951035
0.950207
0.949324
0.949336
0.949788
0.950574
0.956538
0.962986
0.993155
1.04549
1.21999
1.69342
2.28723
2.53021
2.58006
2.61691
2.6365
2.6432
2.66587
2.71726
2.77669
2.78141
2.8644
2.72621
1.00317
0.996848
0.990551
0.983411
0.977893
0.973392
0.969589
0.966605
0.96378
0.961642
0.959448
0.957846
0.956057
0.954804
0.953304
0.952296
0.951031
0.950206
0.949277
0.949255
0.94955
0.950531
0.954563
0.962072
0.987175
1.03706
1.19843
1.60979
2.24633
2.51502
2.57182
2.60817
2.62415
2.63238
2.65817
2.70569
2.76087
2.75913
2.82751
2.64883
1.02216
1.02694
1.02412
1.02115
1.01836
1.01485
1.01209
1.00939
1.00712
1.00505
1.00323
1.00156
1.00005
0.998681
0.997409
0.996278
0.995205
0.994472
0.994307
0.994736
0.995557
1.00028
1.00782
1.03811
1.09293
1.27408
1.69898
2.69312
2.76043
2.74072
2.75031
2.81354
2.85667
2.87559
2.88896
2.92916
3.00511
3.06057
3.19649
2.85803
1.02217
1.02693
1.02417
1.0211
1.01842
1.01478
1.01216
1.00932
1.00719
1.00498
1.0033
1.00149
1.00014
0.998598
0.997495
0.996192
0.995289
0.994388
0.994379
0.994564
0.996082
0.998853
1.01109
1.0308
1.10514
1.25389
1.72141
2.70783
2.75818
2.73928
2.75308
2.81854
2.85905
2.87521
2.88896
2.93386
3.01065
3.06628
3.20046
2.86357
1.02217
1.02693
1.02417
1.0211
1.01842
1.01478
1.01216
1.00932
1.00719
1.00498
1.0033
1.00149
1.00013
0.998598
0.997496
0.99619
0.995291
0.994386
0.994384
0.994574
0.996087
0.998893
1.01102
1.03127
1.10413
1.2553
1.71951
2.70701
2.75683
2.74007
2.75673
2.82227
2.86052
2.8746
2.88971
2.93873
3.01601
3.0715
3.20338
2.86344
1.02217
1.02693
1.02415
1.02112
1.01839
1.01481
1.01213
1.00935
1.00716
1.005
1.00327
1.00151
1.0001
0.998627
0.997464
0.996223
0.99526
0.994419
0.994363
0.994702
0.995683
1.00078
1.00865
1.03776
1.09527
1.26886
1.70013
2.69685
2.75539
2.74184
2.76056
2.82503
2.86164
2.8749
2.89153
2.94368
3.02095
3.07742
3.20613
2.86703
1.02217
1.02693
1.02417
1.0211
1.01842
1.01478
1.01216
1.00932
1.00719
1.00498
1.0033
1.00149
1.00013
0.998599
0.997494
0.996193
0.995287
0.994389
0.994379
0.994568
0.996096
0.998864
1.01115
1.03061
1.10528
1.25266
1.72126
2.70762
2.75545
2.73985
2.7607
2.82614
2.86302
2.87548
2.89302
2.94836
3.02576
3.08232
3.20943
2.87436
1.02216
1.02694
1.02412
1.02115
1.01836
1.01485
1.01209
1.00939
1.00712
1.00505
1.00323
1.00157
1.00005
0.998688
0.997402
0.996286
0.995198
0.994481
0.994301
0.994726
0.995557
1.00022
1.00791
1.03762
1.09331
1.27278
1.69944
2.69316
2.75662
2.74169
2.7625
2.82732
2.86409
2.87662
2.89482
2.95192
3.02899
3.08542
3.21161
2.88115
1.02215
1.02694
1.02411
1.02115
1.01836
1.01484
1.0121
1.00938
1.00715
1.00502
1.00327
1.00152
1.00011
0.998633
0.997456
0.996234