/*--------------------------------*- C++ -*----------------------------------*\
  =========                 |
  \\      /  F ield         | OpenFOAM: The Open Source CFD Toolbox
   \\    /   O peration     | Website:  https://openfoam.org
    \\  /    A nd           | Version:  6.0
     \\/     M anipulation  |
\*---------------------------------------------------------------------------*/
FoamFile
{
    version     2.0;
    format      ascii;
    class       volScalarField;
    location    "3";
    object      p;
}
// * * * * * * * * * * * * * * * * * * * * * * * * * * * * * * * * * * * * * //

dimensions      [1 -1 -2 0 0 0 0];

internalField   nonuniform List<scalar> 
2700
(
1
1
1
1
1.00001
1.00002
1.00005
1.00011
1.00025
1.00054
1.00117
1.00254
1.00553
1.01203
1.02623
1.05734
1.12615
1.28144
1.64728
2.58564
5.41842
23.1506
20.1599
16.7951
14.783
13.7707
13.5066
13.5756
13.8327
13.8556
1
1
1
1
1.00001
1.00002
1.00005
1.00011
1.00025
1.00054
1.00117
1.00254
1.00553
1.01203
1.02623
1.05735
1.12617
1.2815
1.64743
2.58612
5.42084
23.1432
20.1522
16.7865
14.7731
13.7559
13.5034
13.578
13.8365
13.8552
1
1
1
1
1.00001
1.00002
1.00005
1.00011
1.00025
1.00054
1.00117
1.00254
1.00553
1.01204
1.02624
1.05737
1.12622
1.28161
1.64771
2.58697
5.42568
23.1278
20.1356
16.7671
14.7502
13.7241
13.4933
13.5754
13.8347
13.8525
1
1
1
1
1.00001
1.00002
1.00005
1.00011
1.00025
1.00054
1.00117
1.00254
1.00553
1.01205
1.02625
1.0574
1.12629
1.28177
1.64809
2.58815
5.43284
23.104
20.1102
16.7372
14.7152
13.6811
13.4774
13.5672
13.828
13.8491
1
1
1
1
1.00001
1.00002
1.00005
1.00011
1.00025
1.00054
1.00117
1.00255
1.00554
1.01205
1.02627
1.05743
1.12637
1.28196
1.64857
2.58963
5.44221
23.0715
20.0759
16.6974
14.6696
13.6302
13.4574
13.553
13.8165
13.8434
1
1
1
1
1.00001
1.00002
1.00005
1.00011
1.00025
1.00054
1.00117
1.00255
1.00554
1.01206
1.02629
1.05748
1.12647
1.2822
1.64914
2.59139
5.45362
23.03
20.0325
16.6477
14.6143
13.5725
13.4334
13.5343
13.801
13.8335
1
1
1
1
1.00001
1.00002
1.00005
1.00011
1.00025
1.00054
1.00117
1.00255
1.00555
1.01207
1.02632
1.05753
1.12659
1.28246
1.64979
2.59341
5.46694
22.9794
19.9799
16.5888
14.5497
13.5089
13.4048
13.5105
13.7802
13.8173
1
1
1
1
1.00001
1.00002
1.00005
1.00011
1.00025
1.00054
1.00117
1.00255
1.00555
1.01208
1.02634
1.05759
1.12672
1.28276
1.65051
2.59566
5.482
22.9192
19.9179
16.5206
14.4767
13.4402
13.3712
13.4814
13.7538
13.7942
1
1
1
1
1.00001
1.00002
1.00005
1.00011
1.00025
1.00054
1.00117
1.00255
1.00556
1.0121
1.02637
1.05765
1.12686
1.28309
1.6513
2.59811
5.49864
22.8493
19.8461
16.4441
14.395
13.3672
13.3315
13.4465
13.7214
13.7636
1
1
1
1
1.00001
1.00002
1.00005
1.00011
1.00025
1.00054
1.00118
1.00256
1.00556
1.01211
1.0264
1.05772
1.12701
1.28344
1.65214
2.60075
5.51667
22.7693
19.7647
16.3589
14.3055
13.2912
13.284
13.4064
13.6827
13.7251
1
1
1
1
1.00001
1.00002
1.00005
1.00011
1.00025
1.00054
1.00118
1.00256
1.00557
1.01213
1.02643
1.05779
1.12717
1.2838
1.65303
2.60353
5.53589
22.6791
19.673
16.2667
14.2064
13.2146
13.2256
13.363
13.6364
13.6786
1
1
1
1
1.00001
1.00002
1.00005
1.00011
1.00025
1.00054
1.00118
1.00256
1.00558
1.01214
1.02647
1.05787
1.12734
1.28418
1.65396
2.60643
5.55608
22.5784
19.571
16.1666
14.1001
13.135
13.1598
13.3187
13.5779
13.6233
1
1
1
1
1.00001
1.00002
1.00005
1.00011
1.00025
1.00054
1.00118
1.00257
1.00558
1.01216
1.0265
1.05794
1.12751
1.28457
1.65491
2.60941
5.57696
22.4668
19.4593
16.0572
13.9878
13.0509
13.0885
13.269
13.5093
13.56
1
1
1
1
1.00001
1.00002
1.00005
1.00011
1.00025
1.00054
1.00118
1.00257
1.00559
1.01217
1.02654
1.05802
1.12768
1.28497
1.65587
2.61243
5.59824
22.3441
19.3379
15.9388
13.8687
12.9628
13.0121
13.2119
13.4316
13.4874
1
1
1
1
1.00001
1.00002
1.00005
1.00011
1.00025
1.00054
1.00118
1.00257
1.0056
1.01219
1.02657
1.05809
1.12785
1.28536
1.65682
2.61544
5.6196
22.2099
19.2069
15.8111
13.7434
12.8699
12.9301
13.1463
13.3453
13.4066
1
1
1
1
1.00001
1.00002
1.00005
1.00012
1.00025
1.00054
1.00118
1.00258
1.00561
1.0122
1.0266
1.05817
1.12801
1.28574
1.65775
2.61839
5.64073
22.0639
19.0659
15.6747
13.6119
12.7729
12.8424
13.0721
13.2496
13.3152
1
1
1
1
1.00001
1.00002
1.00005
1.00012
1.00025
1.00055
1.00119
1.00258
1.00561
1.01222
1.02664
1.05824
1.12817
1.28611
1.65863
2.62122
5.6613
21.9057
18.9148
15.5299
13.4743
12.6711
12.7486
12.9884
13.1442
13.2142
1
1
1
1
1.00001
1.00002
1.00005
1.00012
1.00025
1.00055
1.00119
1.00258
1.00562
1.01223
1.02667
1.0583
1.12832
1.28644
1.65945
2.62387
5.68096
21.7351
18.7533
15.3764
13.3315
12.5651
12.6486
12.8947
13.0281
13.1007
1
1
1
1
1.00001
1.00002
1.00005
1.00012
1.00025
1.00055
1.00119
1.00259
1.00562
1.01224
1.02669
1.05836
1.12845
1.28674
1.66019
2.62628
5.69931
21.5516
18.5817
15.2147
13.1833
12.4539
12.5421
12.7902
12.9009
12.975
1
1
1
1
1.00001
1.00002
1.00005
1.00012
1.00025
1.00055
1.00119
1.00259
1.00563
1.01225
1.02671
1.05841
1.12856
1.287
1.6608
2.62836
5.71596
21.355
18.3993
15.045
13.0311
12.3384
12.4287
12.6738
12.7608
12.8333
1
1
1
1
1.00001
1.00002
1.00005
1.00012
1.00025
1.00055
1.00119
1.00259
1.00563
1.01226
1.02673
1.05845
1.12864
1.28719
1.66128
2.63002
5.73047
21.1446
18.2065
14.8677
12.8748
12.2177
12.308
12.5445
12.6072
12.6749
1
1
1
1
1.00001
1.00002
1.00005
1.00012
1.00025
1.00055
1.00119
1.00259
1.00563
1.01227
1.02674
1.05847
1.12869
1.28731
1.66158
2.63118
5.74238
20.92
18.0026
14.6837
12.7165
12.0922
12.1796
12.4005
12.4378
12.4943
1
1
1
1
1.00001
1.00002
1.00005
1.00012
1.00025
1.00055
1.00119
1.00259
1.00563
1.01227
1.02674
1.05847
1.1287
1.28734
1.66166
2.63175
5.75116
20.6806
17.7878
14.4934
12.5566
11.9614
12.0429
12.2395
12.2517
12.2886
1
1
1
1
1.00001
1.00002
1.00005
1.00012
1.00025
1.00055
1.00119
1.00259
1.00563
1.01226
1.02673
1.05846
1.12867
1.28727
1.66151
2.63165
5.7562
20.4256
17.5619
14.299
12.3981
11.8257
11.8973
12.0576
12.044
12.0507
1
1
1
1
1.00001
1.00002
1.00005
1.00012
1.00025
1.00055
1.00119
1.00259
1.00563
1.01225
1.02671
1.05842
1.12858
1.28708
1.66108
2.63082
5.75692
20.1543
17.325
14.1017
12.242
11.685
11.7436
11.8514
11.811
11.7719
1
1
1
1
1.00001
1.00002
1.00005
1.00012
1.00025
1.00055
1.00119
1.00258
1.00562
1.01224
1.02668
1.05835
1.12843
1.28675
1.66031
2.62906
5.7526
19.8657
17.0778
13.9053
12.0917
11.5393
11.5809
11.6207
11.5414
11.4352
1
1
1
1
1.00001
1.00002
1.00005
1.00012
1.00025
1.00054
1.00119
1.00258
1.00561
1.01221
1.02663
1.05824
1.1282
1.28624
1.65911
2.62607
5.74207
19.5589
16.8206
13.7135
11.9493
11.3889
11.4016
11.3728
11.219
11.0227
1
1
1
1
1.00001
1.00002
1.00005
1.00011
1.00025
1.00054
1.00118
1.00257
1.0056
1.01218
1.02656
1.05809
1.12787
1.2855
1.65738
2.62154
5.72439
19.2322
16.5581
13.5331
11.8172
11.2388
11.2023
11.0971
10.8266
10.5027
1
1
1
1
1.00001
1.00002
1.00005
1.00011
1.00025
1.00054
1.00118
1.00256
1.00558
1.01214
1.02648
1.0579
1.12744
1.28452
1.65503
2.61525
5.6982
18.8787
16.2979
13.3707
11.6956
11.0856
10.9801
10.7764
10.3631
9.82898
1
1
1
1
1.00001
1.00002
1.00005
1.00011
1.00025
1.00054
1.00117
1.00255
1.00555
1.01209
1.02636
1.05765
1.1269
1.28327
1.65199
2.60691
5.66301
18.49
16.0612
13.2336
11.5816
10.9179
10.7168
10.4014
9.80978
8.88681
1
1
1
1
1.00001
1.00002
1.00005
1.00011
1.00024
1.00053
1.00116
1.00252
1.00548
1.01194
1.02603
1.05691
1.12522
1.2794
1.64241
2.57957
5.54854
17.367
15.5931
12.9618
11.3333
10.4902
10.0468
9.48705
8.42898
6.08276
1
1
1
1
1.00001
1.00002
1.00005
1.00011
1.00024
1.00052
1.00113
1.00246
1.00534
1.01164
1.02537
1.05546
1.122
1.27205
1.62474
2.53163
5.3644
15.8989
14.5949
12.2183
10.698
9.81105
9.23832
8.54235
7.52524
5.4421
1
1
1
1
1.00001
1.00002
1.00005
1.00011
1.00023
1.0005
1.00109
1.00237
1.00515
1.01122
1.02446
1.05348
1.11764
1.26216
1.60108
2.46729
5.1127
14.3008
13.4022
11.4815
10.0505
9.15243
8.51515
7.8172
6.96593
5.47453
1
1
1
1
1.00001
1.00002
1.00005
1.0001
1.00022
1.00047
1.00103
1.00223
1.00486
1.01058
1.02308
1.05045
1.11093
1.24696
1.56485
2.37043
4.77366
12.6022
12.1022
10.8388
9.5342
8.65625
8.00416
7.35369
6.64028
5.56961
1
1
1
1
1.00001
1.00002
1.00004
1.00009
1.0002
1.00043
1.00093
1.00201
1.00439
1.00956
1.02084
1.04555
1.1001
1.22245
1.50668
2.21757
4.27797
10.6745
10.6085
10.1614
9.20417
8.33868
7.68191
7.0838
6.46626
5.60465
1
1
1
1
1.00001
1.00002
1.00003
1.00008
1.00016
1.00036
1.00078
1.0017
1.0037
1.00806
1.01759
1.03846
1.08445
1.18723
1.42395
2.00474
3.63683
8.77827
10.0572
9.8005
9.1458
8.23753
7.52294
6.92599
6.35322
5.60394
1
1
1
1
1
1.00001
1.00002
1.00005
1.00011
1.00025
1.00053
1.00116
1.00251
1.00545
1.01183
1.02573
1.05609
1.12302
1.27333
1.62429
2.51611
4.88253
9.77425
9.60124
9.0892
8.24732
7.51729
6.89656
6.32612
5.61077
1
1
1
1
1
1.00001
1.00002
1.00004
1.00008
1.00018
1.0004
1.00087
1.00189
1.00411
1.00894
1.01944
1.0424
1.09288
1.20557
1.4652
2.10497
3.86754
8.80703
9.07893
8.87953
8.29993
7.51867
6.85204
6.28808
5.62548
1
1
1
1
1
1.00001
1.00001
1.00003
1.00006
1.00014
1.0003
1.00066
1.00143
1.00311
1.00677
1.01476
1.03222
1.07062
1.15601
1.35074
1.81887
3.0753
6.68911
8.53223
8.4454
8.1659
7.53549
6.83806
6.25971
5.62902
1
1
1
1
1
1
1.00001
1.00002
1.00004
1.00009
1.00019
1.0004
1.00088
1.0019
1.00413
1.00897
1.01949
1.04244
1.09284
1.20509
1.4626
2.09148
3.70137
7.37709
7.95083
7.84438
7.50109
6.85435
6.27191
5.64528
1
1
1
1
1
1
1.00001
1.00001
1.00002
1.00005
1.00011
1.00024
1.00053
1.00115
1.0025
1.00543
1.0118
1.02568
1.05602
1.12296
1.27342
1.62534
2.51235
4.8579
7.39529
7.38694
7.28634
6.93703
6.3317
5.70237
1
1
1
1
1
1
1
1.00001
1.00001
1.00003
1.00007
1.00015
1.00031
1.00068
1.00148
1.00321
1.00695
1.01509
1.03281
1.07159
1.15737
1.35164
1.81388
2.98979
6.02811
6.91948
6.90011
6.80374
6.49976
5.85998
1
1
1
1
1
1
1
1
1.00001
1.00002
1.00004
1.00008
1.00017
1.00036
1.00078
1.00169
1.00365
1.00789
1.01706
1.03698
1.08043
1.17634
1.39323
1.90833
3.17053
5.8681
6.69536
6.64755
6.46904
6.06319
1
1
1
1
1
1
1
1
1
1.00001
1.00002
1.00004
1.00009
1.00019
1.0004
1.00087
1.00187
1.00404
1.00871
1.01881
1.04065
1.08823
1.19317
1.43079
1.99457
3.39706
6.21896
6.39396
6.31655
6.05337
1
1
1
1
1
1
1
1
1
1.00001
1.00001
1.00002
1.00005
1.00012
1.00025
1.00055
1.00119
1.00258
1.0056
1.01216
1.02642
1.05759
1.12635
1.28107
1.64403
2.56174
4.93872
5.88628
5.92427
5.84623
1
1
1
1
1
1
1
1
1
1
1.00001
1.00001
1.00003
1.00006
1.00013
1.00028
1.00061
1.00132
1.00285
1.00617
1.01336
1.02893
1.06287
1.13746
1.30454
1.69346
2.62758
4.7701
5.44295
5.41231
1
1
1
1
1
1
1
1
1
1
1
1.00001
1.00001
1.00003
1.00006
1.00013
1.00028
1.0006
1.00129
1.00278
1.00599
1.01289
1.0278
1.06009
1.13065
1.28743
1.64674
2.49847
4.42631
5.01577
1
1
1
1
1
1
1
1
1
1
1
1
1.00001
1.00001
1.00003
1.00006
1.00012
1.00026
1.00057
1.00122
1.00262
1.00564
1.01213
1.02614
1.05645
1.12257
1.26905
1.6025
2.38857
4.20132
1
1
1
1
1
1
1
1
1
1
1
1
1
1
1.00001
1.00002
1.00004
1.00008
1.00017
1.00036
1.00075
1.00158
1.00334
1.00702
1.01478
1.03108
1.0654
1.13775
1.28961
1.60214
1
1
1
1
1
1
1
1
1
1
1
1
1
1
1
1.00001
1.00002
1.00004
1.00009
1.00019
1.00041
1.00089
1.00191
1.00411
1.00883
1.01903
1.0411
1.08916
1.19526
1.43485
1
1
1
1
1
1
1
1
1
1
1
1
1
1
1
1
1.00001
1.00002
1.00004
1.00009
1.00019
1.0004
1.00087
1.00186
1.00399
1.00856
1.01837
1.03951
1.08529
1.1853
1
1
1
1
1
1
1
1
1
1
1
1
1
1
1
1
1.00001
1.00001
1.00003
1.00007
1.00014
1.00031
1.00067
1.00146
1.00316
1.00685
1.01486
1.03232
1.07054
1.15515
1
1
1
1
1
1
1
1
1
1
1
1
1
1
1
1
1.00001
1.00001
1.00002
1.00005
1.00011
1.00025
1.00053
1.00116
1.00253
1.00551
1.01201
1.02621
1.05738
1.12647
1
1
1
1
1
1
1
1
1
1
1
1
1
1
1
1
1
1.00001
1.00002
1.00003
1.00007
1.00015
1.00033
1.00072
1.00157
1.00339
1.00733
1.01589
1.03442
1.07491
1
1
1
1
1
1
1
1
1
1
1
1
1
1
1
1
1
1.00001
1.00001
1.00003
1.00006
1.00012
1.00027
1.00059
1.00128
1.00278
1.00605
1.01316
1.02866
1.06269
1
1
1
1
1
1
1
1
1
1
1
1
1
1
1
1
1
1
1.00001
1.00002
1.00005
1.0001
1.00021
1.00046
1.00101
1.0022
1.00478
1.01041
1.0227
1.04965
1
1
1
1
1
1
1
1
1
1
1
1
1
1
1
1
1
1
1.00001
1.00001
1.00003
1.00007
1.00015
1.00032
1.00069
1.00149
1.00323
1.00701
1.01522
1.03312
1
1
1
1
1
1
1
1
1
1
1
1
1
1
1
1
1
1
1.00001
1.00001
1.00002
1.00005
1.00012
1.00025
1.00055
1.0012
1.00261
1.00569
1.01238
1.02701
1
1
1
1
1
1
1
1
1
1
1
1
1
1
1
1
1
1
1
1.00001
1.00002
1.00004
1.00009
1.00019
1.0004
1.00087
1.00189
1.00408
1.00883
1.01911
1
1
1
1
1
1
1
1
1
1
1
1
1
1
1
1
1
1
1
1.00001
1.00002
1.00004
1.00008
1.00018
1.00039
1.00084
1.00182
1.00395
1.00855
1.01855
2.45488
1.57032
1.33393
1.34207
1.50408
1.64863
1.65104
1.65844
1.67649
1.71456
1.79098
1.83366
1.91952
2.09644
2.48083
3.50429
5.86916
5.69363
5.39873
5.17451
4.94714
4.7426
4.59771
4.42457
4.23393
4.06004
3.89133
3.72764
3.69656
3.65895
2.70705
1.81813
1.5972
1.61137
1.59321
1.60318
1.62445
1.65663
1.6888
1.72276
1.78209
1.83729
1.93057
2.12046
2.5262
3.51363
5.82126
5.70778
5.43781
5.16754
4.92967
4.69567
4.54049
4.44428
4.25388
4.0696
3.90962
3.77467
3.61927
3.60668
3.29303
2.46476
2.17217
1.76622
1.61698
1.62203
1.64098
1.68101
1.69823
1.72569
1.78144
1.85184
1.94646
2.13913
2.54991
3.51981
5.72756
5.67417
5.51942
5.24024
4.96238
4.7391
4.50892
4.33308
4.25132
4.18072
3.96265
3.80906
3.59292
3.53825
4.18173
2.98833
2.27166
1.86478
1.69668
1.6741
1.67543
1.68149
1.69597
1.72583
1.78171
1.855
1.95227
2.15017
2.56593
3.50663
5.56805
5.55112
5.4724
5.28226
5.01078
4.76916
4.56805
4.33074
4.20209
4.09115
3.90979
3.78444
3.57716
3.54305
4.34375
3.27258
2.50583
2.10869
1.89289
1.77484
1.71728
1.71889
1.72549
1.74241
1.7789
1.85241
1.95245
2.15386
2.57096
3.49232
5.4623
5.45571
5.42074
5.32898
5.14177
4.89937
4.67393
4.37603
4.15027
3.98561
3.83705
3.74899
3.56581
3.56404
4.46904
3.55615
2.83706
2.33752
2.01489
1.83781
1.74763
1.74737
1.75045
1.76144
1.78833
1.84538
1.95455
2.15518
2.5692
3.46706
5.36499
5.37681
5.36257
5.31338
5.19455
4.95347
4.65305
4.40434
4.14517
3.95961
3.80684
3.6515
3.60275
3.52604
4.60717
3.80547
3.08743
2.54196
2.17505
1.96015
1.82852
1.79845
1.80032
1.80769
1.82742
1.87235
1.96706
2.16192
2.56793
3.44691
5.30953
5.33331
5.32204
5.28341
5.18691
4.97859
4.62002
4.37783
4.16883
3.95995
3.77565
3.62094
3.59355
3.56856
4.70772
3.98856
3.30007
2.73948
2.33573
2.07727
1.90961
1.84227
1.84368
1.85007
1.86816
1.91027
1.99978
2.18419
2.56612
3.37875
5.08149
5.21383
5.20614
5.17746
5.10399
4.94299
4.61923
4.33043
4.15799
3.92844
3.76198
3.63999
3.59422
3.57821
4.76099
4.11309
3.47332
2.91791
2.49213
2.2029
2.00807
1.91388
1.91552
1.92231
1.94021
1.98026
2.06361
2.2323
2.57482
3.28248
4.78559
5.05255
5.04291
5.01536
4.95735
4.84301
4.6488
4.35206
4.0952
3.87039
3.6811
3.59104
3.52403
3.40021
4.79718
4.20362
3.61397
3.0754
2.63986
2.33043
2.11413
1.99827
1.99959
2.00588
2.02356
2.06455
2.15133
2.32866
2.68921
3.20787
4.16124
4.9224
4.9108
4.87837
4.80593
4.69343
4.51173
4.35147
4.04379
3.82318
3.65201
3.49796
3.44474
3.33169
4.84998
4.28176
3.73028
3.21309
2.77706
2.45738
2.22792
2.1054
2.10716
2.11472
2.13471
2.17946
2.27266
2.46241
2.84539
3.20302
3.72183
4.64775
4.74955
4.73712
4.70054
4.61899
4.45062
4.21738
3.92515
3.72
3.57491
3.50395
3.4351
3.32704
4.93
4.35384
3.82497
3.33014
2.9031
2.58507
2.35122
2.24244
2.24459
2.25267
2.27342
2.31927
2.41416
2.60628
2.93329
3.20429
3.49756
3.94252
4.62239
4.61105
4.57123
4.48272
4.33603
4.08398
3.86118
3.65195
3.50678
3.45483
3.35027
3.33569
5.03441
4.42064
3.9046
3.43421
3.02363
2.71691
2.48859
2.39891
2.40043
2.40709
2.42474
2.46422
2.54661
2.71587
3.00067
3.21103
3.4137
3.61632
3.97552
4.36165
4.34751
4.29813
4.18386
4.01664
3.78539
3.60456
3.47227
3.40642
3.33464
3.26262
5.10892
4.47789
3.97401
3.53138
3.14352
2.85709
2.64269
2.51548
2.5157
2.51957
2.53292
2.56676
2.64336
2.80526
3.09496
3.27834
3.40277
3.46379
3.53613
3.68092
3.98231
3.9915
3.9728
3.90304
3.75355
3.56864
3.44559
3.39904
3.32005
3.23142
5.13916
4.52996
4.04733
3.63614
3.27278
3.00217
2.788
2.6249
2.62491
2.6287
2.64323
2.68289
2.77562
2.97609
3.2731
3.38991
3.40303
3.37705
3.32771
3.33613
3.38175
3.50799
3.68422
3.66077
3.61556
3.54027
3.4621
3.41349
3.35765
3.31111
5.09827
4.58102
4.13176
3.75569
3.41191
3.14378
2.91996
2.7401
2.74088
2.74752
2.77062
2.83382
2.9871
3.3196
3.45862
3.43277
3.4031
3.32046
3.13853
3.0908
3.0998
3.13126
3.20439
3.34514
3.47387
3.46878
3.44126
3.39129
3.3524
3.31979
4.9549
4.6653
4.25821
3.9042
3.55719
3.27326
3.03575
2.87574
2.87936
2.89664
2.95029
3.09158
3.4043
3.54255
3.52982
3.47815
3.37008
3.18254
2.98998
2.91228
2.91714
2.93398
2.97631
3.07048
3.26841
3.32473
3.32314
3.29507
3.22959
3.19377
4.65995
4.61264
4.44286
4.08997
3.70923
3.38677
3.15216
3.06261
3.07296
3.11046
3.21078
3.50134
3.71534
3.68499
3.63546
3.53247
3.30198
3.07158
2.87131
2.7713
2.77381
2.78383
2.81105
2.87444
3.01434
3.14653
3.14634
3.13716
3.09822
3.09847
4.05416
4.48381
4.42785
4.25591
3.89218
3.50021
3.35489
3.36634
3.41444
3.49457
3.66035
3.99495
3.9828
3.8427
3.6932
3.56584
3.26249
2.98957
2.79604
2.65486
2.64586
2.64955
2.66326
2.69854
2.77601
2.93637
3.03474
3.03282
3.03265
3.03229
3.34558
4.43881
4.39715
4.28098
4.03133
3.6841
3.69156
3.7372
3.85221
4.03652
4.21735
4.1853
4.08298
3.89407
3.74514
3.57773
3.22304
2.93639
2.73258
2.56474
2.50238
2.50403
2.51162
2.53294
2.58234
2.68787
2.9015
2.93695
2.92983
2.93974
1.90135
4.33139
4.32909
4.28686
4.16949
3.92318
3.92456
3.94461
4.00658
4.1391
4.28529
4.27582
4.22536
4.09863
3.89434
3.54408
3.17539
2.89973
2.67409
2.49601
2.38595
2.37317
2.3762
2.38747
2.41628
2.4808
2.61825
2.83118
2.8395
2.82089
1.75322
4.03812
4.30691
4.29097
4.23691
4.11337
4.11203
4.12685
4.18615
4.35354
4.49108
4.484
4.45482
4.32027
3.95699
3.50969
3.16089
2.87973
2.63204
2.44465
2.31189
2.26008
2.2616
2.26814
2.28568
2.32597
2.41658
2.61901
2.7117
2.72217
1.59416
3.4414
4.25944
4.29484
4.28998
4.27735
4.28975
4.34552
4.5063
4.84233
4.92627
4.91368
4.76695
4.41575
3.92997
3.49149
3.15624
2.86978
2.60893
2.41034
2.26304
2.16752
2.16666
2.16898
2.17765
2.19915
2.2496
2.37755
2.65696
2.65682
1.3195
2.23739
4.13666
4.29147
4.34829
4.39931
4.51261
4.77459
5.34004
5.7086
5.62814
5.36723
4.88782
4.40039
3.90958
3.48027
3.15444
2.86482
2.59491
2.38669
2.2276
2.10945
2.07713
2.07841
2.08317
2.09475
2.11945
2.17804
2.33959
2.68239
1.26261
2.0277
3.81662
4.26759
4.39054
4.57138
4.94454
5.7171
6.55352
6.46235
6.17343
5.53569
4.95036
4.40384
3.90501
3.47909
3.15443
2.86191
2.58604
2.37211
2.20186
2.07361
2.00062
2.0008
2.00317
2.01042
2.01697
2.03907
2.10121
2.28858
1.20405
1.78603
3.17217
4.19462
4.44282
4.92067
5.89042
7.26504
7.18122
6.94298
6.44264
5.59943
4.95756
4.39894
3.89599
3.47932
3.15216
2.85314
2.5745
2.35862
2.18048
2.04805
1.94442
1.93735
1.93838
1.9418
1.94897
1.96531
2.00161
2.05846
1.13247
1.48578
2.28991
4.0001
4.5544
5.69694
7.84289
7.78515
7.63003
7.30036
6.71755
5.76318
4.99176
4.38915
3.89274
3.47901
3.14384
2.84354
2.56526
2.347
2.1646
2.02484
1.91357
1.88718
1.88849
1.89154
1.89383
1.8989
1.93001
1.98401
1.10764
1.38783
2.04411
3.56901
4.79913
7.4572
8.29639
8.25689
8.1104
7.73322
6.92048
5.90675
5.04003
4.39048
3.89065
3.47486
3.13094
2.82883
2.55186
2.33299
2.15024
2.00627
1.8959
1.84975
1.85139
1.85549
1.87448
1.89127
1.93021
2.01523
1.07465
1.26159
1.67768
2.62771
4.75788
8.52941
8.83496
8.82472
8.60833
8.05274
7.01518
6.01233
5.10693
4.41732
3.90097
3.47437
3.12523
2.82202
2.54403
2.32198
2.13517
1.98586
1.87278
1.81246
1.81931
1.8317
1.8579
1.91404
1.93764
1.93365
1.07272
1.25638
1.66877
2.64219
4.99137
10.0871
9.93566
9.43036
8.92518
8.18238
7.14225
6.10222
5.16303
4.44184
3.91709
3.48447
3.1312
2.82596
2.54493
2.31992
2.1302
1.97727
1.86204
1.78096
1.78465
1.80845
1.83501
1.87163
1.98877
2.06567
)
;

boundaryField
{
    inlet
    {
        type            fixedValue;
        value           uniform 1;
    }
    outlet
    {
        type            waveTransmissive;
        gamma           1.4;
        fieldInf        1;
        lInf            3;
        value           nonuniform List<scalar> 
30
(
3.6504
3.59727
3.56488
3.56188
3.55973
3.55046
3.54387
3.45717
3.37257
3.34676
3.33455
3.30341
3.25959
3.2504
3.24564
3.17261
3.10951
3.06891
3.01184
2.92739
2.83213
2.73449
2.62052
2.42132
2.16445
2.02656
1.97528
1.97034
1.95726
1.99322
)
;
    }
    top
    {
        type            symmetryPlane;
    }
    bottom
    {
        type            symmetryPlane;
    }
    step
    {
        type            zeroGradient;
    }
    defaultFaces
    {
        type            empty;
    }
}


// ************************************************************************* //
