/*--------------------------------*- C++ -*----------------------------------*\
  =========                 |
  \\      /  F ield         | OpenFOAM: The Open Source CFD Toolbox
   \\    /   O peration     | Website:  https://openfoam.org
    \\  /    A nd           | Version:  6.0
     \\/     M anipulation  |
\*---------------------------------------------------------------------------*/
FoamFile
{
    version     2.0;
    format      ascii;
    class       surfaceScalarField;
    location    "3";
    object      phi;
}
// * * * * * * * * * * * * * * * * * * * * * * * * * * * * * * * * * * * * * //

dimensions      [1 0 -1 0 0 0 0];

internalField   nonuniform List<scalar> 
5280
(
0.00279994
-4.87521e-14
0.00279994
-2.97774e-13
0.00279994
-9.71949e-13
0.00279994
-2.56495e-12
0.00279994
-6.15881e-12
0.00279994
-1.41262e-11
0.00279994
-3.16721e-11
0.00279994
-7.02221e-11
0.00279994
-1.54872e-10
0.00279994
-3.408e-10
0.00279994
-7.4951e-10
0.00279994
-1.64926e-09
0.00279995
-3.6353e-09
0.00279995
-8.04136e-09
0.00279997
-1.79154e-08
0.00280002
-4.04973e-08
0.00280012
-9.42741e-08
0.00280037
-2.32407e-07
0.00280104
-6.33895e-07
0.00280304
-2.17494e-06
0.00281388
-9.87564e-06
0.00269681
0.000103132
0.00249431
0.000198019
0.00222728
0.000265157
0.00187951
0.000346862
0.00136605
0.000513009
0.000878618
0.000487205
0.000512551
0.000365976
0.000289853
0.00022272
0.000287059
0.00279994
-9.58694e-14
0.00279994
-5.85648e-13
0.00279994
-1.9116e-12
0.00279994
-5.04354e-12
0.00279994
-1.21052e-11
0.00279994
-2.77479e-11
0.00279994
-6.21632e-11
0.00279994
-1.37688e-10
0.00279994
-3.03303e-10
0.00279994
-6.66483e-10
0.00279994
-1.46334e-09
0.00279994
-3.21372e-09
0.00279994
-7.06714e-09
0.00279995
-1.55884e-08
0.00279997
-3.4606e-08
0.00280001
-7.7857e-08
0.00280011
-1.80018e-07
0.00280033
-4.38902e-07
0.00280091
-1.17153e-06
0.00280245
-3.89811e-06
0.00281302
-1.94844e-05
0.00268305
0.000219178
0.002474
0.000402595
0.00220006
0.000537233
0.00184875
0.000697266
0.00140583
0.000955481
0.000975358
0.000917441
0.000565433
0.00077592
0.000124438
0.000663592
0.000406986
0.00279994
-1.40235e-13
0.00279994
-8.56774e-13
0.00279994
-2.79656e-12
0.00279994
-7.3767e-12
0.00279994
-1.76971e-11
0.00279994
-4.05396e-11
0.00279994
-9.07438e-11
0.00279994
-2.00788e-10
0.00279994
-4.41777e-10
0.00279994
-9.69456e-10
0.00279994
-2.1253e-09
0.00279994
-4.65946e-09
0.00279994
-1.02266e-08
0.00279995
-2.25078e-08
0.00279997
-4.98403e-08
0.00280001
-1.11792e-07
0.00280009
-2.57494e-07
0.00280029
-6.2443e-07
0.00280082
-1.65203e-06
0.00280218
-5.44965e-06
0.00281222
-2.85563e-05
0.00267144
0.00034608
0.00245545
0.00061413
0.00217868
0.000812131
0.00183286
0.00104219
0.0014294
0.0013585
0.00103441
0.00131214
0.000634352
0.00117606
0.000263974
0.00103376
0.000667318
0.00279994
-1.81256e-13
0.00279994
-1.10751e-12
0.00279994
-3.61496e-12
0.00279994
-9.53354e-12
0.00279994
-2.28628e-11
0.00279994
-5.23444e-11
0.00279994
-1.17086e-10
0.00279994
-2.5886e-10
0.00279994
-5.69007e-10
0.00279994
-1.24733e-09
0.00279994
-2.73129e-09
0.00279994
-5.98042e-09
0.00279994
-1.31077e-08
0.00279995
-2.88055e-08
0.00279997
-6.36799e-08
0.0028
-1.42566e-07
0.00280008
-3.27646e-07
0.00280026
-7.92224e-07
0.00280074
-2.08641e-06
0.00280197
-6.85982e-06
0.00281149
-3.71131e-05
0.00266146
0.000482302
0.00243901
0.000832156
0.00216117
0.00108812
0.00182402
0.00137844
0.00144705
0.00173498
0.00107214
0.0016868
0.000691942
0.00155638
0.000321602
0.00140404
0.000985512
0.00279994
-2.18687e-13
0.00279994
-1.33631e-12
0.00279994
-4.36173e-12
0.00279994
-1.15013e-11
0.00279994
-2.7574e-11
0.00279994
-6.31056e-11
0.00279994
-1.41086e-10
0.00279994
-3.11735e-10
0.00279994
-6.84773e-10
0.00279994
-1.5e-09
0.00279994
-3.28196e-09
0.00279994
-7.18009e-09
0.00279994
-1.5723e-08
0.00279995
-3.45201e-08
0.00279996
-7.62354e-08
0.0028
-1.70485e-07
0.00280007
-3.91308e-07
0.00280024
-9.44597e-07
0.00280067
-2.48142e-06
0.00280178
-8.14707e-06
0.00281078
-4.51492e-05
0.0026525
0.000626898
0.00242467
0.00105554
0.00214616
0.00136481
0.00181744
0.00170628
0.00146202
0.00209005
0.0011031
0.00204539
0.000732459
0.00192705
0.000360284
0.00177616
0.0013426
0.00279994
-2.52418e-13
0.00279994
-1.54251e-12
0.00279994
-5.03472e-12
0.00279994
-1.32746e-11
0.00279994
-3.18197e-11
0.00279994
-7.28036e-11
0.00279994
-1.62716e-10
0.00279994
-3.59391e-10
0.00279994
-7.89122e-10
0.00279994
-1.72779e-09
0.00279994
-3.77854e-09
0.00279994
-8.26234e-09
0.00279994
-1.80835e-08
0.00279995
-3.96812e-08
0.00279996
-8.75843e-08
0.00279999
-1.95748e-07
0.00280006
-4.48994e-07
0.00280021
-1.08294e-06
0.00280061
-2.8412e-06
0.00280161
-9.32413e-06
0.00281007
-5.26476e-05
0.00264475
0.000778636
0.00241099
0.00128498
0.00213438
0.00163958
0.0018129
0.00202683
0.00147482
0.00242765
0.00112561
0.00239433
0.000760592
0.00229196
0.000384888
0.00215186
0.00172478
0.00279994
-2.8236e-13
0.00279994
-1.72552e-12
0.00279994
-5.63205e-12
0.00279994
-1.48486e-11
0.00279994
-3.55893e-11
0.00279994
-8.14167e-11
0.00279994
-1.81933e-10
0.00279994
-4.01753e-10
0.00279994
-8.81933e-10
0.00279994
-1.93052e-09
0.00279994
-4.2208e-09
0.00279994
-9.22689e-09
0.00279994
-2.0189e-08
0.00279995
-4.42885e-08
0.00279996
-9.77246e-08
0.00279999
-2.18342e-07
0.00280005
-5.00639e-07
0.00280019
-1.20692e-06
0.00280055
-3.16397e-06
0.00280143
-1.03808e-05
0.00280934
-5.96053e-05
0.00263737
0.000937235
0.00239965
0.00151829
0.00212291
0.00191455
0.00180988
0.00233899
0.0014868
0.00275028
0.00114245
0.00273848
0.000781112
0.00265339
0.000403094
0.00252992
0.0021259
0.00279994
-3.08367e-13
0.00279994
-1.88446e-12
0.00279994
-6.15078e-12
0.00279994
-1.62159e-11
0.00279994
-3.88648e-11
0.00279994
-8.89055e-11
0.00279994
-1.98655e-10
0.00279994
-4.38646e-10
0.00279994
-9.62845e-10
0.00279994
-2.10745e-09
0.00279994
-4.60721e-09
0.00279994
-1.00707e-08
0.00279994
-2.20331e-08
0.00279995
-4.8329e-08
0.00279996
-1.06628e-07
0.00279998
-2.38205e-07
0.00280004
-5.46099e-07
0.00280016
-1.31618e-06
0.00280048
-3.44869e-06
0.00280125
-1.13128e-05
0.00280858
-6.59953e-05
0.0026315
0.00110107
0.00238707
0.00175848
0.0021156
0.00218422
0.00180663
0.00264708
0.00149844
0.00305802
0.00115539
0.00308129
0.000793914
0.00301491
0.000415115
0.00290872
0.00253937
0.00279994
-3.30206e-13
0.00279994
-2.01791e-12
0.00279994
-6.5863e-12
0.00279994
-1.73642e-11
0.00279994
-4.16175e-11
0.00279994
-9.52048e-11
0.00279994
-2.12738e-10
0.00279994
-4.69761e-10
0.00279994
-1.03119e-09
0.00279994
-2.25717e-09
0.00279994
-4.93481e-09
0.00279994
-1.07875e-08
0.00279994
-2.36032e-08
0.00279995
-5.17777e-08
0.00279996
-1.14249e-07
0.00279998
-2.55262e-07
0.00280002
-5.85295e-07
0.00280013
-1.41088e-06
0.00280042
-3.69764e-06
0.00280108
-1.21335e-05
0.00280769
-7.16716e-05
0.00262429
0.00127147
0.00237876
0.00199979
0.00210555
0.00245566
0.00180475
0.00294701
0.00151072
0.00335159
0.00116453
0.0034272
0.000805453
0.00337391
0.000423231
0.00329089
0.00296171
0.00279994
-3.47546e-13
0.00279994
-2.12382e-12
0.00279994
-6.93196e-12
0.00279994
-1.82759e-11
0.00279994
-4.38051e-11
0.00279994
-1.00217e-10
0.00279994
-2.23959e-10
0.00279994
-4.94598e-10
0.00279994
-1.08585e-09
0.00279994
-2.37712e-09
0.00279994
-5.19778e-09
0.00279994
-1.13639e-08
0.00279994
-2.48678e-08
0.00279994
-5.45593e-08
0.00279995
-1.20403e-07
0.00279997
-2.69044e-07
0.00280001
-6.16963e-07
0.0028001
-1.4873e-06
0.00280034
-3.89757e-06
0.00280084
-1.27892e-05
0.00280677
-7.66805e-05
0.00261948
0.00144601
0.00236646
0.00224855
0.00210332
0.0027171
0.00179849
0.00325095
0.00152533
0.00362437
0.00116423
0.00378807
0.000820803
0.00371729
0.000430693
0.00368086
0.00339159
0.00279994
-3.59979e-13
0.00279994
-2.19975e-12
0.00279994
-7.17973e-12
0.00279994
-1.893e-11
0.00279994
-4.53769e-11
0.00279994
-1.03827e-10
0.00279994
-2.32066e-10
0.00279994
-5.126e-10
0.00279994
-1.12561e-09
0.00279994
-2.46473e-09
0.00279994
-5.39057e-09
0.00279994
-1.17881e-08
0.00279994
-2.58022e-08
0.00279994
-5.66223e-08
0.00279995
-1.24984e-07
0.00279996
-2.79342e-07
0.0028
-6.40718e-07
0.00280007
-1.54484e-06
0.00280026
-4.04884e-06
0.0028006
-1.32878e-05
0.00280567
-8.08355e-05
0.00261317
0.00162596
0.00235887
0.00249879
0.00209187
0.00298225
0.00179835
0.00354377
0.00152276
0.00389951
0.00118181
0.00412866
0.000855703
0.0040434
0.00043647
0.00410001
0.00382787
0.00279994
-3.67027e-13
0.00279994
-2.2427e-12
0.00279994
-7.31989e-12
0.00279994
-1.93008e-11
0.00279994
-4.62721e-11
0.00279994
-1.05896e-10
0.00279994
-2.36749e-10
0.00279994
-5.23095e-10
0.00279994
-1.14902e-09
0.00279994
-2.51683e-09
0.00279994
-5.50645e-09
0.00279994
-1.20459e-08
0.00279994
-2.63758e-08
0.00279994
-5.79022e-08
0.00279995
-1.27857e-07
0.00279996
-2.85872e-07
0.00279998
-6.55961e-07
0.00280003
-1.58224e-06
0.00280017
-4.14878e-06
0.00280035
-1.36207e-05
0.00280436
-8.39418e-05
0.0026058
0.00181226
0.00235395
0.00274665
0.00208119
0.00325322
0.00179616
0.003828
0.001518
0.00417729
0.0011934
0.00445289
0.000852327
0.00438451
0.000440096
0.00451208
0.00426755
0.00279994
-3.68096e-13
0.00279994
-2.24911e-12
0.00279994
-7.34075e-12
0.00279994
-1.93576e-11
0.00279994
-4.64167e-11
0.00279994
-1.06255e-10
0.00279994
-2.37632e-10
0.00279994
-5.25252e-10
0.00279994
-1.15425e-09
0.00279994
-2.52943e-09
0.00279994
-5.5366e-09
0.00279994
-1.21175e-08
0.00279994
-2.65455e-08
0.00279994
-5.83027e-08
0.00279994
-1.28803e-07
0.00279995
-2.88127e-07
0.00279996
-6.61461e-07
0.00279999
-1.59627e-06
0.00280007
-4.18753e-06
0.00280006
-1.37539e-05
0.00280294
-8.59392e-05
0.00259983
0.00200339
0.00234671
0.00299587
0.002075
0.00352317
0.00179246
0.00410969
0.00151657
0.00445285
0.00119831
0.00477081
0.000851747
0.00473102
0.000440435
0.00492332
0.00470804
0.00279994
-3.62512e-13
0.00279994
-2.21482e-12
0.00279994
-7.22878e-12
0.00279994
-1.90647e-11
0.00279994
-4.57256e-11
0.00279994
-1.0471e-10
0.00279994
-2.34282e-10
0.00279994
-5.18114e-10
0.00279994
-1.13921e-09
0.00279994
-2.49796e-09
0.00279994
-5.47109e-09
0.00279994
-1.19817e-08
0.00279994
-2.62645e-08
0.00279994
-5.77223e-08
0.00279994
-1.27602e-07
0.00279994
-2.85626e-07
0.00279994
-6.56153e-07
0.00279994
-1.58451e-06
0.00279995
-4.1596e-06
0.00279974
-1.36757e-05
0.00280137
-8.66984e-05
0.00259346
0.00219962
0.00234078
0.00324472
0.0020679
0.00379438
0.00179175
0.004385
0.00151599
0.00472827
0.00120598
0.00508051
0.000850477
0.00508648
0.000443306
0.0053303
0.00515119
0.00279994
-3.49503e-13
0.00279994
-2.13513e-12
0.00279994
-6.96861e-12
0.00279994
-1.83815e-11
0.00279994
-4.41016e-11
0.00279994
-1.01039e-10
0.00279994
-2.26202e-10
0.00279994
-5.00589e-10
0.00279994
-1.1015e-09
0.00279994
-2.41718e-09
0.00279994
-5.29845e-09
0.00279994
-1.16131e-08
0.00279994
-2.54775e-08
0.00279994
-5.60385e-08
0.00279993
-1.23981e-07
0.00279993
-2.77745e-07
0.00279992
-6.38567e-07
0.00279989
-1.54325e-06
0.00279982
-4.05428e-06
0.00279937
-1.33523e-05
0.00279968
-8.61574e-05
0.00258824
0.00239969
0.00233308
0.00349613
0.00206315
0.00406267
0.00179047
0.00465692
0.00151794
0.00500052
0.00121049
0.00538767
0.000853361
0.00544349
0.00044426
0.00573927
0.00559558
0.00279994
-3.28214e-13
0.00279994
-2.0048e-12
0.00279994
-6.54314e-12
0.00279994
-1.72632e-11
0.00279994
-4.14371e-11
0.00279994
-9.49964e-11
0.00279994
-2.12847e-10
0.00279994
-4.71475e-10
0.00279994
-1.0385e-09
0.00279994
-2.28138e-09
0.00279994
-5.00631e-09
0.00279994
-1.0985e-08
0.00279994
-2.41265e-08
0.00279993
-5.31258e-08
0.00279993
-1.17667e-07
0.00279992
-2.63887e-07
0.00279989
-6.07372e-07
0.00279983
-1.46943e-06
0.00279968
-3.86423e-06
0.00279897
-1.27664e-05
0.00279781
-8.41704e-05
0.00258269
0.00260379
0.00232621
0.00374893
0.00205868
0.0043286
0.00179145
0.0049234
0.0015207
0.00527097
0.00121978
0.00568831
0.000854952
0.00580818
0.000449162
0.0061448
0.00604473
0.00279994
-2.97686e-13
0.00279994
-1.81797e-12
0.00279994
-5.9333e-12
0.00279994
-1.56594e-11
0.00279994
-3.7612e-11
0.00279994
-8.63082e-11
0.00279994
-1.93608e-10
0.00279994
-4.29436e-10
0.00279994
-9.4729e-10
0.00279994
-2.08421e-09
0.00279994
-4.5808e-09
0.00279994
-1.00673e-08
0.00279993
-2.21455e-08
0.00279993
-4.88394e-08
0.00279992
-1.08338e-07
0.00279991
-2.43331e-07
0.00279987
-5.60887e-07
0.00279977
-1.35887e-06
0.00279951
-3.57763e-06
0.00279851
-1.18804e-05
0.00279578
-8.06269e-05
0.00257768
0.00281119
0.00231928
0.00400374
0.0020534
0.00459289
0.0017931
0.00518297
0.00152628
0.00553751
0.00122568
0.00598862
0.000862442
0.00617121
0.00045223
0.00655483
0.00649703
0.00279994
-2.56863e-13
0.00279994
-1.56817e-12
0.00279994
-5.11792e-12
0.00279994
-1.35144e-11
0.00279994
-3.24932e-11
0.00279994
-7.46716e-11
0.00279994
-1.67811e-10
0.00279994
-3.72997e-10
0.00279994
-8.2466e-10
0.00279994
-1.81871e-09
0.00279994
-4.00693e-09
0.00279994
-8.82742e-09
0.00279993
-1.94649e-08
0.00279993
-4.30298e-08
0.00279992
-9.56745e-08
0.00279989
-2.15381e-07
0.00279984
-4.97585e-07
0.0027997
-1.20813e-06
0.00279934
-3.18673e-06
0.00279803
-1.06775e-05
0.0027935
-7.53181e-05
0.00257175
0.00302258
0.00231308
0.0042589
0.00205079
0.00485365
0.00179595
0.00543704
0.00153269
0.00580049
0.00123872
0.00628231
0.000867998
0.00654175
0.000460484
0.00696206
0.00695763
0.00279994
-2.04547e-13
0.00279994
-1.24811e-12
0.00279994
-4.07322e-12
0.00279994
-1.07657e-11
0.00279994
-2.59311e-11
0.00279994
-5.97452e-11
0.00279994
-1.34697e-10
0.00279994
-3.00486e-10
0.00279994
-6.66957e-10
0.00279994
-1.47691e-09
0.00279994
-3.26732e-09
0.00279994
-7.22761e-09
0.00279993
-1.60018e-08
0.00279993
-3.55141e-08
0.00279991
-7.92679e-08
0.00279988
-1.79111e-07
0.0027998
-4.15283e-07
0.00279962
-1.01168e-06
0.00279913
-2.67531e-06
0.00279746
-9.10445e-06
0.00279104
-6.81439e-05
0.00256702
0.00323659
0.00230538
0.00451709
0.00204636
0.00511117
0.00180137
0.00568131
0.00154284
0.00605874
0.00124846
0.00657639
0.000881196
0.00690883
0.000467017
0.00737606
0.00742485
0.00279994
-1.3942e-13
0.00279994
-8.49683e-13
0.00279994
-2.77273e-12
0.00279994
-7.34346e-12
0.00279994
-1.77588e-11
0.00279994
-4.1149e-11
0.00279994
-9.34199e-11
0.00279994
-2.10049e-10
0.00279994
-4.70143e-10
0.00279994
-1.05006e-09
0.00279994
-2.34307e-09
0.00279993
-5.22714e-09
0.00279993
-1.16687e-08
0.00279992
-2.61053e-08
0.0027999
-5.87195e-08
0.00279986
-1.33669e-07
0.00279976
-3.12148e-07
0.00279953
-7.65534e-07
0.00279891
-2.03484e-06
0.00279686
-7.14438e-06
0.00278831
-5.88643e-05
0.00256059
0.00345465
0.00229952
0.00477482
0.00204496
0.00536426
0.00180731
0.0059182
0.00155441
0.00631137
0.00126709
0.00686346
0.000892456
0.00728331
0.000480332
0.00778792
0.0079052
0.00279994
-5.9992e-14
0.00279994
-3.63812e-13
0.00279994
-1.18683e-12
0.00279994
-3.16965e-12
0.00279994
-7.78933e-12
0.00279994
-1.84548e-11
0.00279994
-4.30242e-11
0.00279994
-9.95723e-11
0.00279994
-2.29574e-10
0.00279994
-5.2799e-10
0.00279994
-1.21188e-09
0.00279993
-2.77713e-09
0.00279993
-6.35845e-09
0.00279992
-1.45677e-08
0.00279989
-3.35085e-08
0.00279984
-7.7894e-08
0.00279972
-1.85548e-07
0.00279943
-4.63514e-07
0.00279867
-1.24984e-06
0.00279619
-4.75317e-06
0.00278538
-4.73496e-05
0.00255513
0.00367557
0.00229069
0.00503598
0.00204186
0.00561166
0.00181745
0.00614191
0.00157081
0.00655775
0.00128384
0.00715016
0.000912793
0.0076542
0.000492361
0.00820823
0.00839769
0.00279994
3.53542e-14
0.00279994
2.19379e-13
0.00279994
7.16743e-13
0.00279994
1.84083e-12
0.00279994
4.18163e-12
0.00279994
8.80535e-12
0.00279994
1.75395e-11
0.00279994
3.32708e-11
0.00279994
5.98945e-11
0.00279994
1.00694e-10
0.00279994
1.51545e-10
0.00279993
1.78977e-10
0.00279993
5.65362e-11
0.00279991
-6.10868e-10
0.00279988
-2.96783e-09
0.00279982
-1.02497e-08
0.00279967
-3.19798e-08
0.00279931
-9.81543e-08
0.0027984
-3.09336e-07
0.00279551
-1.94367e-06
0.00278218
-3.33516e-05
0.00254806
0.0039007
0.00228379
0.00529708
0.00204131
0.00585274
0.0018283
0.00635417
0.00159075
0.00679504
0.00131157
0.00742909
0.000931498
0.00803414
0.000513195
0.00862631
0.00891089
0.00279994
1.48297e-13
0.00279994
9.10201e-13
0.00279994
2.97163e-12
0.00279994
7.77645e-12
0.00279994
1.83647e-11
0.00279994
4.11081e-11
0.00279994
8.93181e-11
0.00279994
1.90732e-10
0.00279994
4.03018e-10
0.00279994
8.45833e-10
0.00279993
1.76707e-09
0.00279993
3.67997e-09
0.00279992
7.64841e-09
0.00279991
1.58902e-08
0.00279987
3.30934e-08
0.0027998
6.94875e-08
0.00279962
1.48616e-07
0.0027992
3.29836e-07
0.00279813
7.8371e-07
0.00279484
1.2714e-06
0.00277878
-1.66544e-05
0.00253987
0.00413095
0.00227306
0.0055608
0.00204033
0.00608409
0.00184485
0.00654898
0.0016165
0.00702313
0.00134098
0.00770434
0.000961168
0.00841382
0.000528646
0.00905875
0.00943962
0.00279994
2.80723e-13
0.00279994
1.72013e-12
0.00279994
5.61536e-12
0.00279994
1.4737e-11
0.00279994
3.50026e-11
0.00279994
7.90198e-11
0.00279994
1.73604e-10
0.00279994
3.75718e-10
0.00279994
8.06247e-10
0.00279994
1.72153e-09
0.00279993
3.66497e-09
0.00279993
7.78911e-09
0.00279992
1.65448e-08
0.0027999
3.51798e-08
0.00279986
7.51061e-08
0.00279977
1.61972e-07
0.00279957
3.56933e-07
0.00279908
8.20309e-07
0.00279786
2.02577e-06
0.00279421
4.85468e-06
0.00277497
3.19982e-06
0.00253061
0.00436699
0.00226259
0.00582583
0.00204104
0.00630429
0.00186337
0.00672593
0.00164952
0.00723674
0.00138702
0.00796657
0.00100009
0.00880059
0.000563257
0.00949538
0.0100029
0.00279994
4.34476e-13
0.00279994
2.66019e-12
0.00279994
8.68394e-12
0.00279994
2.28212e-11
0.00279994
5.43494e-11
0.00279994
1.23179e-10
0.00279994
2.71992e-10
0.00279994
5.92201e-10
0.00279994
1.27947e-09
0.00279994
2.75237e-09
0.00279993
5.90633e-09
0.00279993
1.26584e-08
0.00279992
2.71246e-08
0.0027999
5.82054e-08
0.00279985
1.25457e-07
0.00279974
2.733e-07
0.00279949
6.09002e-07
0.0027989
1.41797e-06
0.00279738
3.55814e-06
0.00279283
9.34851e-06
0.00276952
2.70863e-05
0.00251666
0.00461191
0.00224828
0.00609129
0.00204388
0.00650738
0.0018891
0.00688004
0.00168962
0.00743594
0.00143614
0.00821978
0.0010633
0.00917325
0.00059957
0.00995906
0.0106025
0.00279994
6.0981e-13
0.00279994
3.73169e-12
0.00279994
1.21816e-11
0.00279994
3.20443e-11
0.00279994
7.64609e-11
0.00279994
1.73777e-10
0.00279994
3.8509e-10
0.00279994
8.42013e-10
0.00279994
1.82794e-09
0.00279994
3.95295e-09
0.00279993
8.53066e-09
0.00279993
1.83926e-08
0.00279992
3.96611e-08
0.00279989
8.56732e-08
0.00279983
1.85963e-07
0.00279969
4.08175e-07
0.00279939
9.17229e-07
0.00279865
2.15707e-06
0.00279674
5.48304e-06
0.00279092
1.51203e-05
0.00276206
5.64886e-05
0.00250005
0.00486631
0.00223087
0.00635768
0.00204826
0.00668868
0.00191901
0.00700858
0.00174054
0.00761417
0.00148332
0.00847672
0.00113834
0.00951804
0.000648427
0.0104488
0.0112509
0.00279994
8.03764e-13
0.00279994
4.9164e-12
0.00279994
1.6049e-11
0.00279994
4.22523e-11
0.00279994
1.00978e-10
0.00279994
2.30029e-10
0.00279994
5.11251e-10
0.00279994
1.1218e-09
0.00279994
2.44503e-09
0.00279994
5.31059e-09
0.00279993
1.15147e-08
0.00279993
2.49514e-08
0.00279991
5.40923e-08
0.00279988
1.17509e-07
0.00279981
2.56608e-07
0.00279965
5.66912e-07
0.00279929
1.28323e-06
0.0027984
3.04405e-06
0.00279607
7.82842e-06
0.00278888
2.22597e-05
0.00275503
9.08431e-05
0.00247159
0.00514245
0.00221
0.00661651
0.00205955
0.00683787
0.00195804
0.00710942
0.001814
0.00775792
0.00156401
0.00872646
0.00122156
0.00986028
0.000698899
0.0109714
0.0119498
0.00279994
1.00945e-12
0.00279994
6.17207e-12
0.00279994
2.01476e-11
0.00279994
5.30773e-11
0.00279994
1.27013e-10
0.00279994
2.89883e-10
0.00279994
6.4585e-10
0.00279994
1.42126e-09
0.00279994
3.10798e-09
0.00279994
6.77516e-09
0.00279993
1.47482e-08
0.00279992
3.20931e-08
0.00279991
6.98861e-08
0.00279987
1.52537e-07
0.0027998
3.34763e-07
0.00279962
7.43494e-07
0.00279921
1.69258e-06
0.00279822
4.04106e-06
0.00279558
1.04726e-05
0.00278745
3.03438e-05
0.00274689
0.000131862
0.00242255
0.00545984
0.00218392
0.0068525
0.00207625
0.00694424
0.00200381
0.00718117
0.00187882
0.00788262
0.00163622
0.00896875
0.00126825
0.010228
0.000766925
0.0114725
0.0127167
0.00279994
1.21533e-12
0.00279994
7.43075e-12
0.00279994
2.42601e-11
0.00279994
6.39445e-11
0.00279994
1.53165e-10
0.00279994
3.50073e-10
0.00279994
7.81409e-10
0.00279994
1.72346e-09
0.00279994
3.77867e-09
0.00279994
8.26135e-09
0.00279993
1.80417e-08
0.00279992
3.93996e-08
0.00279991
8.61315e-08
0.00279987
1.88804e-07
0.00279979
4.16332e-07
0.0027996
9.29629e-07
0.00279917
2.1296e-06
0.00279808
5.12416e-06
0.00279513
1.3426e-05
0.00278576
3.96732e-05
0.002742
0.000176043
0.00234388
0.00585128
0.00216121
0.00703257
0.00210869
0.00699553
0.00206086
0.00722832
0.00193676
0.00800638
0.00167509
0.00923017
0.00132336
0.0105795
0.000841077
0.0119547
0.0135577
0.00279994
1.42142e-12
0.00279994
8.66002e-12
0.00279994
2.81943e-11
0.00279994
7.42447e-11
0.00279994
1.77848e-10
0.00279994
4.06745e-10
0.00279994
9.08805e-10
0.00279994
2.00691e-09
0.00279994
4.40635e-09
0.00279994
9.64886e-09
0.00279993
2.11083e-08
0.00279993
4.61839e-08
0.00279991
1.01173e-07
0.00279988
2.22289e-07
0.0027998
4.91479e-07
0.00279963
1.10104e-06
0.00279922
2.53367e-06
0.00279821
6.14115e-06
0.00279531
1.63229e-05
0.0027853
4.96434e-05
0.00273882
0.000222895
0.00216658
0.0064172
0.00215746
0.0070392
0.00215674
0.00699494
0.00213157
0.0072528
0.00201058
0.00812704
0.00176859
0.00947186
0.00143066
0.0109172
0.000933415
0.0124517
0.0144911
0.0111998
1.9081e-12
0.0111998
1.17282e-11
0.0111998
3.84534e-11
0.0111998
1.015e-10
0.0111998
2.43034e-10
0.0111998
5.54579e-10
0.0111998
1.23475e-09
0.0111998
2.71453e-09
0.0111997
5.92928e-09
0.0111997
1.29097e-08
0.0111997
2.80682e-08
0.0111997
6.1009e-08
0.0111997
1.32719e-07
0.0111996
2.89435e-07
0.0111995
6.34801e-07
0.0111992
1.40935e-06
0.0111985
3.20863e-06
0.0111969
7.6686e-06
0.0111932
1.99525e-05
0.0111843
5.84131e-05
0.0111633
0.000245057
0.0120442
0.00551352
0.0111417
0.0079303
0.010276
0.00785615
0.00957575
0.00795007
0.00917408
0.00852714
0.00902416
0.00962155
0.00923773
0.0107038
0.010419
0.0112709
0.00934573
0.0155646
0.0111998
2.6489e-12
0.0111998
1.63571e-11
0.0111998
5.38342e-11
0.0111998
1.42318e-10
0.0111998
3.40866e-10
0.0111998
7.77433e-10
0.0111998
1.72916e-09
0.0111997
3.79629e-09
0.0111997
8.27882e-09
0.0111997
1.79933e-08
0.0111997
3.90465e-08
0.0111997
8.47018e-08
0.0111997
1.83873e-07
0.0111995
4.00106e-07
0.0111993
8.75438e-07
0.0111988
1.9384e-06
0.0111975
4.39911e-06
0.0111947
1.04707e-05
0.0111874
2.70949e-05
0.011167
7.88432e-05
0.0110658
0.000345423
0.0105996
0.00596262
0.0103082
0.00821157
0.010148
0.00801178
0.0100446
0.00805084
0.0101448
0.00842459
0.0105943
0.00916936
0.011531
0.00976449
0.012735
0.0100651
0.00825788
0.0138219
0.0111998
4.0531e-12
0.0111998
2.50148e-11
0.0111998
8.22937e-11
0.0111998
2.17529e-10
0.0111998
5.21044e-10
0.0111998
1.18864e-09
0.0111998
2.64464e-09
0.0111997
5.80854e-09
0.0111997
1.26729e-08
0.0111997
2.75572e-08
0.0111997
5.98319e-08
0.0111997
1.29859e-07
0.0111996
2.82048e-07
0.0111993
6.14028e-07
0.0111989
1.34403e-06
0.0111978
2.97656e-06
0.0111954
6.75414e-06
0.0111897
1.60661e-05
0.0111751
4.15183e-05
0.0111333
0.000120445
0.0109978
0.000480083
0.0107577
0.00618495
0.0104281
0.00853026
0.010289
0.00814682
0.0103609
0.00797775
0.0107056
0.00807999
0.0113552
0.00851963
0.0122658
0.00885322
0.0132622
0.00906664
0.00774378
0.0137748
0.0111998
6.41908e-12
0.0111998
3.93733e-11
0.0111998
1.28862e-10
0.0111998
3.39831e-10
0.0111998
8.13321e-10
0.0111998
1.85547e-09
0.0111997
4.13058e-09
0.0111997
9.08015e-09
0.0111997
1.98322e-08
0.0111997
4.31765e-08
0.0111997
9.38612e-08
0.0111996
2.03971e-07
0.0111994
4.43552e-07
0.0111991
9.66679e-07
0.0111983
2.11772e-06
0.0111965
4.6917e-06
0.0111926
1.06403e-05
0.0111832
2.52653e-05
0.0111593
6.50912e-05
0.0110901
0.000189309
0.0108697
0.000699049
0.0106027
0.00643818
0.0106334
0.00848767
0.0105094
0.00826518
0.0107049
0.00777827
0.0110999
0.00768267
0.0117307
0.00788706
0.0124866
0.00809627
0.0133168
0.00823549
0.00762881
0.0134303
0.0111998
9.31215e-12
0.0111998
5.75212e-11
0.0111998
1.89404e-10
0.0111998
5.01133e-10
0.0111998
1.20196e-09
0.0111998
2.74706e-09
0.0111997
6.12648e-09
0.0111997
1.34936e-08
0.0111997
2.95323e-08
0.0111997
6.44339e-08
0.0111997
1.40386e-07
0.0111996
3.05764e-07
0.0111993
6.66392e-07
0.0111988
1.45542e-06
0.0111977
3.19439e-06
0.0111953
7.08693e-06
0.0111897
1.60818e-05
0.0111766
3.8166e-05
0.011143
9.82341e-05
0.0110458
0.00028587
0.010713
0.0010307
0.00938603
0.00775223
0.0103676
0.00749544
0.0106957
0.00792995
0.0109288
0.00754351
0.0112973
0.00731121
0.0118559
0.00732521
0.0125294
0.00741982
0.0132655
0.00749688
0.00709795
0.0137932
0.0111998
1.46205e-11
0.0111998
8.66278e-11
0.0111998
2.7517e-10
0.0111998
7.16007e-10
0.0111998
1.70648e-09
0.0111997
3.89783e-09
0.0111997
8.71655e-09
0.0111997
1.92877e-08
0.0111997
4.2459e-08
0.0111997
9.324e-08
0.0111996
2.04549e-07
0.0111995
4.48666e-07
0.0111992
9.8465e-07
0.0111984
2.16423e-06
0.0111968
4.77311e-06
0.0111932
1.06042e-05
0.0111852
2.39311e-05
0.0111672
5.58525e-05
0.0111247
0.000140186
0.0109909
0.000418716
0.010177
0.00184363
0.011174
0.00674079
0.0113741
0.00728591
0.0115412
0.00775582
0.0114652
0.00761368
0.0117003
0.0070685
0.0120583
0.00696068
0.0125811
0.00689136
0.0131959
0.00687777
0.00646393
0.0138274
0.0111998
8.64057e-12
0.0111998
5.37864e-11
0.0111998
1.78228e-10
0.0111998
4.72824e-10
0.0111998
1.13484e-09
0.0111998
2.59237e-09
0.0111998
5.7743e-09
0.0111998
1.26958e-08
0.0111998
2.77283e-08
0.0111998
6.03541e-08
0.0111999
1.31144e-07
0.0112
2.84739e-07
0.0112004
6.18099e-07
0.0112012
1.34225e-06
0.011203
2.91851e-06
0.0112072
6.36516e-06
0.0112169
1.39753e-05
0.0112413
3.11256e-05
0.0113092
7.15089e-05
0.0115513
0.000175142
0.0127928
0.000601003
0.0186112
0.000912599
0.0147659
0.0111138
0.0135524
0.00895514
0.01236
0.00879732
0.012575
0.00684634
0.012731
0.00680276
0.0130077
0.00661159
0.0134085
0.00647325
0.00609561
0.0137736
0.0111998
6.5806e-12
0.0111998
4.08439e-11
0.0111998
1.34994e-10
0.0111998
3.57543e-10
0.0111998
8.56933e-10
0.0111998
1.95456e-09
0.0111998
4.34604e-09
0.0111998
9.53663e-09
0.0111998
2.0783e-08
0.0111998
4.51308e-08
0.0111998
9.78234e-08
0.0111999
2.11852e-07
0.0112
4.58689e-07
0.0112003
9.93529e-07
0.0112011
2.15514e-06
0.0112026
4.69149e-06
0.011206
1.02944e-05
0.0112136
2.29805e-05
0.0112308
5.31725e-05
0.0112718
0.000132155
0.011487
0.000382592
0.0111494
0.00124107
0.0133669
0.00886034
0.0148621
0.00744198
0.0156086
0.00803525
0.0133483
0.00909876
0.0133875
0.00676318
0.0134615
0.00653633
0.0136622
0.00626984
0.00586658
0.0138885
0.0111998
7.02761e-12
0.0111998
4.22918e-11
0.0111998
1.36193e-10
0.0111998
3.56632e-10
0.0111998
8.51775e-10
0.0111998
1.94485e-09
0.0111998
4.34098e-09
0.0111998
9.57838e-09
0.0111997
2.10132e-08
0.0111997
4.59693e-08
0.0111997
1.00433e-07
0.0111997
2.19314e-07
0.0111997
4.78914e-07
0.0111996
1.04629e-06
0.0111994
2.28853e-06
0.0111988
5.01847e-06
0.0111976
1.10656e-05
0.0111949
2.46921e-05
0.0111894
5.65652e-05
0.0111801
0.00013757
0.0111665
0.000389693
0.010696
0.00169941
0.0152162
0.00425925
0.01432
0.00831261
0.014286
0.00804384
0.0148753
0.00849822
0.0138913
0.00775934
0.0138448
0.00659133
0.0139335
0.00618711
0.0057364
0.0140642
0.0111998
4.69808e-12
0.0111998
2.88316e-11
0.0111998
9.44066e-11
0.0111998
2.49063e-10
0.0111998
5.96412e-10
0.0111998
1.36171e-09
0.0111998
3.03456e-09
0.0111998
6.67908e-09
0.0111998
1.46078e-08
0.0111998
3.18461e-08
0.0111998
6.93149e-08
0.0111999
1.50748e-07
0.0112
3.27733e-07
0.0112003
7.12457e-07
0.011201
1.54914e-06
0.0112024
3.37067e-06
0.0112058
7.34582e-06
0.0112136
1.60668e-05
0.0112332
3.54286e-05
0.0112879
7.96707e-05
0.0114825
0.000188806
0.0125926
0.00058854
0.0153765
0.00144232
0.0153194
0.0083006
0.0157603
0.00761271
0.0161745
0.00809275
0.0143923
0.00955875
0.0143289
0.00666696
0.0142908
0.00623102
0.005727
0.0143034
0.0111998
2.8558e-12
0.0111998
1.76851e-11
0.0111998
5.83457e-11
0.0111998
1.54508e-10
0.0111998
3.70701e-10
0.0111998
8.47169e-10
0.0111998
1.88865e-09
0.0111998
4.15723e-09
0.0111998
9.09138e-09
0.0111998
1.98163e-08
0.0111998
4.31222e-08
0.0111998
9.37638e-08
0.0111999
2.03807e-07
0.0112002
4.42966e-07
0.0112006
9.62923e-07
0.0112017
2.09423e-06
0.0112039
4.55984e-06
0.0112089
9.95301e-06
0.0112201
2.18451e-05
0.0112462
4.85537e-05
0.0113138
0.000111253
0.0116031
0.000282356
0.0120063
0.00100518
0.0184023
0.0017192
0.015808
0.0102227
0.0161277
0.00779373
0.0176779
0.00803007
0.0150787
0.00928631
0.0148311
0.00649162
0.00582313
0.014744
0.0111998
1.94703e-12
0.0111998
1.19086e-11
0.0111998
3.88755e-11
0.0111998
1.0241e-10
0.0111998
2.4509e-10
0.0111998
5.59517e-10
0.0111998
1.24705e-09
0.0111998
2.74544e-09
0.0111998
6.00639e-09
0.0111998
1.30989e-08
0.0111998
2.85213e-08
0.0111998
6.20539e-08
0.0111999
1.34964e-07
0.0112
2.93505e-07
0.0112003
6.38315e-07
0.011201
1.38853e-06
0.0112024
3.02214e-06
0.0112055
6.5855e-06
0.0112124
1.43878e-05
0.0112282
3.16215e-05
0.0112668
7.05325e-05
0.0113811
0.000163947
0.0119237
0.000464727
0.0119477
0.00167713
0.0165157
0.00564175
0.015789
0.00850952
0.0160268
0.00779546
0.0175257
0.00779866
0.0161962
0.00783909
0.00664328
0.0153973
0.0111998
1.09953e-12
0.0111998
6.77806e-12
0.0111998
2.22747e-11
0.0111998
5.88502e-11
0.0111998
1.40951e-10
0.0111998
3.21612e-10
0.0111998
7.15836e-10
0.0111998
1.57297e-09
0.0111998
3.43356e-09
0.0111998
7.46938e-09
0.0111998
1.62204e-08
0.0111998
3.51918e-08
0.0111999
7.63161e-08
0.0112
1.65454e-07
0.0112003
3.58655e-07
0.0112009
7.7739e-07
0.0112022
1.68493e-06
0.0112051
3.65196e-06
0.0112115
7.91587e-06
0.0112259
1.71627e-05
0.011259
3.72516e-05
0.0113413
8.13033e-05
0.0116233
0.000183405
0.0127203
0.000578689
0.0170105
0.00134902
0.0172366
0.00827433
0.0174538
0.00757049
0.0177534
0.00749846
0.017045
0.00855737
0.00725537
0.0164495
0.0111998
4.93345e-13
0.0111998
3.12929e-12
0.0111998
1.05241e-11
0.0111998
2.80823e-11
0.0111998
6.74605e-11
0.0111998
1.53769e-10
0.0111998
3.41062e-10
0.0111998
7.4564e-10
0.0111998
1.61764e-09
0.0111998
3.49487e-09
0.0111998
7.5333e-09
0.0111998
1.62168e-08
0.0111998
3.48809e-08
0.0111999
7.49832e-08
0.0112001
1.61121e-07
0.0112005
3.4609e-07
0.0112015
7.43217e-07
0.0112035
1.59587e-06
0.011208
3.42758e-06
0.0112178
7.36907e-06
0.0112391