/*--------------------------------*- C++ -*----------------------------------*\
  =========                 |
  \\      /  F ield         | OpenFOAM: The Open Source CFD Toolbox
   \\    /   O peration     | Website:  https://openfoam.org
    \\  /    A nd           | Version:  6.0
     \\/     M anipulation  |
\*---------------------------------------------------------------------------*/
FoamFile
{
    version     2.0;
    format      ascii;
    class       volScalarField;
    location    "3";
    object      T;
}
// * * * * * * * * * * * * * * * * * * * * * * * * * * * * * * * * * * * * * //

dimensions      [0 0 0 1 0 0 0];

internalField   nonuniform List<scalar> 
2700
(
1
1
1
1
1
1.00001
1.00002
1.00005
1.00011
1.00025
1.00054
1.00116
1.00253
1.00552
1.01204
1.02636
1.05823
1.13083
1.30782
1.73932
3.41919
1.97533
2.57084
2.77644
2.80995
2.79132
2.78495
2.80481
2.80405
2.82726
1
1
1
1
1
1.00001
1.00002
1.00005
1.00011
1.00025
1.00054
1.00116
1.00253
1.00552
1.01204
1.02636
1.05825
1.13086
1.30789
1.73979
3.41857
1.9761
2.57325
2.77824
2.80984
2.78966
2.78378
2.8025
2.80372
2.85393
1
1
1
1
1
1.00001
1.00002
1.00005
1.00011
1.00025
1.00054
1.00117
1.00254
1.00552
1.01204
1.02637
1.05827
1.13092
1.308
1.74071
3.41721
1.97842
2.57633
2.77976
2.80946
2.78748
2.78315
2.80114
2.80238
2.85203
1
1
1
1
1
1.00001
1.00002
1.00005
1.00011
1.00025
1.00054
1.00117
1.00254
1.00552
1.01205
1.02639
1.0583
1.131
1.30815
1.74205
3.41522
1.98213
2.57992
2.78118
2.80851
2.78511
2.7821
2.80006
2.80115
2.84794
1
1
1
1
1.00001
1.00001
1.00002
1.00005
1.00011
1.00025
1.00054
1.00117
1.00254
1.00553
1.01206
1.02641
1.05834
1.13109
1.30834
1.74381
3.41259
1.98728
2.58397
2.78274
2.80728
2.78225
2.78068
2.79846
2.79924
2.84207
1
1
1
1
1.00001
1.00001
1.00002
1.00005
1.00011
1.00025
1.00054
1.00117
1.00254
1.00553
1.01207
1.02643
1.05839
1.13121
1.30855
1.74594
3.40931
1.99387
2.58857
2.78387
2.80574
2.77938
2.77943
2.79727
2.79813
2.83803
1
1
1
1
1.00001
1.00001
1.00002
1.00005
1.00011
1.00025
1.00054
1.00117
1.00254
1.00554
1.01208
1.02645
1.05844
1.13134
1.30879
1.74843
3.40541
2.00186
2.5935
2.78539
2.80374
2.77657
2.7773
2.79546
2.79616
2.83244
1
1
1
1
1.00001
1.00001
1.00002
1.00005
1.00011
1.00025
1.00054
1.00117
1.00254
1.00554
1.01209
1.02648
1.0585
1.13149
1.30906
1.75126
3.40086
2.01124
2.5992
2.78613
2.80169
2.77365
2.77529
2.79318
2.79464
2.82752
1
1
1
1
1.00001
1.00001
1.00002
1.00005
1.00011
1.00025
1.00054
1.00117
1.00255
1.00555
1.0121
1.02651
1.05857
1.13165
1.30934
1.75439
3.39563
2.02212
2.60464
2.78773
2.7986
2.77057
2.7735
2.79043
2.79212
2.8227
1
1
1
1
1.00001
1.00001
1.00002
1.00005
1.00011
1.00025
1.00054
1.00117
1.00255
1.00555
1.01212
1.02654
1.05863
1.13183
1.30965
1.75779
3.38982
2.03423
2.61114
2.78798
2.79662
2.76675
2.77087
2.78824
2.78996
2.81688
1
1
1
1
1.00001
1.00001
1.00002
1.00005
1.00011
1.00025
1.00054
1.00117
1.00255
1.00556
1.01213
1.02657
1.05871
1.13201
1.30996
1.76144
3.3833
2.04778
2.6176
2.78966
2.79111
2.76442
2.76783
2.78484
2.78698
2.81242
1
1
1
1
1.00001
1.00001
1.00002
1.00005
1.00011
1.00025
1.00054
1.00118
1.00256
1.00557
1.01215
1.02661
1.05879
1.1322
1.31029
1.76529
3.37609
2.06275
2.6236
2.79218
2.78597
2.76131
2.76582
2.78153
2.78381
2.80575
1
1
1
1
1.00001
1.00001
1.00002
1.00005
1.00011
1.00025
1.00054
1.00118
1.00256
1.00558
1.01216
1.02664
1.05886
1.1324
1.31062
1.76929
3.36826
2.07896
2.62994
2.7936
2.78178
2.75656
2.76154
2.77834
2.77978
2.80153
1
1
1
1
1.00001
1.00001
1.00002
1.00005
1.00011
1.00025
1.00054
1.00118
1.00256
1.00558
1.01218
1.02668
1.05894
1.1326
1.31095
1.77341
3.35978
2.09645
2.6363
2.79483
2.77716
2.75347
2.75911
2.77381
2.77563
2.79381
1
1
1
1
1.00001
1.00001
1.00002
1.00005
1.00011
1.00025
1.00054
1.00118
1.00257
1.00559
1.01219
1.02671
1.05902
1.13279
1.31128
1.77758
3.35069
2.11507
2.64312
2.79497
2.77244
2.74819
2.75399
2.77021
2.77061
2.78934
1
1
1
1
1.00001
1.00001
1.00002
1.00005
1.00011
1.00025
1.00054
1.00118
1.00257
1.0056
1.01221
1.02675
1.0591
1.13299
1.31159
1.78175
3.34094
2.13485
2.65005
2.79484
2.76756
2.74492
2.75116
2.76413
2.76555
2.78046
1
1
1
1
1.00001
1.00001
1.00002
1.00005
1.00011
1.00025
1.00054
1.00118
1.00257
1.0056
1.01223
1.02678
1.05917
1.13317
1.31189
1.78588
3.33056
2.15567
2.65725
2.79445
2.76178
2.73894
2.74513
2.7601
2.75924
2.77534
1
1
1
1
1.00001
1.00001
1.00002
1.00005
1.00012
1.00025
1.00054
1.00118
1.00258
1.00561
1.01224
1.02681
1.05924
1.13334
1.31215
1.7899
3.31949
2.17757
2.66421
2.79363
2.75699
2.73533
2.74189
2.75221
2.7532
2.76501
1
1
1
1
1.00001
1.00001
1.00002
1.00005
1.00012
1.00025
1.00054
1.00118
1.00258
1.00561
1.01225
1.02684
1.0593
1.1335
1.31238
1.79375
3.30779
2.20037
2.6715
2.79208
2.75009
2.72877
2.73488
2.74746
2.74518
2.75877
1
1
1
1
1.00001
1.00001
1.00002
1.00005
1.00012
1.00025
1.00055
1.00119
1.00258
1.00562
1.01226
1.02686
1.05935
1.13363
1.31255
1.79737
3.29536
2.22414
2.6783
2.79062
2.74528
2.72462
2.73074
2.73791
2.73794
2.7465
1
1
1
1
1.00001
1.00001
1.00002
1.00005
1.00012
1.00025
1.00055
1.00119
1.00258
1.00562
1.01227
1.02688
1.05939
1.13373
1.31266
1.80068
3.28224
2.24867
2.68526
2.78778
2.73743
2.71755
2.72301
2.73215
2.7278
2.73842
1
1
1
1
1.00001
1.00001
1.00002
1.00005
1.00012
1.00025
1.00055
1.00119
1.00258
1.00562
1.01227
1.02689
1.05941
1.1338
1.31269
1.80361
3.26837
2.27401
2.69182
2.78571
2.73253
2.71262
2.71699
2.72043
2.71896
2.72353
1
1
1
1
1.00001
1.00001
1.00002
1.00005
1.00012
1.00025
1.00055
1.00119
1.00258
1.00562
1.01227
1.02689
1.05942
1.13383
1.31263
1.80607
3.25372
2.29999
2.69792
2.78153
2.72409
2.70512
2.70885
2.71332
2.7059
2.71242
1
1
1
1
1.00001
1.00001
1.00002
1.00005
1.00012
1.00025
1.00055
1.00119
1.00258
1.00562
1.01227
1.02688
1.0594
1.13381
1.31247
1.80798
3.23817
2.32663
2.7042
2.77887
2.71907
2.69922
2.70066
2.69906
2.69466
2.6933
1
1
1
1
1.00001
1.00001
1.00002
1.00005
1.00012
1.00025
1.00054
1.00119
1.00258
1.00562
1.01226
1.02686
1.05936
1.13373
1.31221
1.80926
3.22178
2.35322
2.70889
2.77342
2.71058
2.69133
2.69169
2.68989
2.67711
2.67696
1
1
1
1
1.00001
1.00001
1.00002
1.00005
1.00012
1.00025
1.00054
1.00118
1.00258
1.00561
1.01225
1.02683
1.05929
1.13359
1.3118
1.8098
3.20427
2.38019
2.71464
2.77037
2.70553
2.68441
2.68143
2.67111
2.66221
2.65024
1
1
1
1
1.00001
1.00001
1.00002
1.00005
1.00011
1.00025
1.00054
1.00118
1.00257
1.0056
1.01222
1.02678
1.05919
1.13336
1.31121
1.80935
3.18635
2.40599
2.71749
2.76422
2.69768
2.67621
2.67106
2.65983
2.6371
2.62332
1
1
1
1
1.00001
1.00001
1.00002
1.00005
1.00011
1.00025
1.00054
1.00118
1.00257
1.00559
1.01219
1.02672
1.05904
1.13302
1.31036
1.80778
3.16652
2.43401
2.7225
2.76108
2.69276
2.66782
2.65732
2.63704
2.61337
2.58118
1
1
1
1
1.00001
1.00001
1.00002
1.00005
1.00011
1.00025
1.00054
1.00117
1.00256
1.00557
1.01215
1.02663
1.05884
1.13256
1.30925
1.80475
3.14685
2.45827
2.72485
2.75539
2.68606
2.65892
2.64407
2.6193
2.57649
2.52989
1
1
1
1
1.00001
1.00001
1.00002
1.00005
1.00011
1.00025
1.00054
1.00117
1.00255
1.00555
1.0121
1.02651
1.05858
1.13197
1.30777
1.80031
3.12369
2.48841
2.73028
2.75319
2.68117
2.64831
2.62595
2.59107
2.54135
2.45504
1
1
1
1
1
1.00001
1.00002
1.00005
1.00011
1.00024
1.00053
1.00116
1.00251
1.00548
1.01195
1.02617
1.0578
1.1301
1.30296
1.78488
3.05351
2.5724
2.71628
2.74762
2.67493
2.62163
2.57882
2.5214
2.40924
2.29849
1
1
1
1
1
1.00001
1.00002
1.00005
1.00011
1.00024
1.00052
1.00113
1.00245
1.00534
1.01164
1.0255
1.0563
1.12665
1.29446
1.7607
2.94635
2.68108
2.73171
2.70751
2.64296
2.58299
2.52351
2.46577
2.34172
2.25065
1
1
1
1
1
1.00001
1.00002
1.00005
1.00011
1.00023
1.0005
1.00109
1.00236
1.00515
1.01123
1.02459
1.05429
1.12199
1.28359
1.72117
2.88688
2.72733
2.72108
2.69003
2.62345
2.5621
2.49034
2.429
2.31963
2.23566
1
1
1
1
1
1.00001
1.00002
1.00005
1.0001
1.00022
1.00047
1.00102
1.00223
1.00485
1.01059
1.0232
1.05119
1.11485
1.26661
1.66777
2.78879
2.76625
2.69088
2.65842
2.58781
2.53607
2.46176
2.40287
2.30693
2.23691
1
1
1
1
1
1.00001
1.00002
1.00004
1.00009
1.00019
1.00042
1.00092
1.00201
1.00438
1.00957
1.02095
1.04618
1.10336
1.23897
1.58995
2.60071
2.7189
2.66608
2.64337
2.58669
2.53047
2.46155
2.39667
2.31316
2.24226
1
1
1
1
1
1.00001
1.00002
1.00003
1.00008
1.00016
1.00036
1.00078
1.0017
1.0037
1.00808
1.01769
1.03895
1.08689
1.19981
1.48112
2.39537
2.60595
2.61877
2.59556
2.57292
2.52483
2.46546
2.40362
2.32815
2.25727
1
1
1
1
1
1.00001
1.00001
1.00002
1.00005
1.00011
1.00024
1.00053
1.00115
1.00249
1.00541
1.01178
1.02573
1.05662
1.12726
1.29277
1.81462
2.46854
2.58162
2.57215
2.52988
2.48925
2.44056
2.39404
2.33039
2.26793
1
1
1
1
1
1
1.00001
1.00002
1.00004
1.00008
1.00018
1.0004
1.00087
1.00188
1.00409
1.0089
1.01944
1.0427
1.09518
1.21781
1.53951
2.32512
2.55206
2.54991
2.51584
2.47808
2.42621
2.37157
2.3153
2.2651
1
1
1
1
1
1
1.00001
1.00001
1.00003
1.00006
1.00014
1.0003
1.00065
1.00142
1.0031
1.00676
1.01477
1.03245
1.07206
1.16406
1.38975
2.06992
2.44527
2.49964
2.48602
2.45636
2.41283
2.36026
2.30386
2.25286
1
1
1
1
1
1
1
1.00001
1.00002
1.00004
1.00008
1.00018
1.0004
1.00087
1.00188
1.00409
1.0089
1.0194
1.04258
1.09496
1.21662
1.56689
2.17664
2.37547
2.40619
2.40322
2.3793
2.33548
2.28942
2.24324
1
1
1
1
1
1
1
1.00001
1.00001
1.00002
1.00005
1.00011
1.00024
1.00052
1.00114
1.00247
1.00536
1.01167
1.02551
1.05627
1.12621
1.29885
1.77511
2.23829
2.34071
2.34071
2.33624
2.30631
2.26173
2.22354
1
1
1
1
1
1
1
1
1.00001
1.00001
1.00003
1.00007
1.00014
1.00031
1.00067
1.00146
1.00317
1.00689
1.01499
1.0328
1.07262
1.1638
1.40757
1.94363
2.24102
2.27517
2.28987
2.28449
2.25052
2.21375
1
1
1
1
1
1
1
1
1
1.00001
1.00002
1.00004
1.00008
1.00016
1.00036
1.00077
1.00166
1.0036
1.00779
1.0169
1.0369
1.08171
1.18556
1.48643
1.98379
2.16351
2.20333
2.22146
2.20925
2.19148
1
1
1
1
1
1
1
1
1
1
1.00001
1.00002
1.00004
1.00009
1.00018
1.0004
1.00085
1.00184
1.00397
1.00857
1.01856
1.04048
1.08926
1.20798
1.52913
2.02394
2.16146
2.16676
2.16176
2.14287
1
1
1
1
1
1
1
1
1
1
1.00001
1.00001
1.00002
1.00005
1.00012
1.00025
1.00054
1.00118
1.00256
1.00556
1.0121
1.02642
1.05826
1.13077
1.31078
1.76877
2.09063
2.12698
2.12535
2.11082
1
1
1
1
1
1
1
1
1
1
1
1.00001
1.00001
1.00003
1.00006
1.00013
1.00028
1.0006
1.0013
1.00282
1.0061
1.01322
1.02882
1.06356
1.1424
1.3609
1.77167
1.99024
2.03325
2.03957
1
1
1
1
1
1
1
1
1
1
1
1
1.00001
1.00001
1.00003
1.00006
1.00013
1.00027
1.00059
1.00126
1.00272
1.00586
1.01266
1.02749
1.06023
1.13701
1.33879
1.71191
1.90701
1.94678
1
1
1
1
1
1
1
1
1
1
1
1
1
1.00001
1.00001
1.00003
1.00006
1.00012
1.00026
1.00055
1.00119
1.00256
1.00551
1.0119
1.02582
1.05645
1.12894
1.30604
1.64982
1.80681
1
1
1
1
1
1
1
1
1
1
1
1
1
1
1
1.00001
1.00002
1.00004
1.00008
1.00016
1.00034
1.00071
1.00149
1.00314
1.00663
1.01406
1.03012
1.06765
1.16565
1.33081
1
1
1
1
1
1
1
1
1
1
1
1
1
1
1
1
1.00001
1.00002
1.00004
1.00009
1.00019
1.0004
1.00087
1.00186
1.00401
1.00866
1.0187
1.04104
1.08747
1.25203
1
1
1
1
1
1
1
1
1
1
1
1
1
1
1
1
1
1.00001
1.00002
1.00004
1.00009
1.00018
1.00039
1.00084
1.00181
1.00388
1.00833
1.01802
1.03847
1.09182
1
1
1
1
1
1
1
1
1
1
1
1
1
1
1
1
1
1.00001
1.00001
1.00003
1.00007
1.00014
1.00031
1.00067
1.00144
1.00313
1.0068
1.01481
1.03218
1.07358
1
1
1
1
1
1
1
1
1
1
1
1
1
1
1
1
1
1.00001
1.00001
1.00002
1.00005
1.00011
1.00025
1.00053
1.00116
1.00253
1.00551
1.01204
1.02643
1.05829
1
1
1
1
1
1
1
1
1
1
1
1
1
1
1
1
1
1
1.00001
1.00002
1.00003
1.00007
1.00015
1.00033
1.00071
1.00154
1.00336
1.00716
1.0167
1.0322
1
1
1
1
1
1
1
1
1
1
1
1
1
1
1
1
1
1
1.00001
1.00001
1.00003
1.00006
1.00012
1.00027
1.00059
1.00127
1.00277
1.00601
1.01332
1.02763
1
1
1
1
1
1
1
1
1
1
1
1
1
1
1
1
1
1
1
1.00001
1.00002
1.00004
1.0001
1.00021
1.00046
1.00101
1.00219
1.00476
1.01048
1.0221
1
1
1
1
1
1
1
1
1
1
1
1
1
1
1
1
1
1
1
1.00001
1.00001
1.00003
1.00007
1.00014
1.00031
1.00068
1.00147
1.00319
1.00704
1.01455
1
1
1
1
1
1
1
1
1
1
1
1
1
1
1
1
1
1
1
1.00001
1.00001
1.00002
1.00005
1.00012
1.00025
1.00055
1.00119
1.00257
1.00589
1.0117
1
1
1
1
1
1
1
1
1
1
1
1
1
1
1
1
1
1
1
1
1.00001
1.00002
1.00004
1.00008
1.00018
1.0004
1.00086
1.00184
1.00426
1.00822
1
1
1
1
1
1
1
1
1
1
1
1
1
1
1
1
1
1
1
1
1.00001
1.00002
1.00004
1.00008
1.00018
1.00038
1.00084
1.00179
1.00409
1.00807
2.15298
2.14194
2.24705
2.6012
2.4471
2.48412
2.48785
2.49741
2.50673
2.51959
2.54767
2.56865
2.61926
2.68561
2.86873
2.97793
2.83687
2.94248
3.14116
3.15234
3.07259
2.93305
2.85009
2.8056
2.7814
2.77469
2.76818
2.75371
2.74799
2.76196
2.13543
2.21647
2.34461
2.37758
2.34477
2.33075
2.3561
2.37308
2.37931
2.38218
2.3991
2.41596
2.45718
2.5254
2.66512
2.91046
2.88029
2.94202
3.03174
3.01329
2.97225
2.85804
2.72212
2.61898
2.53404
2.48852
2.48201
2.4826
2.46726
2.49999
2.15486
2.21081
2.25407
2.18339
2.15758
2.16094
2.17049
2.17906
2.18079
2.18776
2.20115
2.21993
2.25441
2.33665
2.46097
2.77058
2.80288
2.81744
2.82414
2.79315
2.77088
2.75945
2.71964
2.61184
2.5123
2.44391
2.39416
2.37954
2.35285
2.36594
2.16855
2.15215
2.10594
2.0698
2.05633
2.05661
2.05531
2.05522
2.05596
2.06418
2.0785
2.09842
2.13251
2.20727
2.3353
2.60317
2.69329
2.68069
2.66979
2.64554
2.60196
2.56813
2.54002
2.49767
2.44707
2.37587
2.31635
2.30076
2.27498
2.30062
2.14262
2.1169
2.07894
2.04733
2.01919
1.99226
1.98464
1.98537
1.98692
1.99082
2.00539
2.02281
2.05917
2.12275
2.27651
2.47883
2.59271
2.57381
2.55648
2.53401
2.50657
2.46516
2.42475
2.382
2.34945
2.2995
2.24528
2.22474
2.19571
2.22459
2.13621
2.10096
2.06525
2.02416
1.98597
1.95395
1.94511
1.94773
1.94953
1.95198
1.95933
1.97656
2.0113
2.07451
2.21595
2.40415
2.51878
2.49845
2.48161
2.46186
2.4372
2.39716
2.35173
2.32054
2.29278
2.25548
2.2089
2.17485
2.16604
2.17602
2.14597
2.09657
2.05214
2.00882
1.9695
1.93442
1.9214
1.91809
1.91973
1.92094
1.92573
1.93964
1.97295
2.03007
2.16649
2.33382
2.47074
2.44036
2.43192
2.41125
2.37475
2.34411
2.30045
2.26551
2.24888
2.23021
2.18766
2.14849
2.13443
2.14533
2.14962
2.09503
2.04502
2.00039
1.95889
1.92089
1.90231
1.89487
1.89783
1.90022
1.90512
1.9179
1.94969
2.00408
2.10939
2.26419
2.41282
2.39168
2.38368
2.36821
2.32881
2.29732
2.2609
2.21177
2.18606
2.16509
2.15079
2.12477
2.09895
2.1088
2.14789
2.0919
2.03984
1.99497
1.95254
1.91241
1.89079
1.88132
1.88479
1.88897
1.89408
1.90516
1.93068
1.98849
2.05847
2.19445
2.29459
2.3164
2.31168
2.30122
2.26906
2.22307
2.1958
2.16381
2.13368
2.11043
2.09047
2.08536
2.05839
2.04227
2.14367
2.09008
2.03569
1.9904
1.94859
1.90827
1.88488
1.87641
1.88204
1.88693
1.8929
1.9035
1.9292
1.97243
2.03826
2.14764
2.21643
2.24673
2.22773
2.22955
2.22146
2.18473
2.11782
2.0936
2.07515
2.06781
2.04964
2.0281
2.01254
1.99813
2.13434
2.08544
2.03275
1.98767
1.94745
1.90538
1.88127
1.87594
1.8839
1.88856
1.89517
1.90565
1.93689
1.96725
2.03015
2.06452
2.14135
2.19013
2.15821
2.15129
2.14131
2.1298
2.10144
2.04431
2.00225
1.99441
1.99113
1.99054
1.97917
1.96175
2.12578
2.0754
2.02471
1.98153
1.94416
1.90505
1.88343
1.88438
1.89403
1.89892
1.90487
1.917
1.93882
1.97627
2.00197
2.01821
2.04436
2.07988
2.10542
2.08518
2.0703
2.05348
2.04025
2.0141
1.97621
1.94797
1.93973
1.94563
1.93363
1.93674
2.11279
2.06659
2.018
1.97801
1.9442
1.90738
1.88998
1.89323
1.90734
1.91146
1.91531
1.92718
1.93694
1.95892
1.9796
1.97772
1.96111
1.98985
2.0271
2.04415
2.02225
2.00632
1.99184
1.98166
1.94942
1.92303
1.91224
1.91404
1.90754
1.90163
2.08312
2.04822
2.0044
1.96843
1.94227
1.90996
1.89766
1.89031
1.90484
1.91252
1.9161
1.92456
1.93291
1.94345
1.95579
1.94968
1.91883
1.90583
1.92414
1.97159
1.98519
1.95105
1.9384
1.93541
1.92844
1.90985
1.89614
1.89633
1.89035
1.87653
2.06002
2.03286
1.99785
1.96601
1.94347
1.91096
1.90099
1.88702
1.89962
1.90978
1.91905
1.92557
1.93325
1.94535
1.94126
1.9324
1.87931
1.85105
1.85167
1.88784
1.90717
1.89657
1.88544
1.87604
1.88823
1.89033
1.88881
1.89072
1.88627
1.87259
2.02795
2.00574
1.98179
1.96034
1.94568
1.91456
1.90027
1.88756
1.89676
1.90818
1.92334
1.93374
1.95662
1.95667
1.93675
1.91127
1.85414
1.80587
1.79236
1.82386
1.84963
1.84166
1.82613
1.82384
1.84411
1.86999
1.87522
1.87696
1.8742
1.86588
1.98257
1.98367
1.97353
1.953
1.94195
1.91366
1.89625
1.89517
1.90045
1.91536
1.93947
1.96109
1.99833
1.94011
1.91804
1.89929
1.83466
1.76034
1.75464
1.77552
1.79749
1.79177
1.7764
1.77955
1.79822
1.82803
1.84751
1.84988
1.84317
1.83576
1.89443
1.93172
1.9503
1.9449
1.92942
1.90719
1.89197
1.90422
1.91283
1.93518
1.96376
2.02402
1.98727
1.93115
1.91187
1.89218
1.81228
1.73442
1.72404
1.73945
1.75379
1.7474
1.73023
1.73556
1.75048
1.7838
1.79814
1.80978
1.8089
1.80693
1.83187
1.90324
1.92032
1.92548
1.91504
1.89773
1.90647
1.92799
1.9454
1.97836
2.00828
2.02498
1.97353
1.92319
1.90355
1.88219
1.78961
1.71622
1.70583
1.71264
1.71568
1.70289
1.68728
1.68545
1.70092
1.73655
1.75614
1.76722
1.78153
1.7838
1.7325
1.84317
1.88761
1.90741
1.90534
1.89964
1.93373
1.9603
1.98447
2.0296
2.04407
1.98822
1.93114
1.89812
1.88675
1.85701
1.75865
1.69981
1.69076
1.68829
1.67642
1.65179
1.63606
1.63597
1.64375
1.67547
1.72612
1.73278
1.73792
1.74924
1.63285
1.79341
1.83523
1.87108
1.89405
1.90373
1.93355
1.9612
1.98453
2.01626
2.01683
1.9623
1.91941
1.89786
1.88036
1.82449
1.72824
1.68474
1.67479
1.66156
1.63311
1.61145
1.59632
1.59461
1.59666
1.61366
1.65812
1.69293
1.7128
1.71742
1.56932
1.79664
1.82198
1.84419
1.8736
1.89424
1.93204
1.95961
2.0086
2.0205
2.00609
1.95353
1.92292
1.90496
1.87186
1.78792
1.70099
1.66407
1.65117
1.62768
1.60215
1.58324
1.56746
1.56089
1.56199
1.56991
1.6034
1.64278
1.68437
1.69319
1.47306
1.72937
1.79376
1.82112
1.85521
1.88774
1.93093
1.97729
2.02675
2.03937
2.0112
1.96265
1.92879
1.90285
1.83963
1.75782
1.68454
1.64905
1.6278
1.60425
1.5782
1.55621
1.54769
1.53618
1.53354
1.53478
1.55012
1.58769
1.67833
1.67251
1.27805
1.63316
1.75716
1.79045
1.83725
1.87341
1.94387
2.03076
2.06485
2.07595
2.04069
1.97077
1.91793
1.87324
1.80952
1.73982
1.67132
1.63126
1.60823
1.5842
1.55789
1.53523
1.5263
1.51125
1.50355
1.50391
1.5113
1.53597
1.61398
1.67229
1.18401
1.56037
1.74772
1.78258
1.82433
1.87938
1.99853
2.06792
2.13327
2.10299
2.03544
1.94843
1.902
1.85451
1.78982
1.71796
1.65575
1.61964
1.59797
1.57245
1.54714
1.52421
1.50967
1.49363
1.4808
1.47904
1.48053
1.49425
1.54567
1.59285
1.12709
1.45772
1.69404
1.76253
1.81515
1.92285
2.05548
2.12506
2.10822
2.07365
2.00887
1.917
1.87126
1.83139
1.7733
1.70702
1.64552
1.60687
1.58495
1.56114
1.54176
1.51874
1.4969
1.48249
1.46592
1.4607
1.46288
1.47205
1.50809
1.54155
1.0811
1.29575
1.58419
1.7477
1.84152
2.02387
2.11134
2.11043
2.09011
2.05919
2.00771
1.91857
1.86434
1.82464
1.77023
1.70487
1.64297
1.604
1.58042
1.55664
1.5389
1.51867
1.49344
1.47798
1.46069
1.45213
1.45154
1.45631
1.49229
1.53013
1.07137
1.20852
1.52972
1.71701
1.86226
2.0882
2.12367
2.11701
2.09646
2.0677
2.01644
1.92367
1.86861
1.83311
1.7807
1.71194
1.64639
1.60476
1.5785
1.55598
1.5429
1.52952
1.50525
1.48927
1.46601
1.45159
1.45312
1.45852
1.49573
1.53264
1.05041
1.13609
1.37227
1.65801
1.98626
2.10512
2.0894
2.13363
2.11301
2.08004
1.99742
1.91915
1.88363
1.86061
1.81147
1.73476
1.6608
1.61461
1.58781
1.56643
1.55537
1.54194
1.5147
1.49633
1.47255
1.46156
1.46502
1.47794
1.5108
1.51781
1.0474
1.12884
1.31485
1.66906
2.12732
2.25031
2.23007
2.22792
2.19823
2.13302
2.03518
1.96326
1.92612
1.8928
1.83425
1.75892
1.69045
1.64904
1.6283
1.60868
1.59423
1.57495
1.53918
1.51188
1.49078
1.48497
1.4907
1.50588
1.55986
1.56532
)
;

boundaryField
{
    inlet
    {
        type            fixedValue;
        value           uniform 1;
    }
    outlet
    {
        type            inletOutlet;
        inletValue      uniform 1;
        value           nonuniform List<scalar> 
30
(
2.76197
2.49999
2.36592
2.30061
2.22461
2.17598
2.14533
2.10893
2.04217
1.9981
1.96173
1.93679
1.90159
1.87646
1.87262
1.86605
1.83568
1.80692
1.78379
1.74927
1.71737
1.69315
1.67237
1.67303
1.59237
1.54152
1.53009
1.53273
1.51769
1.56536
)
;
    }
    top
    {
        type            symmetryPlane;
    }
    bottom
    {
        type            symmetryPlane;
    }
    step
    {
        type            zeroGradient;
    }
    defaultFaces
    {
        type            empty;
    }
}


// ************************************************************************* //
