/*--------------------------------*- C++ -*----------------------------------*\
  =========                 |
  \\      /  F ield         | OpenFOAM: The Open Source CFD Toolbox
   \\    /   O peration     | Website:  https://openfoam.org
    \\  /    A nd           | Version:  6.0
     \\/     M anipulation  |
\*---------------------------------------------------------------------------*/
FoamFile
{
    version     2.0;
    format      ascii;
    class       volVectorField;
    location    "3";
    object      U;
}
// * * * * * * * * * * * * * * * * * * * * * * * * * * * * * * * * * * * * * //

dimensions      [0 1 -1 0 0 0 0];

internalField   nonuniform List<vector> 
2700
(
(3 -8.70597e-12 0)
(3 -5.3248e-11 0)
(3 -1.74013e-10 0)
(3 -4.59513e-10 0)
(3 -1.10378e-09 0)
(2.99999 -2.53236e-09 0)
(2.99998 -5.67908e-09 0)
(2.99996 -1.25941e-08 0)
(2.99991 -2.77813e-08 0)
(2.9998 -6.11426e-08 0)
(2.99956 -1.34471e-07 0)
(2.99904 -2.958e-07 0)
(2.99791 -6.51269e-07 0)
(2.99544 -1.43645e-06 0)
(2.99005 -3.17869e-06 0)
(2.97815 -7.07867e-06 0)
(2.95147 -1.59693e-05 0)
(2.88943 -3.70224e-05 0)
(2.73417 -9.10248e-05 0)
(2.28523 -0.000265097 0)
(-0.15989 -0.00113302 0)
(-1.89796 0.00150258 0)
(-1.10818 0.00437103 0)
(-0.387258 0.00783921 0)
(0.0667488 0.0122725 0)
(0.293767 0.0201827 0)
(0.341182 0.0225814 0)
(0.215243 0.0200827 0)
(0.0403802 0.0130703 0)
(0.0138878 0.0134196 0)
(3 -2.58257e-11 0)
(3 -1.57953e-10 0)
(3 -5.1613e-10 0)
(3 -1.36264e-09 0)
(3 -3.27206e-09 0)
(2.99999 -7.50354e-09 0)
(2.99998 -1.68174e-08 0)
(2.99996 -3.72675e-08 0)
(2.99991 -8.21359e-08 0)
(2.9998 -1.80581e-07 0)
(2.99956 -3.96661e-07 0)
(2.99904 -8.71275e-07 0)
(2.99791 -1.91495e-06 0)
(2.99544 -4.21466e-06 0)
(2.99005 -9.30152e-06 0)
(2.97815 -2.06402e-05 0)
(2.95146 -4.63287e-05 0)
(2.8894 -0.000106538 0)
(2.73409 -0.000257944 0)
(2.28486 -0.000735107 0)
(-0.159825 -0.00333555 0)
(-1.89724 0.00468971 0)
(-1.10359 0.0131154 0)
(-0.377505 0.022869 0)
(0.0808297 0.0343121 0)
(0.306786 0.0510505 0)
(0.346819 0.0508284 0)
(0.227015 0.0429284 0)
(0.0576706 0.0333175 0)
(0.0111024 0.0197493 0)
(3 -4.21625e-11 0)
(3 -2.57853e-10 0)
(3 -8.42428e-10 0)
(3 -2.22342e-09 0)
(3 -5.33648e-09 0)
(2.99999 -1.22297e-08 0)
(2.99998 -2.73871e-08 0)
(2.99996 -6.06281e-08 0)
(2.99991 -1.33462e-07 0)
(2.9998 -2.93016e-07 0)
(2.99956 -6.42608e-07 0)
(2.99904 -1.40892e-06 0)
(2.99791 -3.09008e-06 0)
(2.99544 -6.78415e-06 0)
(2.99005 -1.49277e-05 0)
(2.97814 -3.30016e-05 0)
(2.95144 -7.37056e-05 0)
(2.88936 -0.000168225 0)
(2.73395 -0.000401838 0)
(2.28416 -0.00112645 0)
(-0.158797 -0.00542715 0)
(-1.89438 0.00829095 0)
(-1.09739 0.0226105 0)
(-0.366348 0.0391705 0)
(0.0958233 0.058191 0)
(0.318779 0.0826293 0)
(0.350729 0.0814279 0)
(0.234221 0.0712249 0)
(0.072693 0.0598842 0)
(0.0310748 0.0413129 0)
(3 -5.74106e-11 0)
(3 -3.51083e-10 0)
(3 -1.14684e-09 0)
(3 -3.02595e-09 0)
(3 -7.25939e-09 0)
(2.99999 -1.66262e-08 0)
(2.99998 -3.72036e-08 0)
(2.99996 -8.2283e-08 0)
(2.99991 -1.80937e-07 0)
(2.9998 -3.96769e-07 0)
(2.99956 -8.6898e-07 0)
(2.99904 -1.90241e-06 0)
(2.99791 -4.16555e-06 0)
(2.99544 -9.12859e-06 0)
(2.99004 -2.0045e-05 0)
(2.97813 -4.42087e-05 0)
(2.95142 -9.84476e-05 0)
(2.88929 -0.000223812 0)
(2.73376 -0.00053126 0)
(2.28315 -0.00148208 0)
(-0.157002 -0.00739906 0)
(-1.88957 0.0121963 0)
(-1.08967 0.0324294 0)
(-0.354034 0.0555962 0)
(0.111269 0.0816635 0)
(0.32984 0.11164 0)
(0.353443 0.110419 0)
(0.238735 0.100159 0)
(0.0847838 0.0877285 0)
(0.0447467 0.0633088 0)
(3 -7.14199e-11 0)
(3 -4.36732e-10 0)
(3 -1.42643e-09 0)
(3 -3.76279e-09 0)
(3 -9.02389e-09 0)
(2.99999 -2.06574e-08 0)
(2.99998 -4.61962e-08 0)
(2.99996 -1.02099e-07 0)
(2.99991 -2.2433e-07 0)
(2.9998 -4.91486e-07 0)
(2.99956 -1.07538e-06 0)
(2.99904 -2.3518e-06 0)
(2.99791 -5.14375e-06 0)
(2.99544 -1.12586e-05 0)
(2.99003 -2.46898e-05 0)
(2.97812 -5.43726e-05 0)
(2.95138 -0.000120873 0)
(2.88921 -0.000274184 0)
(2.73353 -0.000648579 0)
(2.28185 -0.00180657 0)
(-0.154404 -0.00924117 0)
(-1.88283 0.0164016 0)
(-1.08045 0.0425748 0)
(-0.340742 0.0721203 0)
(0.126957 0.104527 0)
(0.340094 0.138631 0)
(0.355334 0.137568 0)
(0.241874 0.128253 0)
(0.0933625 0.115009 0)
(0.0533985 0.08705 0)
(3 -8.41276e-11 0)
(3 -5.1442e-10 0)
(3 -1.68002e-09 0)
(3 -4.43101e-09 0)
(3 -1.06238e-08 0)
(2.99999 -2.43118e-08 0)
(2.99998 -5.43459e-08 0)
(2.99996 -1.20053e-07 0)
(2.99991 -2.63635e-07 0)
(2.9998 -5.7726e-07 0)
(2.99956 -1.26226e-06 0)
(2.99904 -2.75867e-06 0)
(2.9979 -6.02947e-06 0)
(2.99543 -1.31877e-05 0)
(2.99003 -2.88978e-05 0)
(2.9781 -6.35862e-05 0)
(2.95134 -0.00014122 0)
(2.88912 -0.000319947 0)
(2.73325 -0.00075538 0)
(2.28027 -0.00210391 0)
(-0.15096 -0.0109497 0)
(-1.87415 0.0209059 0)
(-1.06974 0.0530895 0)
(-0.326364 0.0887649 0)
(0.142689 0.127032 0)
(0.349515 0.164353 0)
(0.356448 0.163784 0)
(0.243842 0.155457 0)
(0.0992204 0.141959 0)
(0.058983 0.113162 0)
(3 -9.54982e-11 0)
(3 -5.83935e-10 0)
(3 -1.90693e-09 0)
(3 -5.02899e-09 0)
(3 -1.20556e-08 0)
(2.99999 -2.75829e-08 0)
(2.99998 -6.16426e-08 0)
(2.99996 -1.36132e-07 0)
(2.99991 -2.98849e-07 0)
(2.9998 -6.54139e-07 0)
(2.99956 -1.42985e-06 0)
(2.99904 -3.12375e-06 0)
(2.9979 -6.82473e-06 0)
(2.99543 -1.49211e-05 0)
(2.99002 -3.26823e-05 0)
(2.97808 -7.1881e-05 0)
(2.9513 -0.00015956 0)
(2.88901 -0.000361254 0)
(2.73293 -0.000851951 0)
(2.27843 -0.00237428 0)
(-0.146652 -0.0125208 0)
(-1.86352 0.0257058 0)
(-1.05755 0.0639611 0)
(-0.311177 0.105544 0)
(0.15859 0.149255 0)
(0.358255 0.189167 0)
(0.356948 0.189586 0)
(0.244943 0.182362 0)
(0.103226 0.169192 0)
(0.0627794 0.14127 0)
(3 -1.05489e-10 0)
(3 -6.45016e-10 0)
(3 -2.10633e-09 0)
(3 -5.55457e-09 0)
(3 -1.33146e-08 0)
(2.99999 -3.04603e-08 0)
(2.99998 -6.80649e-08 0)
(2.99996 -1.50294e-07 0)
(2.99991 -3.29889e-07 0)
(2.9998 -7.21962e-07 0)
(2.99956 -1.57782e-06 0)
(2.99904 -3.44642e-06 0)
(2.9979 -7.52829e-06 0)
(2.99542 -1.6456e-05 0)
(2.99001 -3.60369e-05 0)
(2.97806 -7.92404e-05 0)
(2.95125 -0.000175845 0)
(2.88889 -0.00039796 0)
(2.73258 -0.00093778 0)
(2.27636 -0.00261555 0)
(-0.141414 -0.0139487 0)
(-1.85092 0.0307869 0)
(-1.04398 0.0752425 0)
(-0.294852 0.122394 0)
(0.174379 0.171288 0)
(0.366414 0.213188 0)
(0.357005 0.215274 0)
(0.245398 0.209249 0)
(0.105883 0.196762 0)
(0.0654259 0.170654 0)
(3 -1.14034e-10 0)
(3 -6.97254e-10 0)
(3 -2.27689e-09 0)
(3 -6.00428e-09 0)
(3 -1.43924e-08 0)
(2.99999 -3.29257e-08 0)
(2.99998 -7.3573e-08 0)
(2.99996 -1.62454e-07 0)
(2.99991 -3.56575e-07 0)
(2.9998 -7.80357e-07 0)
(2.99956 -1.70543e-06 0)
(2.99903 -3.72512e-06 0)
(2.9979 -8.13704e-06 0)
(2.99542 -1.77867e-05 0)
(2.99 -3.89509e-05 0)
(2.97803 -8.56477e-05 0)
(2.95119 -0.000190061 0)
(2.88875 -0.000430101 0)
(2.73219 -0.00101325 0)
(2.27408 -0.00282957 0)
(-0.135194 -0.0152167 0)
(-1.83633 0.0361802 0)
(-1.02875 0.0868916 0)
(-0.277982 0.139353 0)
(0.190347 0.19319 0)
(0.374136 0.2364 0)
(0.356845 0.241251 0)
(0.245324 0.236184 0)
(0.107743 0.224683 0)
(0.0673995 0.201087 0)
(3 -1.2103e-10 0)
(3 -7.40031e-10 0)
(3 -2.4166e-09 0)
(3 -6.37281e-09 0)
(3 -1.52763e-08 0)
(2.99999 -3.49497e-08 0)
(2.99998 -7.81011e-08 0)
(2.99996 -1.72467e-07 0)
(2.99991 -3.78585e-07 0)
(2.9998 -8.28604e-07 0)
(2.99956 -1.81105e-06 0)
(2.99903 -3.95624e-06 0)
(2.9979 -8.64285e-06 0)
(2.99541 -1.88945e-05 0)
(2.98998 -4.13816e-05 0)
(2.97801 -9.10026e-05 0)
(2.95113 -0.000201964 0)
(2.88861 -0.000457069 0)
(2.73177 -0.00107668 0)
(2.2716 -0.00301093 0)
(-0.127997 -0.0163134 0)
(-1.81975 0.0418844 0)
(-1.01237 0.0989262 0)
(-0.259825 0.156327 0)
(0.205853 0.215217 0)
(0.381636 0.258609 0)
(0.356695 0.268037 0)
(0.244585 0.262811 0)
(0.109315 0.253159 0)
(0.0690756 0.232266 0)
(3 -1.26346e-10 0)
(3 -7.72542e-10 0)
(3 -2.52281e-09 0)
(3 -6.65321e-09 0)
(3 -1.59497e-08 0)
(2.99999 -3.64944e-08 0)
(2.99998 -8.15638e-08 0)
(2.99996 -1.80141e-07 0)
(2.99991 -3.95498e-07 0)
(2.9998 -8.65774e-07 0)
(2.99955 -1.89264e-06 0)
(2.99903 -4.13522e-06 0)
(2.99789 -9.03546e-06 0)
(2.99541 -1.97562e-05 0)
(2.98997 -4.32759e-05 0)
(2.97798 -9.51821e-05 0)
(2.95107 -0.000211264 0)
(2.88846 -0.000478138 0)
(2.73133 -0.0011261 0)
(2.26897 -0.00315353 0)
(-0.119712 -0.0172225 0)
(-1.80112 0.0478958 0)
(-0.994433 0.111436 0)
(-0.241149 0.173359 0)
(0.221751 0.237313 0)
(0.389043 0.280307 0)
(0.356634 0.29501 0)
(0.243657 0.288504 0)
(0.111542 0.283069 0)
(0.070623 0.264253 0)
(3 -1.29825e-10 0)
(3 -7.9382e-10 0)
(3 -2.59238e-09 0)
(3 -6.83718e-09 0)
(3 -1.63928e-08 0)
(2.99999 -3.75145e-08 0)
(2.99998 -8.38613e-08 0)
(2.99996 -1.8526e-07 0)
(2.99991 -4.06845e-07 0)
(2.9998 -8.90862e-07 0)
(2.99955 -1.94804e-06 0)
(2.99903 -4.25752e-06 0)
(2.99789 -9.30541e-06 0)
(2.9954 -2.03524e-05 0)
(2.98996 -4.45949e-05 0)
(2.97795 -9.81108e-05 0)
(2.951 -0.000217824 0)
(2.8883 -0.000493101 0)
(2.73088 -0.00116146 0)
(2.26621 -0.0032581 0)
(-0.110303 -0.0179079 0)
(-1.78044 0.054286 0)
(-0.974885 0.124206 0)
(-0.22207 0.190977 0)
(0.23764 0.259056 0)
(0.396464 0.302326 0)
(0.356482 0.321296 0)
(0.242743 0.313948 0)
(0.11369 0.314133 0)
(0.0718053 0.296889 0)
(3 -1.31275e-10 0)
(3 -8.02692e-10 0)
(3 -2.62147e-09 0)
(3 -6.91466e-09 0)
(3 -1.65814e-08 0)
(2.99999 -3.79552e-08 0)
(2.99998 -8.48716e-08 0)
(2.99996 -1.87556e-07 0)
(2.99991 -4.12038e-07 0)
(2.99979 -9.02588e-07 0)
(2.99955 -1.97448e-06 0)
(2.99903 -4.31709e-06 0)
(2.99789 -9.43954e-06 0)
(2.9954 -2.06544e-05 0)
(2.98995 -4.52754e-05 0)
(2.97792 -9.96488e-05 0)
(2.95094 -0.000221328 0)
(2.88814 -0.000501226 0)
(2.73041 -0.00118091 0)
(2.26335 -0.00331895 0)
(-0.0997183 -0.0183449 0)
(-1.75774 0.0610843 0)
(-0.953962 0.137181 0)
(-0.202148 0.209173 0)
(0.253213 0.280745 0)
(0.403788 0.324677 0)
(0.356309 0.346893 0)
(0.241987 0.340181 0)
(0.116044 0.345605 0)
(0.0725708 0.330071 0)
(3 -1.30468e-10 0)
(3 -7.97778e-10 0)
(3 -2.6056e-09 0)
(3 -6.87378e-09 0)
(3 -1.64872e-08 0)
(2.99999 -3.77516e-08 0)
(2.99998 -8.44496e-08 0)
(2.99996 -1.86708e-07 0)
(2.99991 -4.10378e-07 0)
(2.99979 -8.99419e-07 0)
(2.99955 -1.96861e-06 0)
(2.99903 -4.30659e-06 0)
(2.99788 -9.42177e-06 0)
(2.99539 -2.06268e-05 0)
(2.98993 -4.52396e-05 0)
(2.97789 -9.96239e-05 0)
(2.95087 -0.00022139 0)
(2.88798 -0.000501619 0)
(2.72993 -0.00118227 0)
(2.26045 -0.00333031 0)
(-0.0878713 -0.0185184 0)
(-1.73298 0.0683025 0)
(-0.931559 0.150458 0)
(-0.181539 0.22775 0)
(0.26863 0.302581 0)
(0.410837 0.347303 0)
(0.356244 0.372183 0)
(0.24164 0.367365 0)
(0.11869 0.377251 0)
(0.0730906 0.363728 0)
(3 -1.27148e-10 0)
(3 -7.77496e-10 0)
(3 -2.53959e-09 0)
(3 -6.70094e-09 0)
(3 -1.60776e-08 0)
(2.99999 -3.68293e-08 0)
(2.99998 -8.24294e-08 0)
(2.99996 -1.8235e-07 0)
(2.99991 -4.01061e-07 0)
(2.99979 -8.79603e-07 0)
(2.99955 -1.92659e-06 0)
(2.99903 -4.2177e-06 0)
(2.99788 -9.23391e-06 0)
(2.99539 -2.023e-05 0)
(2.98992 -4.44008e-05 0)
(2.97786 -9.78449e-05 0)
(2.9508 -0.000217586 0)
(2.88782 -0.000493324 0)
(2.72946 -0.00116329 0)
(2.25753 -0.00328651 0)
(-0.0747084 -0.0184139 0)
(-1.70615 0.0759523 0)
(-0.907834 0.164104 0)
(-0.160041 0.246647 0)
(0.283854 0.32453 0)
(0.417642 0.37015 0)
(0.356399 0.397432 0)
(0.241716 0.395361 0)
(0.121688 0.409222 0)
(0.0734216 0.397964 0)
(3 -1.21024e-10 0)
(3 -7.40071e-10 0)
(3 -2.41765e-09 0)
(3 -6.38085e-09 0)
(3 -1.53161e-08 0)
(2.99999 -3.51048e-08 0)
(2.99998 -7.8625e-08 0)
(2.99996 -1.74074e-07 0)
(2.99991 -3.83193e-07 0)
(2.99979 -8.41186e-07 0)
(2.99955 -1.84418e-06 0)
(2.99903 -4.04113e-06 0)
(2.99788 -8.85576e-06 0)
(2.99538 -1.94199e-05 0)
(2.98991 -4.26625e-05 0)
(2.97783 -9.41005e-05 0)
(2.95074 -0.000209447 0)
(2.88767 -0.000475276 0)
(2.72899 -0.00112145 0)
(2.25464 -0.00318103 0)
(-0.0601445 -0.0180158 0)
(-1.67721 0.0840491 0)
(-0.882706 0.178211 0)
(-0.13783 0.265781 0)
(0.298926 0.346604 0)
(0.424174 0.393189 0)
(0.356883 0.422752 0)
(0.242428 0.424088 0)
(0.125089 0.44166 0)
(0.0737267 0.432911 0)
(3 -1.1177e-10 0)
(3 -6.83523e-10 0)
(3 -2.23331e-09 0)
(3 -5.89653e-09 0)
(3 -1.41619e-08 0)
(2.99999 -3.24855e-08 0)
(2.99998 -7.28301e-08 0)
(2.99996 -1.61425e-07 0)
(2.99991 -3.55783e-07 0)
(2.99979 -7.82015e-07 0)
(2.99955 -1.7167e-06 0)
(2.99902 -3.76673e-06 0)
(2.99788 -8.26528e-06 0)
(2.99537 -1.81485e-05 0)
(2.98989 -3.99205e-05 0)
(2.97781 -8.81623e-05 0)
(2.95068 -0.000196469 0)
(2.88752 -0.000446337 0)
(2.72854 -0.00105404 0)
(2.25183 -0.00300693 0)
(-0.0441205 -0.0173038 0)
(-1.64613 0.0926136 0)
(-0.856259 0.192799 0)
(-0.114949 0.285231 0)
(0.313984 0.368732 0)
(0.430516 0.416391 0)
(0.357799 0.448239 0)
(0.243783 0.453517 0)
(0.128987 0.474732 0)
(0.0740463 0.468749 0)
(3 -9.90287e-11 0)
(3 -6.05653e-10 0)
(3 -1.97942e-09 0)
(3 -5.2291e-09 0)
(3 -1.257e-08 0)
(2.99999 -2.88687e-08 0)
(2.99998 -6.48167e-08 0)
(2.99996 -1.43904e-07 0)
(2.99991 -3.17742e-07 0)
(2.99979 -6.99722e-07 0)
(2.99955 -1.53902e-06 0)
(2.99902 -3.38341e-06 0)
(2.99787 -7.43846e-06 0)
(2.99537 -1.63641e-05 0)
(2.98988 -3.60626e-05 0)
(2.97778 -7.97872e-05 0)
(2.95062 -0.000178121 0)
(2.88738 -0.000405332 0)
(2.72813 -0.000958398 0)
(2.24915 -0.00275745 0)
(-0.0265419 -0.0162527 0)
(-1.61288 0.101687 0)
(-0.828362 0.207879 0)
(-0.091513 0.305 0)
(0.328828 0.390904 0)
(0.436709 0.43974 0)
(0.35927 0.473938 0)
(0.246021 0.483682 0)
(0.133448 0.508563 0)
(0.0745431 0.505699 0)
(3 -8.23964e-11 0)
(3 -5.04004e-10 0)
(3 -1.64794e-09 0)
(3 -4.35745e-09 0)
(3 -1.049e-08 0)
(2.99999 -2.41394e-08 0)
(2.99998 -5.43291e-08 0)
(2.99996 -1.2095e-07 0)
(2.99991 -2.67845e-07 0)
(2.99979 -5.91648e-07 0)
(2.99955 -1.30536e-06 0)
(2.99902 -2.87863e-06 0)
(2.99787 -6.34814e-06 0)
(2.99536 -1.40075e-05 0)
(2.98987 -3.09602e-05 0)
(2.97776 -6.86936e-05 0)
(2.95057 -0.000153778 0)
(2.88726 -0.000350843 0)
(2.72775 -0.000831117 0)
(2.24665 -0.00242359 0)
(-0.00734867 -0.0148382 0)
(-1.57744 0.111297 0)
(-0.799215 0.223485 0)
(-0.0674049 0.325075 0)
(0.343683 0.413049 0)
(0.442826 0.463209 0)
(0.361422 0.499903 0)
(0.249166 0.514633 0)
(0.138616 0.543314 0)
(0.0752778 0.544031 0)
(3 -6.14238e-11 0)
(3 -3.75825e-10 0)
(3 -1.22992e-09 0)
(3 -3.25799e-09 0)
(3 -7.86547e-09 0)
(2.99999 -1.8169e-08 0)
(2.99998 -4.10812e-08 0)
(2.99996 -9.19338e-08 0)
(2.9999 -2.04723e-07 0)
(2.99979 -4.54814e-07 0)
(2.99955 -1.00927e-06 0)
(2.99902 -2.23844e-06 0)
(2.99787 -4.96409e-06 0)
(2.99536 -1.10135e-05 0)
(2.98987 -2.44719e-05 0)
(2.97774 -5.45748e-05 0)
(2.95052 -0.000122772 0)
(2.88715 -0.000281377 0)
(2.72742 -0.000668722 0)
(2.24438 -0.0019964 0)
(0.0135746 -0.0130332 0)
(-1.53974 0.121486 0)
(-0.768629 0.239662 0)
(-0.0429223 0.345425 0)
(0.358341 0.435081 0)
(0.448979 0.486766 0)
(0.364412 0.526161 0)
(0.25349 0.546471 0)
(0.144605 0.579153 0)
(0.0764564 0.584087 0)
(3 -3.56101e-11 0)
(3 -2.1805e-10 0)
(3 -7.15328e-10 0)
(3 -1.9043e-09 0)
(3 -4.63313e-09 0)
(2.99999 -1.08132e-08 0)
(2.99998 -2.47515e-08 0)
(2.99996 -5.61481e-08 0)
(2.9999 -1.26828e-07 0)
(2.99979 -2.85854e-07 0)
(2.99955 -6.43429e-07 0)
(2.99902 -1.44697e-06 0)
(2.99787 -3.25207e-06 0)
(2.99536 -7.30832e-06 0)
(2.98986 -1.64395e-05 0)
(2.97773 -3.70923e-05 0)
(2.95049 -8.43789e-05 0)
(2.88707 -0.000195395 0)
(2.72716 -0.000467914 0)
(2.24242 -0.00146821 0)
(0.0363122 -0.0108083 0)
(-1.49975 0.132305 0)
(-0.736803 0.256432 0)
(-0.0178208 0.366025 0)
(0.373018 0.456884 0)
(0.455268 0.510362 0)
(0.368421 0.552742 0)
(0.259072 0.579314 0)
(0.15163 0.616273 0)
(0.0781948 0.62631 0)
(3 -4.3996e-12 0)
(3 -2.7289e-11 0)
(3 -9.30968e-11 0)
(3 -2.67158e-10 0)
(3 -7.22876e-10 0)
(2.99999 -1.91117e-09 0)
(2.99998 -4.97953e-09 0)
(2.99996 -1.2793e-08 0)
(2.9999 -3.23923e-08 0)
(2.99979 -8.08559e-08 0)
(2.99955 -1.99175e-07 0)
(2.99902 -4.84911e-07 0)
(2.99787 -1.16878e-06 0)
(2.99536 -2.79428e-06 0)
(2.98986 -6.64212e-06 0)
(2.97772 -1.5748e-05 0)
(2.95047 -3.74957e-05 0)
(2.88702 -9.05847e-05 0)
(2.72698 -0.000224713 0)
(2.24082 -0.000833703 0)
(0.0610088 -0.00813164 0)
(-1.45741 0.143803 0)
(-0.703634 0.273864 0)
(0.00750799 0.386796 0)
(0.387582 0.478274 0)
(0.461882 0.533907 0)
(0.373676 0.579633 0)
(0.266235 0.613369 0)
(0.1599 0.654866 0)
(0.0807991 0.671285 0)
(3 3.27955e-11 0)
(3 2.00058e-10 0)
(3 6.48523e-10 0)
(3 1.68435e-09 0)
(3 3.93912e-09 0)
(2.99999 8.70488e-09 0)
(2.99998 1.86064e-08 0)
(2.99996 3.89415e-08 0)
(2.9999 8.03317e-08 0)
(2.99979 1.63918e-07 0)
(2.99955 3.31432e-07 0)
(2.99902 6.64473e-07 0)
(2.99787 1.32081e-06 0)
(2.99536 2.60145e-06 0)
(2.98985 5.07078e-06 0)
(2.97772 9.7665e-06 0)
(2.95047 1.84952e-05 0)
(2.88701 3.41899e-05 0)
(2.7269 6.2195e-05 0)
(2.23966 -9.60364e-05 0)
(0.0878192 -0.00495361 0)
(-1.41263 0.156079 0)
(-0.669137 0.291979 0)
(0.0333219 0.407642 0)
(0.402185 0.499047 0)
(0.46898 0.557294 0)
(0.380464 0.606835 0)
(0.275148 0.649004 0)
(0.169756 0.695336 0)
(0.0844851 0.719611 0)
(3 7.66125e-11 0)
(3 4.67889e-10 0)
(3 1.52227e-09 0)
(3 3.98386e-09 0)
(3 9.43367e-09 0)
(2.99999 2.122e-08 0)
(2.99998 4.64183e-08 0)
(2.99996 9.99549e-08 0)
(2.9999 2.13271e-07 0)
(2.99979 4.52509e-07 0)
(2.99955 9.5663e-07 0)
(2.99902 2.01729e-06 0)
(2.99787 4.24624e-06 0)
(2.99536 8.92722e-06 0)
(2.98986 1.87608e-05 0)
(2.97772 3.94715e-05 0)
(2.95048 8.3365e-05 0)
(2.88703 0.000177857 0)
(2.72692 0.000389465 0)
(2.23903 0.000730715 0)
(0.116941 -0.00126439 0)
(-1.36539 0.169222 0)
(-0.633446 0.310849 0)
(0.0592742 0.428366 0)
(0.416834 0.518889 0)
(0.47685 0.58034 0)
(0.389201 0.634148 0)
(0.286294 0.686493 0)
(0.181577 0.738249 0)
(0.0897356 0.772303 0)
(3 1.27717e-10 0)
(3 7.80301e-10 0)
(3 2.54176e-09 0)
(3 6.66846e-09 0)
(3 1.58538e-08 0)
(2.99999 3.58599e-08 0)
(2.99998 7.89963e-08 0)
(2.99996 1.71532e-07 0)
(2.99991 3.69472e-07 0)
(2.99979 7.92117e-07 0)
(2.99955 1.69339e-06 0)
(2.99902 3.61343e-06 0)
(2.99787 7.7011e-06 0)
(2.99536 1.64023e-05 0)
(2.98986 3.4942e-05 0)
(2.97774 7.45797e-05 0)
(2.95051 0.000160024 0)
(2.8871 0.000347714 0)
(2.72706 0.000777418 0)
(2.23895 0.00171298 0)
(0.148075 0.00307027 0)
(-1.31607 0.18336 0)
(-0.596552 0.330487 0)
(0.0854252 0.448688 0)
(0.431594 0.537465 0)
(0.485701 0.602839 0)
(0.400345 0.661421 0)
(0.300095 0.725648 0)
(0.196028 0.784566 0)
(0.0969798 0.831032 0)
(3 1.86484e-10 0)
(3 1.13964e-09 0)
(3 3.71507e-09 0)
(3 9.76144e-09 0)
(3 2.32629e-08 0)
(2.99999 5.27933e-08 0)
(2.99998 1.16785e-07 0)
(2.99996 2.54834e-07 0)
(2.99991 5.51947e-07 0)
(2.99979 1.19049e-06 0)
(2.99955 2.56154e-06 0)
(2.99902 5.50334e-06 0)
(2.99787 1.18131e-05 0)
(2.99537 2.53495e-05 0)
(2.98988 5.4429e-05 0)
(2.97776 0.000117151 0)
(2.95057 0.000253719 0)
(2.88723 0.000557407 0)
(2.72735 0.00126355 0)
(2.23956 0.00297232 0)
(0.181239 0.0083214 0)
(-1.26501 0.198682 0)
(-0.558893 0.350896 0)
(0.111547 0.468166 0)
(0.446634 0.554347 0)
(0.495901 0.62454 0)
(0.414322 0.689296 0)
(0.317224 0.765492 0)
(0.214031 0.835938 0)
(0.106873 0.897885 0)
(3 2.5243e-10 0)
(3 1.54298e-09 0)
(3 5.03298e-09 0)
(3 1.32401e-08 0)
(3 3.16125e-08 0)
(2.99999 7.1928e-08 0)
(2.99998 1.59632e-07 0)
(2.99996 3.4967e-07 0)
(2.99991 7.6064e-07 0)
(2.99979 1.64844e-06 0)
(2.99955 3.56505e-06 0)
(2.99903 7.70111e-06 0)
(2.99788 1.66261e-05 0)
(2.99538 3.58953e-05 0)
(2.9899 7.75733e-05 0)
(2.9778 0.000168136 0)
(2.95066 0.000366999 0)
(2.88743 0.000813824 0)
(2.72783 0.00186744 0)
(2.24104 0.00456666 0)
(0.217141 0.0146392 0)
(-1.21175 0.215412 0)
(-0.520097 0.371889 0)
(0.137544 0.486117 0)
(0.462005 0.569127 0)
(0.508049 0.644612 0)
(0.431366 0.718201 0)
(0.338818 0.80606 0)
(0.237091 0.894048 0)
(0.119964 0.975684 0)
(3 3.23795e-10 0)
(3 1.9796e-09 0)
(3 6.4606e-09 0)
(3 1.70131e-08 0)
(3 4.06859e-08 0)
(2.99999 9.27755e-08 0)
(2.99998 2.06465e-07 0)
(2.99996 4.5372e-07 0)
(2.99991 9.90594e-07 0)
(2.99979 2.15541e-06 0)
(2.99955 4.68167e-06 0)
(2.99903 1.01599e-05 0)
(2.99788 2.20416e-05 0)
(2.99539 4.78329e-05 0)
(2.98992 0.000103936 0)
(2.97786 0.000226591 0)
(2.95078 0.000497752 0)
(2.88773 0.00111191 0)
(2.72857 0.00257489 0)
(2.2436 0.00644906 0)
(0.256632 0.0220392 0)
(-1.15633 0.234435 0)
(-0.479626 0.392945 0)
(0.163676 0.501602 0)
(0.477944 0.581499 0)
(0.522874 0.662742 0)
(0.452028 0.748117 0)
(0.365817 0.849688 0)
(0.266614 0.959367 0)
(0.137297 1.06857 0)
(3 3.9729e-10 0)
(3 2.42911e-09 0)
(3 7.92991e-09 0)
(3 2.0896e-08 0)
(3 5.00275e-08 0)
(2.99999 1.14262e-07 0)
(2.99998 2.54814e-07 0)
(2.99996 5.61391e-07 0)
(2.99991 1.22924e-06 0)
(2.9998 2.68339e-06 0)
(2.99955 5.84924e-06 0)
(2.99903 1.27428e-05 0)
(2.99789 2.77611e-05 0)
(2.9954 6.0518e-05 0)
(2.98996 0.000132148 0)
(2.97793 0.000289659 0)
(2.95095 0.000640206 0)
(2.88812 0.00144062 0)
(2.72959 0.00336793 0)
(2.24737 0.00859822 0)
(0.3 0.0303338 0)
(-1.09847 0.256817 0)
(-0.436926 0.412345 0)
(0.189953 0.513346 0)
(0.494672 0.591413 0)
(0.541018 0.680243 0)
(0.477278 0.780584 0)
(0.398773 0.898411 0)
(0.304959 1.03252 0)
(0.160829 1.18551 0)
(3 4.70859e-10 0)
(3 2.87945e-09 0)
(3 9.40411e-09 0)
(3 2.47994e-08 0)
(3 5.9439e-08 0)
(2.99999 1.35957e-07 0)
(2.99998 3.03741e-07 0)
(2.99996 6.70585e-07 0)
(2.99991 1.47181e-06 0)
(2.9998 3.22133e-06 0)
(2.99956 7.04203e-06 0)
(2.99903 1.53895e-05 0)
(2.9979 3.36423e-05 0)
(2.99542 7.36162e-05 0)
(2.99 0.000161432 0)
(2.97803 0.000355587 0)
(2.95117 0.000790697 0)
(2.88864 0.0017942 0)
(2.73095 0.00425239 0)
(2.25258 0.0111356 0)
(0.349344 0.0397183 0)
(-1.03872 0.28527 0)
(-0.387437 0.428561 0)
(0.217325 0.520259 0)
(0.513285 0.597809 0)
(0.563623 0.696344 0)
(0.508033 0.812783 0)
(0.438897 0.946132 0)
(0.356986 1.10588 0)
(0.194692 1.32279 0)
(3 5.94572e-10 0)
(3 3.63549e-09 0)
(3 1.18691e-08 0)
(3 3.12788e-08 0)
(3 7.48883e-08 0)
(2.99999 1.71038e-07 0)
(2.99998 3.81391e-07 0)
(2.99996 8.40127e-07 0)
(2.99991 1.83926e-06 0)
(2.9998 4.01448e-06 0)
(2.99956 8.7501e-06 0)
(2.99905 1.9063e-05 0)
(2.99793 4.15372e-05 0)
(2.99548 9.0583e-05 0)
(2.99013 0.000197931 0)
(2.97832 0.000434347 0)
(2.95183 0.000961952 0)
(2.89025 0.00217322 0)
(2.73543 0.00512539 0)
(2.27009 0.0133258 0)
(0.504884 0.046133 0)
(-0.817428 0.319381 0)
(-0.349486 0.451355 0)
(0.183117 0.543009 0)
(0.508069 0.624654 0)
(0.630544 0.734642 0)
(0.640031 0.87521 0)
(0.638067 1.03478 0)
(0.685963 1.21912 0)
(0.603426 1.48525 0)
(3 8.13769e-10 0)
(3 4.97436e-09 0)
(3 1.62295e-08 0)
(3 4.27202e-08 0)
(3 1.02106e-07 0)
(2.99999 2.32665e-07 0)
(2.99998 5.17353e-07 0)
(2.99996 1.1359e-06 0)
(2.99991 2.47774e-06 0)
(2.9998 5.38661e-06 0)
(2.99957 1.16911e-05 0)
(2.99907 2.53558e-05 0)
(2.99798 5.49867e-05 0)
(2.9956 0.00011931 0)
(2.99038 0.000259297 0)
(2.97887 0.000565632 0)
(2.95309 0.00124408 0)
(2.89323 0.00278574 0)
(2.74321 0.00648193 0)
(2.29744 0.0165217 0)
(0.697975 0.05543 0)
(-0.545585 0.328371 0)
(-0.19542 0.499469 0)
(0.255118 0.599882 0)
(0.543939 0.681701 0)
(0.688624 0.77809 0)
(0.750593 0.902885 0)
(0.8013 1.0476 0)
(0.925577 1.19657 0)
(0.98107 1.34631 0)
(3 1.19681e-09 0)
(3 7.31548e-09 0)
(3 2.38654e-08 0)
(3 6.28102e-08 0)
(3 1.50089e-07 0)
(2.99999 3.41908e-07 0)
(2.99998 7.60005e-07 0)
(2.99996 1.66803e-06 0)
(2.99991 3.63695e-06 0)
(2.99981 7.90326e-06 0)
(2.99959 1.71453e-05 0)
(2.9991 3.71673e-05 0)
(2.99805 8.0561e-05 0)
(2.99575 0.000174708 0)
(2.99072 0.000379461 0)
(2.97963 0.000827124 0)
(2.95479 0.0018172 0)
(2.89721 0.00406143 0)
(2.75362 0.00941692 0)
(2.33449 0.0238188 0)
(0.911537 0.0763237 0)
(-0.249925 0.35953 0)
(-0.0269653 0.551774 0)
(0.338471 0.6476 0)
(0.598291 0.72608 0)
(0.747904 0.810931 0)
(0.838771 0.9155 0)
(0.919283 1.03289 0)
(1.06202 1.14632 0)
(1.17742 1.21717 0)
(3 1.87007e-09 0)
(3 1.14317e-08 0)
(3 3.73013e-08 0)
(3 9.82079e-08 0)
(3 2.34806e-07 0)
(2.99999 5.35286e-07 0)
(2.99998 1.19091e-06 0)
(2.99996 2.61638e-06 0)
(2.99992 5.71092e-06 0)
(2.99982 1.24243e-05 0)
(2.99961 2.69852e-05 0)
(2.99916 5.85679e-05 0)
(2.99816 0.000127098 0)
(2.99599 0.000275947 0)
(2.99125 0.000599981 0)
(2.98079 0.00130889 0)
(2.95739 0.00287664 0)
(2.90333 0.00642502 0)
(2.76936 0.0148575 0)
(2.38558 0.0371224 0)
(1.14619 0.110984 0)
(0.0692292 0.413941 0)
(0.150365 0.621671 0)
(0.41472 0.703492 0)
(0.651612 0.759128 0)
(0.801794 0.824821 0)
(0.906456 0.906782 0)
(1.00035 0.996765 0)
(1.13668 1.08296 0)
(1.2546 1.12622 0)
(3 2.80921e-09 0)
(3 1.71716e-08 0)
(3 5.60279e-08 0)
(3 1.47517e-07 0)
(3 3.52762e-07 0)
(2.99999 8.04465e-07 0)
(2.99998 1.79068e-06 0)
(2.99997 3.93655e-06 0)
(2.99993 8.59876e-06 0)
(2.99984 1.87214e-05 0)
(2.99965 4.06938e-05 0)
(2.99924 8.83873e-05 0)
(2.99834 0.00019194 0)
(2.99638 0.000416961 0)
(2.9921 0.000906891 0)
(2.98266 0.0019783 0)
(2.9616 0.00434414 0)
(2.91315 0.0096787 0)
(2.79435 0.0222537 0)
(2.46165 0.0548011 0)
(1.42416 0.155017 0)
(0.425516 0.475323 0)
(0.334403 0.659346 0)
(0.470841 0.734918 0)
(0.678498 0.766425 0)
(0.838563 0.813351 0)
(0.953799 0.877166 0)
(1.05399 0.947424 0)
(1.1818 1.01525 0)
(1.29558 1.05433 0)
(3 4.27378e-09 0)
(3 2.61374e-08 0)
(3 8.53854e-08 0)
(3 2.25289e-07 0)
(3 5.40409e-07 0)
(2.99999 1.23738e-06 0)
(2.99999 2.76778e-06 0)
(2.99997 6.11851e-06 0)
(2.99994 1.34466e-05 0)
(2.99986 2.94676e-05 0)
(2.99971 6.44916e-05 0)
(2.99936 0.000141072 0)
(2.9986 0.000308581 0)
(2.99695 0.000675299 0)
(2.99333 0.00147956 0)
(2.98537 0.00325006 0)
(2.96765 0.00717931 0)
(2.92716 0.0160513 0)
(2.82931 0.0368294 0)
(2.56175 0.0892957 0)
(1.71379 0.241524 0)
(0.680954 0.665703 0)
(0.47031 0.708153 0)
(0.534306 0.74868 0)
(0.700916 0.762366 0)
(0.870005 0.787722 0)
(0.994303 0.831278 0)
(1.09715 0.885518 0)
(1.21655 0.941269 0)
(1.32322 0.980776 0)
(3 4.15385e-09 0)
(3 2.54031e-08 0)
(3 8.29777e-08 0)
(3 2.18886e-07 0)
(3 5.24859e-07 0)
(3 1.20118e-06 0)
(2.99999 2.68517e-06 0)
(2.99998 5.9317e-06 0)
(2.99996 1.3026e-05 0)
(2.99991 2.85222e-05 0)
(2.9998 6.23682e-05 0)
(2.99956 0.000136302 0)
(2.99905 0.000297855 0)
(2.99794 0.000651108 0)
(2.99553 0.00142464 0)
(2.99026 0.00312366 0)
(2.97868 0.00687995 0)
(2.95276 0.0153026 0)
(2.89258 0.0347707 0)
(2.73968 0.0827566 0)
(2.27467 0.219027 0)
(1.23057 0.624587 0)
(0.775088 0.697042 0)
(0.733575 0.747895 0)
(0.807466 0.766821 0)
(0.938139 0.77223 0)
(1.05029 0.794102 0)
(1.1477 0.830374 0)
(1.25773 0.872309 0)
(1.35395 0.906772 0)
(3 2.71813e-09 0)
(3 1.66129e-08 0)
(3 5.41819e-08 0)
(3 1.42527e-07 0)
(3 3.40338e-07 0)
(3 7.74614e-07 0)
(2.99999 1.72006e-06 0)
(2.99999 3.77073e-06 0)
(2.99997 8.21087e-06 0)
(2.99993 1.78164e-05 0)
(2.99985 3.85866e-05 0)
(2.99967 8.34859e-05 0)
(2.99929 0.000180537 0)
(2.99845 0.000390356 0)
(2.99663 0.000844301 0)
(2.99265 0.00182831 0)
(2.98392 0.00397095 0)
(2.96451 0.00868414 0)
(2.92016 0.0192871 0)
(2.81251 0.0443472 0)
(2.51626 0.112173 0)
(1.7032 0.296493 0)
(0.929972 0.637113 0)
(0.848087 0.731473 0)
(0.877345 0.773786 0)
(0.97648 0.778625 0)
(1.09685 0.78396 0)
(1.19554 0.802745 0)
(1.29772 0.828928 0)
(1.38453 0.852219 0)
(3 2.43009e-09 0)
(3 1.48576e-08 0)
(3 4.84993e-08 0)
(3 1.27777e-07 0)
(3 3.05806e-07 0)
(3 6.98064e-07 0)
(2.99999 1.55555e-06 0)
(2.99999 3.42381e-06 0)
(2.99998 7.48855e-06 0)
(2.99995 1.63269e-05 0)
(2.99989 3.55409e-05 0)
(2.99975 7.73092e-05 0)
(2.99946 0.000168117 0)
(2.99883 0.000365604 0)
(2.99745 0.000795393 0)
(2.99443 0.00173215 0)
(2.98781 0.00378056 0)
(2.97312 0.00829152 0)
(2.93983 0.0183776 0)
(2.86073 0.0416817 0)
(2.65181 0.0996234 0)
(2.03777 0.262556 0)
(1.16833 0.693885 0)
(0.962459 0.78307 0)
(0.955003 0.822821 0)
(1.01496 0.826361 0)
(1.12128 0.814949 0)
(1.22769 0.811553 0)
(1.32944 0.818099 0)
(1.41157 0.827374 0)
(3 2.09392e-09 0)
(3 1.28042e-08 0)
(3 4.1813e-08 0)
(3 1.10244e-07 0)
(3 2.64151e-07 0)
(3 6.03915e-07 0)
(3 1.34832e-06 0)
(2.99999 2.97419e-06 0)
(2.99999 6.5209e-06 0)
(2.99997 1.42541e-05 0)
(2.99993 3.11128e-05 0)
(2.99985 6.78666e-05 0)
(2.99967 0.000148004 0)
(2.99929 0.000322784 0)
(2.99845 0.000704185 0)
(2.99663 0.00153741 0)
(2.99267 0.003362 0)
(2.98396 0.0073777 0)
(2.96462 0.0163124 0)
(2.92028 0.0366651 0)
(2.81087 0.0854851 0)
(2.48689 0.218229 0)
(1.73983 0.585847 0)
(1.22956 0.812785 0)
(1.10825 0.862872 0)
(1.10012 0.883411 0)
(1.16158 0.872614 0)
(1.2599 0.849498 0)
(1.35915 0.837019 0)
(1.43832 0.830802 0)
(3 1.34894e-09 0)
(3 8.24303e-09 0)
(3 2.6887e-08 0)
(3 7.07839e-08 0)
(3 1.69284e-07 0)
(3 3.86152e-07 0)
(3 8.59873e-07 0)
(3 1.89119e-06 0)
(2.99999 4.13313e-06 0)
(2.99998 9.00363e-06 0)
(2.99996 1.95813e-05 0)
(2.99991 4.25507e-05 0)
(2.9998 9.24263e-05 0)
(2.99957 0.000200733 0)
(2.99907 0.000435984 0)
(2.99798 0.000947278 0)
(2.9956 0.0020601 0)
(2.9904 0.00448976 0)
(2.97896 0.00983162 0)
(2.9533 0.0217571 0)
(2.89339 0.049311 0)
(2.73735 0.119307 0)
(2.30404 0.314486 0)
(1.54918 0.732755 0)
(1.29243 0.843412 0)
(1.23468 0.894859 0)
(1.23142 0.909845 0)
(1.29178 0.895433 0)
(1.38889 0.86767 0)
(1.46567 0.846761 0)
(3 8.57668e-10 0)
(3 5.23786e-09 0)
(3 1.70735e-08 0)
(3 4.49345e-08 0)
(3 1.07468e-07 0)
(3 2.45223e-07 0)
(3 5.46342e-07 0)
(3 1.20241e-06 0)
(2.99999 2.62986e-06 0)
(2.99999 5.7338e-06 0)
(2.99997 1.24817e-05 0)
(2.99995 2.71503e-05 0)
(2.99988 5.90379e-05 0)
(2.99974 0.000128365 0)
(2.99945 0.00027912 0)
(2.9988 0.00060709 0)
(2.99739 0.00132123 0)
(2.99432 0.00287917 0)
(2.98761 0.00629171 0)
(2.97279 0.0138324 0)
(2.93926 0.0308208 0)
(2.85902 0.0709089 0)
(2.63955 0.178414 0)
(2.09281 0.457504 0)
(1.48612 0.822934 0)
(1.35702 0.906206 0)
(1.32084 0.930735 0)
(1.33109 0.928365 0)
(1.39887 0.905561 0)
(1.47763 0.873005 0)
(3 5.4404e-10 0)
(3 3.32441e-09 0)
(3 1.0844e-08 0)
(3 2.85535e-08 0)
(3 6.83069e-08 0)
(3 1.55867e-07 0)
(3 3.47211e-07 0)
(3 7.63944e-07 0)
(3 1.67024e-06 0)
(2.99999 3.63994e-06 0)
(2.99999 7.91965e-06 0)
(2.99997 1.72174e-05 0)
(2.99994 3.74165e-05 0)
(2.99986 8.12994e-05 0)
(2.99971 0.000176645 0)
(2.99937 0.000383855 0)
(2.99863 0.000834393 0)
(2.99703 0.00181506 0)
(2.99356 0.00395457 0)
(2.98599 0.00864594 0)
(2.96926 0.0190467 0)
(2.93118 0.0426849 0)
(2.83713 0.100138 0)
(2.56517 0.261071 0)
(1.94569 0.651947 0)
(1.56474 0.873048 0)
(1.44673 0.916561 0)
(1.42251 0.935131 0)
(1.44528 0.932238 0)
(1.5 0.906704 0)
(3 2.84447e-10 0)
(3 1.73803e-09 0)
(3 5.66648e-09 0)
(3 1.49014e-08 0)
(3 3.55718e-08 0)
(3 8.09312e-08 0)
(3 1.79625e-07 0)
(3 3.93549e-07 0)
(3 8.56409e-07 0)
(3 1.85699e-06 0)
(2.99999 4.01895e-06 0)
(2.99998 8.68884e-06 0)
(2.99997 1.87738e-05 0)
(2.99993 4.05495e-05 0)
(2.99985 8.75624e-05 0)
(2.99967 0.000189057 0)
(2.9993 0.000408196 0)