/*--------------------------------*- C++ -*----------------------------------*\
  =========                 |
  \\      /  F ield         | OpenFOAM: The Open Source CFD Toolbox
   \\    /   O peration     | Website:  https://openfoam.org
    \\  /    A nd           | Version:  6.0
     \\/     M anipulation  |
\*---------------------------------------------------------------------------*/
FoamFile
{
    version     2.0;
    format      ascii;
    class       volScalarField;
    location    "4.0001063";
    object      p;
}
// * * * * * * * * * * * * * * * * * * * * * * * * * * * * * * * * * * * * * //

dimensions      [1 -1 -2 0 0 0 0];

internalField   nonuniform List<scalar> 
2700
(
1
1
1
1
1
1
1
1
1
1
1
1
1
1
1
4.51395
10.2613
10.4083
10.4371
10.6842
11.2161
11.7499
11.7731
11.1746
10.5199
10.8104
12.272
13.1397
12.2127
11.01
1
1
1
1
1
1
1
1
1
1
1
1
1
1
1
4.51118
10.2594
10.6625
10.8619
10.975
10.9813
11.0171
11.3047
11.6348
11.7837
11.6624
11.6451
11.6451
11.8666
12.1905
1
1
1
1
1
1
1
1
1
1
1
1
1
1
1
4.42903
10.0687
10.8109
11.0584
11.1485
10.8953
10.6356
10.6735
11.5047
12.6475
12.7166
11.2252
10.508
11.4469
13.1845
1
1
1
1
1
1
1
1
1
1
1
1
1
1
1
4.41885
10.1502
10.7039
10.948
11.0434
10.9571
10.7058
10.9024
11.7152
12.312
12.1807
11.3521
10.3218
11.368
12.6744
1
1
1
1
1
1
1
1
1
1
1
1
1
1
1
4.40149
10.2646
10.4822
10.582
10.8644
11.1871
11.4593
11.5557
11.4487
11.1681
11.3904
11.8024
11.931
11.7978
11.5182
1
1
1
1
1
1
1
1
1
1
1
1
1
1
1
4.32533
10.2614
10.4147
10.3706
10.4763
11.0764
11.8878
12.0524
11.1826
10.6092
10.5974
11.8686
13.2639
11.9587
10.604
1
1
1
1
1
1
1
1
1
1
1
1
1
1
1
4.20266
10.1154
10.4536
10.5284
10.8938
11.231
11.5031
11.4896
11.2723
10.6997
10.7586
12.1576
12.8244
11.8742
10.8298
1
1
1
1
1
1
1
1
1
1
1
1
1
1
1
4.03099
9.88879
10.6395
11.008
11.0906
10.9947
10.7161
10.838
11.4516
11.8316
11.9678
11.7129
11.244
11.6804
12.1375
1
1
1
1
1
1
1
1
1
1
1
1
1
1
1
3.9418
9.87722
10.7342
11.064
11.2001
10.8663
10.4794
10.4169
11.0172
12.6617
12.9467
11.1737
10.3707
11.421
13.2218
1
1
1
1
1
1
1
1
1
1
1
1
1
1
1
3.91539
10.105
10.644
10.7382
10.8007
10.8321
10.749
11.0206
11.6689
12.0324
11.8915
11.1395
10.4316
11.2037
13.0205
1
1
1
1
1
1
1
1
1
1
1
1
1
1
1
3.7782
10.0836
10.5184
10.3934
10.3772
10.7561
11.483
11.8481
11.7215
10.8827
10.6541
11.4821
11.6597
11.7037
11.4646
1
1
1
1
1
1
1
1
1
1
1
1
1
1
1
3.56572
9.90257
10.3007
10.2184
10.326
10.9066
11.7002
12.1674
11.5522
10.3984
10.2811
11.49
12.7763
12.0861
10.4808
1
1
1
1
1
1
1
1
1
1
1
1
1
1
1
3.32889
9.55623
10.2575
10.5698
11.056
11.2291
11.272
11.1458
10.8731
10.944
11.0856
12.1807
12.8423
11.7941
10.5805
1
1
1
1
1
1
1
1
1
1
1
1
1
1
1
3.12236
9.29154
10.2938
11.011
11.3452
11.3821
10.8822
10.1472
10.4149
11.464
12.3295
12.1346
11.7368
11.2696
11.607
1
1
1
1
1
1
1
1
1
1
1
1
1
1
1
3.03824
9.38252
10.7299
10.9472
11.1942
10.8911
10.3896
10.1431
10.6026
11.9103
12.4715
11.6853
10.1091
11.0645
12.5679
1
1
1
1
1
1
1
1
1
1
1
1
1
1
1
2.94086
9.65071
10.7575
10.6874
10.41
10.376
10.6125
11.187
11.8078
11.7246
11.6052
10.4453
10.196
10.9717
12.5385
1
1
1
1
1
1
1
1
1
1
1
1
1
1
1
2.72126
9.4271
10.7272
10.2576
10.0083
10.0215
10.8152
12.0261
12.2999
11.8885
10.3238
9.83948
10.2803
11.0574
12.3107
1
1
1
1
1
1
1
1
1
1
1
1
1
1
1
2.44911
9.07521
10.1875
10.1194
10.182
10.7416
11.4622
11.7147
11.7886
10.4419
10.226
10.3872
11.1207
11.5426
10.5445
1
1
1
1
1
1
1
1
1
1
1
1
1
1
1
2.15582
8.55127
9.83225
10.0882
10.9795
11.5003
11.4317
11.1805
10.2008
10.0494
10.5658
12.3773
12.4438
11.3973
9.97647
1
1
1
1
1
1
1
1
1
1
1
1
1
1
1
1.94215
8.16462
9.97882
10.7541
11.2443
11.4581
11.4195
10.2074
9.64088
9.63539
11.2984
12.743
13.2671
11.0257
9.57138
1
1
1
1
1
1
1
1
1
1
1
1
1
1
1
1.80766
8.10107
10.7637
10.9886
11.0043
10.9299
10.2363
10.1205
10.2529
11.4519
12.0027
12.1274
11.4761
10.8832
10.6318
1
1
1
1
1
1
1
1
1
1
1
1
1
1
1
1.61588
8.34923
11.0182
10.9493
10.7915
9.91102
9.64279
9.91152
11.5442
12.3806
12.0728
10.4313
9.26423
10.5205
12.2378
1
1
1
1
1
1
1
1
1
1
1
1
1
1
1
1.37837
8.0472
10.8044
10.4894
9.93171
9.79495
9.92565
11.0816
12.0261
12.2615
11.2996
9.15728
8.8327
10.0588
12.5274
1
1
1
1
1
1
1
1
1
1
1
1
1
1
1
1.14072
7.51425
10.4567
9.74279
9.56369
9.94822
11.2925
11.7524
11.5104
10.9252
9.76971
9.27966
9.34268
10.4577
12.232
1
1
1
1
1
1
1
1
1
1
1
1
1
1
1
1.04147
6.83528
9.90594
9.48038
9.73398
10.9903
11.6843
11.918
11.1523
9.16638
9.30722
9.59832
10.7083
11.2651
11.0811
1
1
1
1
1
1
1
1
1
1
1
1
1
1
1
1.01366
6.54109
9.62133
10.1465
11.0664
11.2574
11.153
10.7842
9.47982
9.37739
9.76199
12.0393
12.352
11.1114
9.00574
1
1
1
1
1
1
1
1
1
1
1
1
1
1
1
1.00195
6.28394
10.032
10.8124
11.1447
11.2929
10.8754
9.17094
8.88794
8.91943
11.047
12.6729
12.3779
10.5485
8.3124
1
1
1
1
1
1
1
1
1
1
1
1
1
1
1
0.999975
6.13384
10.5087
10.6554
10.871
10.7032
9.41446
9.15934
9.36892
11.128
11.6222
11.9587
11.6682
8.83538
7.85864
1
1
1
1
1
1
1
1
1
1
1
1
1
1
1
0.999955
5.71612
10.4649
10.6003
10.1312
9.31807
9.07476
9.24929
11.4126
12.0968
11.4479
9.58708
7.97793
8.47934
7.41322
1
1
1
1
1
1
1
1
1
1
1
1
1
1
1
0.999981
5.03123
9.8947
9.67121
9.39859
9.20391
9.63206
11.1891
11.5933
11.7736
10.7711
7.96655
7.53468
8.56814
10.4369
1
1
1
1
1
1
1
1
1
1
1
1
1
1
1
0.999999
3.76633
9.22945
9.74758
9.99672
10.3075
10.5769
10.6321
10.2753
9.7365
9.42863
9.5948
9.51685
9.02056
7.88101
1
1
1
1
1
1
1
1
1
1
1
1
1
1
1
1
2.05051
8.32536
10.0248
10.0584
10.0937
10.0373
9.87405
9.74766
9.70645
9.75531
9.59909
9.04366
7.94502
6.05065
1
1
1
1
1
1
1
1
1
1
1
1
1
1
1
1
1.08587
6.27052
9.71477
9.74693
9.74148
9.74524
9.7107
9.65985
9.5134
9.212
8.74536
8.09088
7.20296
5.99055
1
1
1
1
1
1
1
1
1
1
1
1
1
1
1
1
1.00034
3.57128
9.00897
9.56221
9.58912
9.60265
9.51043
9.32791
9.07145
8.76117
8.34698
7.80354
6.90405
5.9686
1
1
1
1
1
1
1
1
1
1
1
1
1
1
1
1
0.999997
1.3798
7.50814
9.58268
9.46196
9.36545
9.22031
9.02034
8.76875
8.45982
8.06251
7.52406
6.72253
5.92241
1
1
1
1
1
1
1
1
1
1
1
1
1
1
1
1
0.999999
1.00838
4.80383
9.03308
9.15765
9.07942
8.94766
8.76037
8.50304
8.16901
7.78288
7.27622
6.63047
5.94702
1
1
1
1
1
1
1
1
1
1
1
1
1
1
1
1
1
0.999983
1.80875
7.68901
9.05279
8.86558
8.7327
8.5411
8.28517
7.96547
7.58106
7.12146
6.57427
5.97856
1
1
1
1
1
1
1
1
1
1
1
1
1
1
1
1
1
0.999996
1.03476
4.83888
8.57853
8.64923
8.50631
8.33258
8.09353
7.79448
7.42483
7.00219
6.52288
6.00769
1
1
1
1
1
1
1
1
1
1
1
1
1
1
1
1
1
1
1.00004
1.6268
7.03542
8.58131
8.36899
8.19393
7.9429
7.65262
7.30741
6.91933
6.49053
6.04152
1
1
1
1
1
1
1
1
1
1
1
1
1
1
1
1
1
1
1
1.02054
3.84168
7.98252
8.17842
7.9967
7.77412
7.51512
7.20087
6.85135
6.47612
6.07474
1
1
1
1
1
1
1
1
1
1
1
1
1
1
1
1
1
1
1
1.00004
1.3558
5.72142
8.11011
7.90632
7.6973
7.44221
7.13984
6.81939
6.4831
6.11118
1
1
1
1
1
1
1
1
1
1
1
1
1
1
1
1
1
1
1
1
1.00694
2.14633
6.71134
7.80885
7.60613
7.3733
7.09643
6.80096
6.49378
6.14219
1
1
1
1
1
1
1
1
1
1
1
1
1
1
1
1
1
1
1
1
1.00002
1.06434
3.39301
7.25357
7.62059
7.35374
7.09242
6.80664
6.51853
6.1785
1
1
1
1
1
1
1
1
1
1
1
1
1
1
1
1
1
1
1
1
1
1.00046
1.27353
4.67796
7.40592
7.32104
7.06409
6.7905
6.51858
6.19992
1
1
1
1
1
1
1
1
1
1
1
1
1
1
1
1
1
1
1
1
1
1
1.00476
1.68293
5.43565
7.2138
7.04346
6.78908
6.53438
6.24745
1
1
1
1
1
1
1
1
1
1
1
1
1
1
1
1
1
1
1
1
1
1
1.00002
1.02442
2.14766
5.84349
7.00647
6.80594
6.55305
6.30252
1
1
1
1
1
1
1
1
1
1
1
1
1
1
1
1
1
1
1
1
1
1
1
1.00015
1.06575
2.60837
6.03041
6.80994
6.59774
6.34974
1
1
1
1
1
1
1
1
1
1
1
1
1
1
1
1
1
1
1
1
1
1
1
1
1.00061
1.1286
2.98736
6.05811
6.6217
6.41674
1
1
1
1
1
1
1
1
1
1
1
1
1
1
1
1
1
1
1
1
1
1
1
1
1
1.00168
1.20129
3.23586
5.97537
6.41402
1
1
1
1
1
1
1
1
1
1
1
1
1
1
1
1
1
1
1
1
1
1
1
1
1
1
1.00345
1.26498
3.35416
5.90967
1
1
1
1
1
1
1
1
1
1
1
1
1
1
1
1
1
1
1
1
1
1
1
1
1
1
1.00001
1.00573
1.3037
3.69654
1
1
1
1
1
1
1
1
1
1
1
1
1
1
1
1
1
1
1
1
1
1
1
1
1
1
1
1.00002
1.00644
1.45653
1
1
1
1
1
1
1
1
1
1
1
1
1
1
1
1
1
1
1
1
1
1
1
1
1
1
1
1
1.00003
1.01294
1
1
1
1
1
1
1
1
1
1
1
1
1
1
1
1
1
1
1
1
1
1
1
1
1
1
1
1
1
1.00002
1
1
1
1
1
1
1
1
1
1
1
1
1
1
1
1
1
1
1
1
1
1
1
1
1
1
1
1
1
1
1
1
1
1
1
1
1
1
1
1
1
1
1
1
1
1
1
1
1
1
1
1
1
1
1
1
1
1
1
1
1
1
1
1
1
1
1
1
1
1
1
1
1
1
1
1
1
1
1
1
1
1
1
1
1
1
1
1
1
1
1
1
1
1
1
1
1
1
1
1
1
1
1
1
1
1
1
1
1
1
1
1
1
1
1
1
1
1
1
1
1
1
1
1
1
1
1
1
1
1
1
1
1
1
1
1
1
1
1
1
1
1
1
1
1
1
1
1
1
1
1
1
1
1
1
1
1
1
1
1
1
1
1
1
1
1
1
1
1
1
1
1
1
1
1
1
1
1
1
1
1.15272
0.465034
0.706355
1.04958
1.16965
1.23766
1.30115
1.89598
4.25412
5.24019
5.30619
5.26138
5.24436
5.12019
4.94467
4.74532
4.55022
4.35438
4.17328
3.99083
3.81439
3.65009
3.46515
3.28992
3.11569
2.94359
2.78043
2.63076
2.52172
2.33999
2.48864
0.825634
0.845828
0.958647
1.09185
1.2164
1.26055
1.80458
4.22427
5.29701
5.33515
5.24468
5.20342
5.08704
4.9163
4.72153
4.53285
4.35716
4.18038
3.99273
3.7979
3.61491
3.44484
3.27497
3.11416
2.95615
2.79846
2.64181
2.52047
2.33203
3.1355
1.24254
0.929089
0.908853
1.03454
1.2025
1.25039
1.70149
4.20495
5.40353
5.36122
5.24754
5.17405
5.06973
4.91257
4.72624
4.54198
4.36642
4.18439
4.00925
3.81012
3.61367
3.42572
3.24582
3.08432
2.94033
2.8055
2.66474
2.53862
2.33403
3.56946
1.79809
1.19592
0.932211
0.975354
1.11086
1.18765
1.47799
4.0647
5.63489
5.43731
5.24733
5.13892
5.03573
4.89497
4.71679
4.53311
4.34702
4.16388
3.98219
3.79278
3.61155
3.43234
3.25735
3.08807
2.92982
2.78601
2.64412
2.52636
2.33317
3.92869
2.29618
1.48823
0.992913
1.01246
1.04961
1.11352
1.32959
3.91164
5.89225
5.4881
5.24405
5.11439
4.98102
4.83368
4.67144
4.50813
4.3437
4.16632
3.9756
3.77807
3.59512
3.41419
3.24324
3.0832
2.9338
2.78736
2.63374
2.507
2.3165
4.23433
2.7396
1.80952
1.21052
1.11637
1.03441
1.05474
1.18847
3.71588
6.25228
5.57659
5.20652
5.08782
4.99537
4.84201
4.68142
4.50816
4.33234
4.14903
3.9553
3.76717
3.59044
3.40986
3.23643
3.07081
2.91827
2.77235
2.62421
2.50216
2.31487
4.47738
3.10563
2.11243
1.47191
1.22597
1.0245
1.03907
1.26859
3.26451
6.16894
5.72213
5.20063
5.00979
4.95543
4.8342
4.68803
4.50607
4.31111
4.11552
3.92578
3.75095
3.58331
3.40617
3.23059
3.05849
2.90002
2.74978
2.60558
2.49219
2.31254
4.68168
3.41782
2.37988
1.74939
1.39591
1.06703
1.08693
1.43279
2.7586
5.82977
5.77353
5.22749
4.96816
4.89308
4.77417
4.62381
4.4456
4.2579
4.07157
3.89247
3.72417
3.56099
3.38866
3.21522
3.04134
2.88293
2.7345
2.59939
2.4909
2.31173
4.85552
3.67067
2.6143
2.02003
1.56547
1.16394
1.18105
1.77161
2.4759
4.91351
5.73988
5.23166
4.95435
4.83105
4.70503
4.55154
4.38362
4.2112
4.03892
3.86829
3.69828
3.52911
3.35573
3.18666
3.01799
2.86513
2.72099
2.59669
2.49117
2.31004
5.01959
3.85997
2.83509
2.26285
1.73224
1.31972
1.3686
2.27171
2.53008
3.74461
5.48233
5.22902
4.93962
4.77112
4.63974
4.48968
4.33624
4.18087
4.01895
3.85089
3.67556
3.49774
3.32056
3.15534
2.99563
2.85099
2.71044
2.59363
2.48511
2.30227
5.17016
4.00751
3.04348
2.48071
1.89028
1.48188
1.69371
2.8012
2.7427
2.90793
4.73004
5.19393
4.92924
4.73077
4.58815
4.44335
4.29919
4.15382
3.99791
3.83144
3.65297
3.4701
3.29232
3.13229
2.98111
2.84192
2.7026
2.58821
2.47101
2.29007
5.30305
4.1125
3.25268
2.66511
2.03396
1.66672
2.23307
3.21968
3.0119
2.84501
3.71119
4.91129
4.92482
4.69039
4.52779
4.39828
4.27161
4.12711
3.96818
3.80118
3.62447
3.44244
3.26706
3.11141
2.96734
2.83306
2.69754
2.58016
2.44908
2.27717
5.40893
4.20163
3.46767
2.80563
2.1773
1.97946
2.90505
3.46223
3.26039
2.90969
3.00373
4.21622
4.79035
4.67729
4.48368
4.3467
4.2263
4.07954
3.9189
3.75536
3.58811
3.41856
3.25367
3.10064
2.95621
2.8211
2.68889
2.56556
2.42231
2.27375
5.48088
4.3067
3.6682
2.89758
2.33775
2.53133
3.63841
3.62982
3.41933
3.05139
2.8934
3.39138
4.39497
4.61054
4.42764
4.28787
4.159
4.01224
3.85567
3.6986
3.54333
3.39002
3.23954
3.09077
2.94352
2.80408
2.67053
2.5369
2.39534
2.28949
5.53819
4.44525
3.83122
2.98759
2.56474
3.32882
4.20366
3.86731
3.54942
3.20321
2.91339
2.88379
3.67931
4.38081
4.37717
4.21629
4.07347
3.93386
3.78804
3.64086
3.49663
3.3557
3.21516
3.07021
2.92322
2.78084
2.64747
2.49633
2.37523
2.3345
5.57965
4.61719
3.93325
3.1113
2.95025
4.26021
4.60389
4.15935
3.70095
3.34011
2.99581
2.81243
3.00997
3.84126
4.21623
4.11832
3.97963
3.85209
3.72536
3.58949
3.44959
3.31172
3.17431
3.03306
2.89506
2.75256
2.61812
2.45916
2.36829
2.42428
5.61948
4.81455
3.98622
3.28193
3.6606
5.08153
4.85678
4.36966
3.87026
3.48022
3.12067
2.81551
2.69771
3.12779
3.86139
4.0005
3.89132
3.78289
3.66775
3.55082
3.43449
3.29461
3.14123
2.99775
2.86867
2.72465
2.58218
2.43217
2.37916
2.59393
5.70387
4.99321
4.02954
3.54199
4.72207
5.73322
5.12583
4.55857
4.04932
3.62101
3.25356
2.89469
2.65649
2.6698
3.24367
3.7571
3.81848
3.7163
3.61073
3.506
3.36964
3.22779
3.0902
2.95308
2.81629
2.69842
2.55045
2.44285
2.42731
2.8573
5.82662
5.10929
4.1494
4.07973
5.82077
6.06735
5.41912
4.74237
4.20454
3.75611
3.37161
3.00592
2.66937
2.50895
2.66685
3.28269
3.6512
3.62263
3.56006
3.46097
3.31756
3.17763
3.06119
2.9422
2.80871
2.64081
2.51517
2.46662
2.5621
3.18115
5.97192
5.20247
4.34489
5.11272
6.75697
6.31634
5.62426
4.93692
4.36584
3.88627
3.4741
3.10888
2.7465
2.48936
2.40846
2.72033
3.31989
3.5332
3.48577
3.37868
3.26778
3.15128
3.01893
2.88101
2.73631
2.58204
2.50692
2.52233
2.89243
3.48863
5.93499
5.36539
4.67046
6.49495
7.33627
6.55766
5.82466
5.12972
4.52049
4.00679
3.56395
3.18713
2.8394
2.51049
2.33577
2.35399
2.80116
3.3435
3.39154
3.29336
3.19065
3.08895
2.97712
2.8422
2.6887
2.56163
2.5305
2.72833
3.34824
3.62488
5.52571
5.19719
5.54949
7.88865
7.7316
6.79653
5.99592
5.2913
4.66303
4.11867
3.65141
3.25504
2.91781
2.58759
2.31778
2.19843
2.34005
2.90764
3.24246
3.20115
3.12428
3.02176
2.91434
2.77631
2.63848
2.55285
2.62028
3.13881
3.74294
3.71948
4.56311
4.92905
7.07017
8.83511
7.93461
7.01499
6.17838
5.44547
4.79438
4.22214
3.73286
3.31777
2.97428
2.65725
2.35035
2.16048
2.10571
2.41396
2.95162
3.12105
3.05496
2.95413
2.84366
2.69697
2.59429
2.58648
2.93539
3.57219
3.87686
3.77714
3.0708
5.10423
8.81292
9.25412
8.13392
7.22251
6.34864
5.57511
4.8981
4.30684
3.80089
3.37796
3.0239
2.71606
2.41901
2.15145
2.00775
2.0578
2.50276
2.96461
2.96082
2.88551
2.7706
2.63989
2.58298
2.74874
3.43903
3.92386
3.95061
3.80334
2.20516
6.1318
10.437
9.56854
8.3001
7.38707
6.48899
5.6881
4.98837
4.38216
3.86618
3.43008
3.06586
2.75584
2.4612
2.19553
1.9779
1.90915
2.09262
2.58649
2.85007
2.81137
2.70493
2.62061
2.65733
3.15206
3.82466
4.02694
3.98711
3.81327
1.51843
6.78791
11.5544
9.76974
8.47537
7.54614
6.66823
5.85366
5.13867
4.52072
3.99436
3.54602
3.1663
2.83765
2.53741
2.24429
1.98736
1.84665
1.85027
2.16721
2.67057
2.73048
2.64004
2.6308
2.90779
3.69941
4.1066
4.07723
3.99892
3.80981
1.17601
7.49859
12.0738
9.88151
8.706
7.65795
6.69685
5.85136
5.12218
4.50123
3.97305
3.52208
3.13108
2.79722
2.51431
2.26849
2.04739
1.82572
1.74947
1.83198
2.27981
2.58968
2.60217
2.75933
3.38693
4.05585
4.15747
4.11044
4.00554
3.80106
1.06858
7.7452
11.8717
9.97874
8.8361
7.7984
6.78762
5.91408
5.17493
4.54506
4.00658
3.54682
3.14643
2.80077
2.52243
2.2859
2.05474
1.83483
1.70347
1.62969
1.89868
2.37186
2.61951
3.162
3.90517
4.21145
4.17432
4.07707
3.97425
3.78581
1.23216
7.75731
11.6529
10.1159
8.90943
7.80715
6.82568
5.9551
5.20946
4.57066
4.02517
3.5578
3.15735
2.81471
2.52945
2.28967
2.06493
1.86209
1.67197
1.5518
1.65141
2.13766
2.84169
3.57956
4.15742
4.24045
4.15122
4.05135
3.95568
3.79087
1.38432
7.77747
11.5106
10.2187
9.07944
7.92222
6.87824
5.99103
5.22836
4.58174
4.0328
3.56008
3.16071
2.82393
2.53151
2.28976
2.0737
1.8856
1.65555
1.50439
1.52758
1.95383
3.06435
4.0612
4.39917
4.28432
4.14744
4.03782
3.93095
3.76125
)
;

boundaryField
{
    inlet
    {
        type            fixedValue;
        value           uniform 1;
    }
    outlet
    {
        type            zeroGradient;
    }
    top
    {
        type            symmetryPlane;
    }
    bottom
    {
        type            symmetryPlane;
    }
    step
    {
        type            zeroGradient;
    }
    defaultFaces
    {
        type            empty;
    }
}


// ************************************************************************* //
