/*--------------------------------*- C++ -*----------------------------------*\
  =========                 |
  \\      /  F ield         | OpenFOAM: The Open Source CFD Toolbox
   \\    /   O peration     | Website:  https://openfoam.org
    \\  /    A nd           | Version:  6.0
     \\/     M anipulation  |
\*---------------------------------------------------------------------------*/
FoamFile
{
    version     2.0;
    format      ascii;
    class       volScalarField;
    location    "4.0001063";
    object      rho;
}
// * * * * * * * * * * * * * * * * * * * * * * * * * * * * * * * * * * * * * //

dimensions      [1 -3 0 0 0 0 0];

internalField   nonuniform List<scalar> 
2700
(
1.39997
1.39997
1.39997
1.39997
1.39997
1.39997
1.39997
1.39997
1.39997
1.39997
1.39997
1.39997
1.39997
1.39997
1.39997
3.1483
5.34053
5.39013
5.39964
5.48994
5.6822
5.87421
5.88278
5.66695
5.42914
5.53586
6.0552
6.35738
6.02926
5.59994
1.39997
1.39997
1.39997
1.39997
1.39997
1.39997
1.39997
1.39997
1.39997
1.39997
1.39997
1.39997
1.39997
1.39997
1.39997
3.14673
5.33801
5.48383
5.55601
5.59645
5.59814
5.61095
5.71514
5.8354
5.88989
5.84481
5.83599
5.83547
5.90819
6.02439
1.39997
1.39997
1.39997
1.39997
1.39997
1.39997
1.39997
1.39997
1.39997
1.39997
1.39997
1.39997
1.39997
1.39997
1.39997
3.10842
5.26533
5.5378
5.62809
5.66032
5.56711
5.47168
5.48733
5.79033
6.19619
6.22127
5.68652
5.4238
5.76068
6.37375
1.39997
1.39997
1.39997
1.39997
1.39997
1.39997
1.39997
1.39997
1.39997
1.39997
1.39997
1.39997
1.39997
1.39997
1.39997
3.10233
5.29495
5.49856
5.5878
5.62215
5.59017
5.49811
5.57152
5.86661
6.08068
6.0338
5.7338
5.35716
5.73453
6.19871
1.39997
1.39997
1.39997
1.39997
1.39997
1.39997
1.39997
1.39997
1.39997
1.39997
1.39997
1.39997
1.39997
1.39997
1.39997
3.09445
5.33848
5.41711
5.45345
5.55689
5.67455
5.77336
5.80941
5.77386
5.67403
5.75492
5.89892
5.94576
5.89072
5.79278
1.39997
1.39997
1.39997
1.39997
1.39997
1.39997
1.39997
1.39997
1.39997
1.39997
1.39997
1.39997
1.39997
1.39997
1.39997
3.06185
5.33963
5.39224
5.37543
5.41513
5.6348
5.92727
5.98842
5.67824
5.47105
5.46811
5.9251
6.41297
5.94987
5.46328
1.39997
1.39997
1.39997
1.39997
1.39997
1.39997
1.39997
1.39997
1.39997
1.39997
1.39997
1.39997
1.39997
1.39997
1.39997
3.00855
5.28765
5.40686
5.43428
5.5684
5.69146
5.79054
5.78728
5.7119
5.50499
5.52911
6.02937
6.26402
5.92194
5.54696
1.39997
1.39997
1.39997
1.39997
1.39997
1.39997
1.39997
1.39997
1.39997
1.39997
1.39997
1.39997
1.39997
1.39997
1.39997
2.93169
5.20421
5.47673
5.61182
5.6415
5.60702
5.50541
5.55224
5.77786
5.9184
5.96753
5.87497
5.70483
5.85495
6.02137
1.39997
1.39997
1.39997
1.39997
1.39997
1.39997
1.39997
1.39997
1.39997
1.39997
1.39997
1.39997
1.39997
1.39997
1.39997
2.88916
5.2019
5.51388
5.63382
5.6828
5.56086
5.41934
5.3989
5.6236
6.21321
6.3156
5.68191
5.38626
5.7634
6.4005
1.39997
1.39997
1.39997
1.39997
1.39997
1.39997
1.39997
1.39997
1.39997
1.39997
1.39997
1.39997
1.39997
1.39997
1.39997
2.87688
5.29065
5.48261
5.51592
5.53824
5.54925
5.5198
5.62084
5.85975
5.99436
5.94485
5.67159
5.41046
5.6869
6.33441
1.39997
1.39997
1.39997
1.39997
1.39997
1.39997
1.39997
1.39997
1.39997
1.39997
1.39997
1.39997
1.39997
1.39997
1.39997
2.81425
5.28894
5.43879
5.39039
5.38353
5.52397
5.78813
5.92198
5.88169
5.58023
5.49859
5.79923
5.86546
5.86967
5.78647
1.39997
1.39997
1.39997
1.39997
1.39997
1.39997
1.39997
1.39997
1.39997
1.39997
1.39997
1.39997
1.39997
1.39997
1.39997
2.72024
5.22892
5.35999
5.32675
5.36654
5.5807
5.86833
6.0382
5.8223
5.40446
5.36289
5.80453
6.25947
6.00714
5.42844
1.39997
1.39997
1.39997
1.39997
1.39997
1.39997
1.39997
1.39997
1.39997
1.39997
1.39997
1.39997
1.39997
1.39997
1.39997
2.61009
5.10281
5.34616
5.46007
5.63803
5.69963
5.71663
5.67315
5.57608
5.60786
5.6623
6.05391
6.28551
5.90536
5.4682
1.39997
1.39997
1.39997
1.39997
1.39997
1.39997
1.39997
1.39997
1.39997
1.39997
1.39997
1.39997
1.39997
1.39997
1.39997
2.51292
5.00596
5.36342
5.62609
5.7457
5.75828
5.57668
5.30694
5.41149
5.7996
6.11052
6.04278
5.90269
5.71927
5.84484
1.39997
1.39997
1.39997
1.39997
1.39997
1.39997
1.39997
1.39997
1.39997
1.39997
1.39997
1.39997
1.39997
1.39997
1.39997
2.46862
5.04369
5.52821
5.60539
5.69392
5.58185
5.39693
5.30728
5.48435
5.96214
6.16358
5.88484
5.30328
5.64756
6.1881
1.39997
1.39997
1.39997
1.39997
1.39997
1.39997
1.39997
1.39997
1.39997
1.39997
1.39997
1.39997
1.39997
1.39997
1.39997
2.4204
5.15645
5.54237
5.51462
5.40903
5.3951
5.48245
5.69626
5.92286
5.8984
5.86017
5.4351
5.34046
5.61617
6.18104
1.39997
1.39997
1.39997
1.39997
1.39997
1.39997
1.39997
1.39997
1.39997
1.39997
1.39997
1.39997
1.39997
1.39997
1.39997
2.31559
5.08577
5.53616
5.35711
5.26139
5.26542
5.55993
5.99917
6.10106
5.9646
5.38931
5.21324
5.38029
5.65042
6.10833
1.39997
1.39997
1.39997
1.39997
1.39997
1.39997
1.39997
1.39997
1.39997
1.39997
1.39997
1.39997
1.39997
1.39997
1.39997
2.18568
4.96442
5.33782
5.30696
5.32953
5.53367
5.79704
5.89068
5.92412
5.43453
5.35478
5.42191
5.69164
5.82728
5.46306
1.39997
1.39997
1.39997
1.39997
1.39997
1.39997
1.39997
1.39997
1.39997
1.39997
1.39997
1.39997
1.39997
1.39997
1.39997
2.03617
4.76823
5.2062
5.30051
5.62639
5.81459
5.79068
5.70464
5.34442
5.29195
5.49111
6.14483
6.16678
5.77574
5.25505
1.39997
1.39997
1.39997
1.39997
1.39997
1.39997
1.39997
1.39997
1.39997
1.39997
1.39997
1.39997
1.39997
1.39997
1.39997
1.93288
4.62543
5.26583
5.55267
5.72783
5.80415
5.79281
5.34592
5.13616
5.1443
5.76239
6.2816
6.46148
5.64649
5.10691
1.39997
1.39997
1.39997
1.39997
1.39997
1.39997
1.39997
1.39997
1.39997
1.39997
1.39997
1.39997
1.39997
1.39997
1.39997
1.86444
4.61294
5.5707
5.64684
5.64927
5.62159
5.35949
5.31609
5.37261
5.81715
6.01723
6.06967
5.83204
5.59665
5.50932
1.39997
1.39997
1.39997
1.39997
1.39997
1.39997
1.39997
1.39997
1.39997
1.39997
1.39997
1.39997
1.39997
1.39997
1.39997
1.77037
4.76334
5.68576
5.64976
5.58237
5.24491
5.13949
5.24473
5.84621
6.15321
6.04504
5.45023
5.00845
5.46629
6.08711
1.39997
1.39997
1.39997
1.39997
1.39997
1.39997
1.39997
1.39997
1.39997
1.39997
1.39997
1.39997
1.39997
1.39997
1.39997
1.65552
4.69734
5.62859
5.49852
5.27069
5.2071
5.25208
5.67921
6.02406
6.11363
5.77096
4.96983
4.84746
5.2981
6.19542
1.39997
1.39997
1.39997
1.39997
1.39997
1.39997
1.39997
1.39997
1.39997
1.39997
1.39997
1.39997
1.39997
1.39997
1.39997
1.50123
4.4809
5.51028
5.2223
5.14161
5.27754
5.76324
5.92818
5.8445
5.64067
5.20428
5.02342
5.05371
5.45308
6.10539
1.39997
1.39997
1.39997
1.39997
1.39997
1.39997
1.39997
1.39997
1.39997
1.39997
1.39997
1.39997
1.39997
1.39997
1.39997
1.43333
4.16878
5.29756
5.12684
5.21628
5.67456
5.91746
5.999
5.72348
4.97735
5.0309
5.15783
5.56254
5.75098
5.6983
1.39997
1.39997
1.39997
1.39997
1.39997
1.39997
1.39997
1.39997
1.39997
1.39997
1.39997
1.39997
1.39997
1.39997
1.39997
1.41179
4.02796
5.18228
5.38167
5.72026
5.78414
5.73863
5.59985
5.09955
5.06344
5.21434
6.05164
6.15995
5.69615
4.91035
1.39997
1.39997
1.39997
1.39997
1.39997
1.39997
1.39997
1.39997
1.39997
1.39997
1.39997
1.39997
1.39997
1.39997
1.39997
1.40187
3.89917
5.31409
5.62409
5.75259
5.80785
5.64985
4.98902
4.87756
4.90229
5.69613
6.29389
6.17927
5.49742
4.65423
1.39997
1.39997
1.39997
1.39997
1.39997
1.39997
1.39997
1.39997
1.39997
1.39997
1.39997
1.39997
1.39997
1.39997
1.39997
1.39995
3.83062
5.46843
5.55032
5.64793
5.59198
5.09445
4.98862
5.07581
5.72787
5.90913
6.05619
5.95962
4.85098
4.4899
1.39997
1.39997
1.39997
1.39997
1.39997
1.39997
1.39997
1.39997
1.39997
1.39997
1.39997
1.39997
1.39997
1.39997
1.39997
1.39992
3.6555
5.43071
5.49958
5.34861
5.04802
4.9593
5.03362
5.83227
6.07921
5.84147
5.15612
4.51928
4.70994
4.34438
1.39997
1.39997
1.39997
1.39997
1.39997
1.39997
1.39997
1.39997
1.39997
1.39997
1.39997
1.39997
1.39997
1.39997
1.39997
1.39995
3.35868
5.1925
5.13191
5.05376
4.99041
5.16317
5.74413
5.89104
5.9517
5.57677
4.48946
4.31403
4.72013
5.44235
1.39997
1.39997
1.39997
1.39997
1.39997
1.39997
1.39997
1.39997
1.39997
1.39997
1.39997
1.39997
1.39997
1.39997
1.39997
1.39997
2.82475
4.99122
5.17556
5.27127
5.39272
5.49858
5.5181
5.37908
5.16686
5.04244
5.08766
5.05408
4.85869
4.27139
1.39997
1.39997
1.39997
1.39997
1.39997
1.39997
1.39997
1.39997
1.39997
1.39997
1.39997
1.39997
1.39997
1.39997
1.39997
1.39997
2.02625
4.79053
5.34168
5.3194
5.31801
5.29134
5.22865
5.17762
5.15548
5.16816
5.09832
4.87436
4.42556
3.58521
1.39997
1.39997
1.39997
1.39997
1.39997
1.39997
1.39997
1.39997
1.39997
1.39997
1.39997
1.39997
1.39997
1.39997
1.39997
1.39997
1.46718
3.98065
5.27751
5.2373
5.20788
5.19506
5.17514
5.14885
5.08613
4.96399
4.77575
4.51068
4.14269
3.59958
1.39997
1.39997
1.39997
1.39997
1.39997
1.39997
1.39997
1.39997
1.39997
1.39997
1.39997
1.39997
1.39997
1.39997
1.39997
1.39997
1.40023
2.79334
5.07405
5.21211
5.19047
5.17063
5.1207
5.03695
4.92775
4.79817
4.62732
4.4038
4.02984
3.61729
1.39997
1.39997
1.39997
1.39997
1.39997
1.39997
1.39997
1.39997
1.39997
1.39997
1.39997
1.39997
1.39997
1.39997
1.39997
1.39997
1.39997
1.6635
4.56512
5.27044
5.19306
5.12414
5.04591
4.948
4.83191
4.69525
4.52534
4.29897
3.96101
3.61186
1.39997
1.39997
1.39997
1.39997
1.39997
1.39997
1.39997
1.39997
1.39997
1.39997
1.39997
1.39997
1.39997
1.39997
1.39997
1.39997
1.39997
1.40661
3.3686
5.09512
5.09132
5.0502
4.9802
4.88455
4.76042
4.60692
4.43427
4.21319
3.93365
3.63097
1.39997
1.39997
1.39997
1.39997
1.39997
1.39997
1.39997
1.39997
1.39997
1.39997
1.39997
1.39997
1.39997
1.39997
1.39997
1.39997
1.39997
1.39995
1.9189
4.66743
5.09254
5.00347
4.93041
4.83353
4.71027
4.56025
4.38294
4.17468
3.93018
3.66044
1.39997
1.39997
1.39997
1.39997
1.39997
1.39997
1.39997
1.39997
1.39997
1.39997
1.39997
1.39997
1.39997
1.39997
1.39997
1.39997
1.39997
1.39996
1.42755
3.40183
4.94324
4.93118
4.86368
4.77976
4.66614
4.52523
4.35288
4.15693
3.93634
3.69707
1.39997
1.39997
1.39997
1.39997
1.39997
1.39997
1.39997
1.39997
1.39997
1.39997
1.39997
1.39997
1.39997
1.39997
1.39997
1.39997
1.39997
1.39997
1.39999
1.81807
4.42887
4.94962
4.84654
4.75575
4.63432
4.49696
4.33555
4.15472
3.95397
3.74143
1.39997
1.39997
1.39997
1.39997
1.39997
1.39997
1.39997
1.39997
1.39997
1.39997
1.39997
1.39997
1.39997
1.39997
1.39997
1.39997
1.39997
1.39997
1.39997
1.41653
2.9903
4.79169
4.78877
4.70239
4.59334
4.46813
4.31924
4.15477
3.97743
3.7859
1.39997
1.39997
1.39997
1.39997
1.39997
1.39997
1.39997
1.39997
1.39997
1.39997
1.39997
1.39997
1.39997
1.39997
1.39997
1.39997
1.39997
1.39997
1.39997
1.4
1.65551
3.88806
4.81395
4.71021
4.6019
4.47396
4.32611
4.1707
4.00904
3.83022
1.39997
1.39997
1.39997
1.39997
1.39997
1.39997
1.39997
1.39997
1.39997
1.39997
1.39997
1.39997
1.39997
1.39997
1.39997
1.39997
1.39997
1.39997
1.39997
1.39997
1.40576
2.14389
4.36747
4.72149
4.61685
4.49196
4.3485
4.19892
4.04615
3.8736
1.39997
1.39997
1.39997
1.39997
1.39997
1.39997
1.39997
1.39997
1.39997
1.39997
1.39997
1.39997
1.39997
1.39997
1.39997
1.39997
1.39997
1.39997
1.39997
1.39997
1.39999
1.45188
2.82516
4.61331
4.66115
4.53085
4.39402
4.24507
4.09647
3.92479
1.39997
1.39997
1.39997
1.39997
1.39997
1.39997
1.39997
1.39997
1.39997
1.39997
1.39997
1.39997
1.39997
1.39997
1.39997
1.39997
1.39997
1.39997
1.39997
1.39997
1.39997
1.40039
1.60477
3.48376
4.62932
4.57123
4.43241
4.28593
4.14135
3.97528
1.39997
1.39997
1.39997
1.39997
1.39997
1.39997
1.39997
1.39997
1.39997
1.39997
1.39997
1.39997
1.39997
1.39997
1.39997
1.39997
1.39997
1.39997
1.39997
1.39997
1.39997
1.39997
1.40407
1.87666
3.84647
4.56968
4.47617
4.33794
4.19857
4.04366
1.39997
1.39997
1.39997
1.39997
1.39997
1.39997
1.39997
1.39997
1.39997
1.39997
1.39997
1.39997
1.39997
1.39997
1.39997
1.39997
1.39997
1.39997
1.39997
1.39997
1.39997
1.39997
1.39998
1.42045
2.16543
4.06009
4.50773
4.39968
4.26088
4.12091
1.39997
1.39997
1.39997
1.39997
1.39997
1.39997
1.39997
1.39997
1.39997
1.39997
1.39997
1.39997
1.39997
1.39997
1.39997
1.39997
1.39997
1.39997
1.39997
1.39997
1.39997
1.39997
1.39997
1.40011
1.45401
2.44024
4.16513
4.44637
4.33322
4.19598
1.39997
1.39997
1.39997
1.39997
1.39997
1.39997
1.39997
1.39997
1.39997
1.39997
1.39997
1.39997
1.39997
1.39997
1.39997
1.39997
1.39997
1.39997
1.39997
1.39997
1.39997
1.39997
1.39997
1.39997
1.40054
1.50293
2.66135
4.19261
4.38485
4.27536
1.39997
1.39997
1.39997
1.39997
1.39997
1.39997
1.39997
1.39997
1.39997
1.39997
1.39997
1.39997
1.39997
1.39997
1.39997
1.39997
1.39997
1.39997
1.39997
1.39997
1.39997
1.39997
1.39997
1.39997
1.39997
1.4015
1.55751
2.80764
4.1721
4.30979
1.39997
1.39997
1.39997
1.39997
1.39997
1.39997
1.39997
1.39997
1.39997
1.39997
1.39997
1.39997
1.39997
1.39997
1.39997
1.39997
1.39997
1.39997
1.39997
1.39997
1.39997
1.39997
1.39997
1.39997
1.39997
1.39997
1.40307
1.60424
2.89068
4.13905
1.39997
1.39997
1.39997
1.39997
1.39997
1.39997
1.39997
1.39997
1.39997
1.39997
1.39997
1.39997
1.39997
1.39997
1.39997
1.39997
1.39997
1.39997
1.39997
1.39997
1.39997
1.39997
1.39997
1.39997
1.39997
1.39997
1.39998
1.4051
1.63478
3.02796
1.39997
1.39997
1.39997
1.39997
1.39997
1.39997
1.39997
1.39997
1.39997
1.39997
1.39997
1.39997
1.39997
1.39997
1.39997
1.39997
1.39997
1.39997
1.39997
1.39997
1.39997
1.39997
1.39997
1.39997
1.39997
1.39997
1.39997
1.39999
1.40565
1.72966
1.39997
1.39997
1.39997
1.39997
1.39997
1.39997
1.39997
1.39997
1.39997
1.39997
1.39997
1.39997
1.39997
1.39997
1.39997
1.39997
1.39997
1.39997
1.39997
1.39997
1.39997
1.39997
1.39997
1.39997
1.39997
1.39997
1.39997
1.39997
1.4
1.41096
1.39997
1.39997
1.39997
1.39997
1.39997
1.39997
1.39997
1.39997
1.39997
1.39997
1.39997
1.39997
1.39997
1.39997
1.39997
1.39997
1.39997
1.39997
1.39997
1.39997
1.39997
1.39997
1.39997
1.39997
1.39997
1.39997
1.39997
1.39997
1.39997
1.39999
1.39997
1.39997
1.39997
1.39997
1.39997
1.39997
1.39997
1.39997
1.39997
1.39997
1.39997
1.39997
1.39997
1.39997
1.39997
1.39997
1.39997
1.39997
1.39997
1.39997
1.39997
1.39997
1.39997
1.39997
1.39997
1.39997
1.39997
1.39997
1.39997
1.39997
1.39997
1.39997
1.39997
1.39997
1.39997
1.39997
1.39997
1.39997
1.39997
1.39997
1.39997
1.39997
1.39997
1.39997
1.39997
1.39997
1.39997
1.39997
1.39997
1.39997
1.39997
1.39997
1.39997
1.39997
1.39997
1.39997
1.39997
1.39997
1.39997
1.39997
1.39997
1.39997
1.39997
1.39997
1.39997
1.39997
1.39997
1.39997
1.39997
1.39997
1.39997
1.39997
1.39997
1.39997
1.39997
1.39997
1.39997
1.39997
1.39997
1.39997
1.39997
1.39997
1.39997
1.39997
1.39997
1.39997
1.39997
1.39997
1.39997
1.39997
1.39997
1.39997
1.39997
1.39997
1.39997
1.39997
1.39997
1.39997
1.39997
1.39997
1.39997
1.39997
1.39997
1.39997
1.39997
1.39997
1.39997
1.39997
1.39997
1.39997
1.39997
1.39997
1.39997
1.39997
1.39997
1.39997
1.39997
1.39997
1.39997
1.39997
1.39997
1.39997
1.39997
1.39997
1.39997
1.39997
1.39997
1.39997
1.39997
1.39997
1.39997
1.39997
1.39997
1.39997
1.39997
1.39997
1.39997
1.39997
1.39997
1.39997
1.39997
1.39997
1.39997
1.39997
1.39997
1.39997
1.39997
1.39997
1.39997
1.39997
1.39997
1.39997
1.39997
1.39997
1.39997
1.39997
1.39997
1.39997
1.39997
1.39997
1.39997
1.39997
1.39997
1.39997
1.39997
1.39997
1.39997
1.39997
1.39997
1.39997
1.39997
1.39997
1.39997
1.39997
1.39997
1.39997
1.39997
1.39997
1.39997
1.39997
0.971594
0.448323
0.606442
0.819354
0.905534
0.956761
1.00127
1.26472
2.17891
2.53905
2.58279
2.58238
2.59613
2.5756
2.53719
2.48871
2.43918
2.38547
2.33246
2.27348
2.21195
2.15101
2.07767
2.00584
1.93334
1.86199
1.79518
1.73455
1.69126
1.6132
1.76211
0.725108
0.740732
0.81583
0.901577
0.981411
1.0101
1.24756
2.19046
2.58111
2.61701
2.60575
2.61513
2.5982
2.55937
2.50937
2.45981
2.41237
2.35997
2.29756
2.22651
2.15499
2.08485
2.01234
1.94307
1.87598
1.81044
1.74573
1.696
1.61416
2.19985
1.06439
0.849283
0.851445
0.93655
1.0419
1.06855
1.27408
2.26583
2.70109
2.71122
2.70219
2.7075
2.69532
2.65543
2.59968
2.54447
2.49188
2.43338
2.37213
2.2944
2.21045
2.12475
2.0399
1.96319
1.89643
1.83676
1.77631
1.72285
1.63157
2.48188
1.47525
1.08328
0.909096
0.942633
1.03712
1.08785
1.25376
2.35697
2.94093
2.89319
2.85888
2.85224
2.83534
2.79203
2.72768
2.66169
2.59573
2.52946
2.45908
2.37878
2.294
2.20376
2.11222
2.02318
1.9415
1.87038
1.80369
1.75114
1.662
2.68913
1.80922
1.3153
0.979497
0.994227
1.02501
1.07187
1.21827
2.43086
3.21865
3.08299
3.01748
2.99237
2.95224
2.8966
2.83058
2.76482
2.69996
2.6287
2.5481
2.45861
2.36891
2.27409
2.17982
2.0894
2.00564
1.92714
1.84873
1.78714
1.69395
2.84834
2.07865
1.53897
1.15143
1.08698
1.03032
1.04534
1.13937
2.44907
3.49706
3.24161
3.10918
3.07582
3.04383
2.98139
2.9136
2.84034
2.766
2.68694
2.6005
2.51253
2.42529
2.33139
2.23657
2.14305
2.05609
1.97481
1.89488
1.83156
1.73447
2.9726
2.28523
1.73086
1.33602
1.17211
1.02849
1.03866
1.19558
2.30794
3.54602
3.36934
3.16033
3.08691
3.06897
3.01992
2.95846
2.88044
2.79557
2.7085
2.62154
2.53857
2.4562
2.36589
2.27285
2.1787
2.09032
2.00667
1.92702
1.86568
1.76814
3.08141
2.45426
1.89047
1.51677
1.28999
1.06047
1.07432
1.29893
2.06209
3.4375
3.42097
3.19805
3.09072
3.06485
3.01745
2.95411
2.87709
2.79453
2.71037
2.62701
2.54623
2.46581
2.37871
2.28877
2.19624
2.11006
2.02844
1.9535
1.89369
1.79355
3.1818
2.59216
2.02725
1.68427
1.40225
1.13061
1.14216
1.498
1.90465
3.05813
3.43005
3.21739
3.10194
3.05613
3.00641
2.94198
2.86903
2.79231
2.71351
2.63293
2.55023
2.46609
2.37801
2.29064
2.20176
2.11968
2.04115
1.97232
1.91373
1.81079
3.2813
2.7006
2.15626
1.83074
1.51033
1.23949
1.27072
1.784
1.93709
2.55898
3.34597
3.24011
3.11932
3.05245
2.99997
2.93661
2.86959
2.79975
2.72462
2.64371
2.55672
2.46674
2.37549
2.28913
2.20452
2.12683
2.05027
1.9855
1.92485
1.81969
3.3766
2.79184
2.2804
1.96235
1.61309
1.34987
1.47739
2.08575
2.06607
2.16792
3.04071
3.26239
3.15091
3.06685
3.00692
2.94436
2.88069
2.81445
2.74011
2.65765
2.56689
2.47208
2.37849
2.29303
2.21157
2.13591
2.0593
1.99534
1.92908
1.82387
3.46494
2.86535
2.40691
2.07623
1.70808
1.4729
1.79237
2.32311
2.22535
2.15287
2.60141
3.18116
3.19374
3.08861
3.01607
2.95892
2.902
2.83414
2.75579
2.67052
2.57828
2.48162
2.38674
2.30126
2.22137
2.14653
2.07054
2.00396
1.92879
1.82742
3.54194
2.92971
2.53628
2.16696
1.80337
1.67302
2.16275
2.46693
2.37595
2.20659
2.27428
2.89951
3.17914
3.12632
3.03629
2.9736
2.91726
2.84578
2.7642
2.67839
2.58872
2.49629
2.40451
2.31792
2.23534
2.15779
2.08166
2.0101
1.92696
1.83719
3.60701
3.00288
2.65708
2.23135
1.90416
2.00406
2.5617
2.56956
2.47978
2.30355
2.23952
2.52143
3.03621
3.14085
3.05196
2.98473
2.92186
2.84772
2.76571
2.68109
2.59572
2.51
2.42393
2.33742
2.2509
2.16861
2.0896
2.00999
1.92678
1.85856
3.67088
3.09681
2.76076
2.29591
2.04353
2.43309
2.86882
2.71176
2.56924
2.40942
2.26537
2.28048
2.70963
3.07143
3.06895
2.98772
2.91499
2.84164
2.7627
2.68142
2.60049
2.51992
2.43781
2.35188
2.26366
2.17761
2.09659
2.00475
1.9321
1.89728
3.73259
3.21179
2.83722
2.38327
2.27125
2.90338
3.0909
2.88693
2.67533
2.50826
2.33806
2.25796
2.37642
2.8293
3.02515
2.97269
2.8986
2.82898
2.75848
2.68194
2.60206
2.52208
2.441
2.35634
2.27185
2.18415
2.10024
2.00258
1.94219
1.96686
3.79784
3.3459
2.88929
2.48937
2.67011
3.33143
3.2404
3.02553
2.79445
2.61056
2.43344
2.27258
2.21947
2.46842
2.86998
2.93876
2.87796
2.81739
2.75292
2.68613
2.61829
2.53654
2.44617
2.35986
2.2793
2.18922
2.09853
2.00604
1.96396
2.08114
3.88533
3.47552
2.94254
2.64572
3.20421
3.68181
3.40973
3.1552
2.91903
2.71306
2.52897
2.33879
2.20638
2.22394
2.5538
2.83249
2.85904
2.80299
2.74354
2.68325
2.60456
2.52105
2.43812
2.35445
2.2686
2.19226
2.09777
2.02848
2.00974
2.24209
3.98986
3.57577
3.03656
2.96089
3.73928
3.89007
3.59676
3.2847
3.03073
2.81058
2.61378
2.41848
2.22686
2.13906
2.23535
2.58767
2.78682
2.76946
2.73278
2.67505
2.59204
2.51018
2.43962
2.36527
2.28096
2.17468
2.09521
2.05525
2.10666
2.43675
4.10495
3.67239
3.16856
3.522
4.23723
4.04822
3.7376
3.41729
3.14183
2.90181
2.68747
2.49018
2.28563
2.1327
2.09021
2.27629
2.6172
2.73148
2.70321
2.64084
2.57602
2.50832
2.42989
2.34476
2.2537
2.15591
2.103
2.105
2.31205
2.62756
4.11132
3.79965
3.37399
4.20916
4.56345
4.2076
3.869
3.54127
3.24399
2.98424
2.75185
2.54659
2.35034
2.15496
2.05122
2.06171
2.32771
2.63534
2.65568
2.59967
2.54016
2.48075
2.41371
2.33162
2.23632
2.15823
2.1278
2.23932
2.58025
2.72356
3.89853
3.72103
3.86169
4.86356
4.78423
4.35201
3.97801
3.64328
3.33576
3.05934
2.81285
2.59542
2.40365
2.20896
2.04247
1.96571
2.05143
2.38791
2.57391
2.54937
2.50405
2.44379
2.3802
2.29792
2.21465
2.1582
2.19267
2.48452
2.80738
2.79095
3.32599
3.56093
4.58525
5.29437
4.89298
4.47338
4.0854
3.73782
3.41896
3.12729
2.86748
2.63821
2.44075
2.25248
2.06201
1.94014
1.8977
2.08847
2.40359
2.49803
2.45988
2.40168
2.33784
2.25112
2.19116
2.18118
2.38327
2.73442
2.89062
2.83403
2.5059
3.62232
5.29841
5.46703
4.98835
4.5848
4.18404
3.81718
3.48411
3.18063
2.90926
2.67294
2.46732
2.28206
2.09742
1.9265
1.82593
1.85614
2.12814
2.39441
2.3956
2.35459
2.2896
2.21217
2.1805
2.27854
2.66679
2.92601
2.93447
2.85433
2.15878
4.14579
5.96474
5.61554
5.07731
4.67682
4.26549
3.88281
3.53486
3.22024
2.94033
2.69384
2.48047
2.29297
2.11072
1.94093
1.79912
1.74836
1.86475
2.15968
2.31913
2.29984
2.24044
2.19406
2.21835
2.50377
2.87043
2.97441
2.9531
2.86232
1.82744
4.64789
6.48197
5.73473
5.17157
4.74942
4.34078
3.94915
3.59246
3.27209
2.98865
2.73864
2.52012
2.32562
2.14299
1.95832
1.79229
1.69791
1.7013
1.89968
2.19771
2.24234
2.1886
2.19263
2.3537
2.78503
3.00356
2.98899
2.95223
2.86123
1.57
4.96737
6.65631
5.75615
5.24059
4.7591
4.30964
3.90413
3.54268
3.22431
2.94464
2.69824
2.47805
2.28396
2.11452
1.96323
1.82276
1.67969
1.63162
1.68477
1.95896
2.14699
2.15675
2.25271
2.60321
2.95465
3.01418
2.99522
2.94887
2.85611
1.46086
4.78348
6.37607
5.649
5.17519
4.72723
4.27569
3.87134
3.51685
3.20411
2.92761
2.68354
2.46399
2.26817
2.10605
1.96563
1.82433
1.68434
1.59909
1.54884
1.72278
2.0098
2.16044
2.46839
2.85922
3.02573
3.01126
2.97047
2.92709
2.84712
1.53651
4.51309
6.04238
5.50427
5.06167
4.62934
4.21864
3.8352
3.49183
3.18512
2.91267
2.67028
2.45513
2.26482
2.10175
1.9616
1.82636
1.69928
1.57559
1.49495
1.56253
1.86946
2.28448
2.69061
2.98082
3.03441
2.99372
2.95137
2.91301
2.84917
1.58052
4.39377
5.87749
5.44871
5.06265
4.6314
4.20967
3.82919
3.4848
3.17898
2.90802
2.66513
2.45218
2.26636
2.10012
1.95902
1.82919
1.71263
1.56317
1.46173
1.47807
1.75699
2.41166
2.9412
3.10484
3.05093
2.9886
2.9425
2.89864
2.83321
)
;

boundaryField
{
    inlet
    {
        type            calculated;
        value           uniform 1.39997;
    }
    outlet
    {
        type            calculated;
        value           nonuniform List<scalar> 
30
(
1.61321
1.61433
1.6322
1.66244
1.69436
1.73479
1.76821
1.79353
1.81073
1.81964
1.82386
1.82744
1.83727
1.85863
1.89734
1.96711
2.0817
2.24312
2.43771
2.62811
2.72343
2.79045
2.83369
2.85423
2.86279
2.8622
2.85721
2.8479
2.84987
2.83336
)
;
    }
    top
    {
        type            symmetryPlane;
    }
    bottom
    {
        type            symmetryPlane;
    }
    step
    {
        type            calculated;
        value           nonuniform List<scalar> 
60
(
5.59994
6.02439
6.37375
6.19871
5.79278
5.46328
5.54696
6.02137
6.4005
6.33441
5.78647
5.42844
5.4682
5.84484
6.1881
6.18104
6.10833
5.46306
5.25505
5.10691
5.50932
6.08711
6.19542
6.10539
5.6983
4.91035
4.65423
4.4899
4.34438
5.44235
0.971594
0.448323
0.606442
0.819354
0.905534
0.956761
1.00127
1.26472
2.17891
2.53905
2.58279
2.58238
2.59613
2.5756
2.53719
2.48871
2.43918
2.38547
2.33246
2.27348
2.21195
2.15101
2.07767
2.00584
1.93334
1.86199
1.79518
1.73455
1.69126
1.6132
)
;
    }
    defaultFaces
    {
        type            empty;
    }
}


// ************************************************************************* //
