/*--------------------------------*- C++ -*----------------------------------*\
  =========                 |
  \\      /  F ield         | OpenFOAM: The Open Source CFD Toolbox
   \\    /   O peration     | Website:  https://openfoam.org
    \\  /    A nd           | Version:  6.0
     \\/     M anipulation  |
\*---------------------------------------------------------------------------*/
FoamFile
{
    version     2.0;
    format      ascii;
    class       volScalarField;
    location    "4.0001063";
    object      T;
}
// * * * * * * * * * * * * * * * * * * * * * * * * * * * * * * * * * * * * * //

dimensions      [0 0 0 1 0 0 0];

internalField   nonuniform List<scalar> 
2700
(
1
1
1
1
1
1
1
1
1
1
1
1
1
1
1
2.00724
2.6899
2.70333
2.70603
2.72455
2.76339
2.8003
2.80172
2.7606
2.71269
2.73385
2.83729
2.89352
2.83574
2.75248
1
1
1
1
1
1
1
1
1
1
1
1
1
1
1
2.00701
2.69069
2.72204
2.7369
2.74543
2.74617
2.74883
2.76917
2.79129
2.80086
2.79343
2.79349
2.79374
2.81185
2.83288
1
1
1
1
1
1
1
1
1
1
1
1
1
1
1
1.99475
2.67712
2.73301
2.75075
2.75735
2.73987
2.7212
2.72309
2.78157
2.85759
2.86162
2.76355
2.71228
2.78184
2.89591
1
1
1
1
1
1
1
1
1
1
1
1
1
1
1
1.99407
2.68369
2.72528
2.7429
2.74991
2.74403
2.72598
2.73947
2.79565
2.83462
2.82618
2.77173
2.69737
2.77528
2.86249
1
1
1
1
1
1
1
1
1
1
1
1
1
1
1
1.99129
2.69179
2.70898
2.71654
2.73712
2.75997
2.77874
2.78472
2.77593
2.75553
2.77088
2.80103
2.80924
2.80383
2.78366
1
1
1
1
1
1
1
1
1
1
1
1
1
1
1
1.97767
2.69039
2.70393
2.7009
2.70843
2.75194
2.80781
2.8176
2.75706
2.71475
2.71319
2.80428
2.89555
2.81381
2.71728
1
1
1
1
1
1
1
1
1
1
1
1
1
1
1
1.95563
2.67818
2.70669
2.71231
2.73884
2.76257
2.78109
2.77938
2.76282
2.72103
2.72407
2.82289
2.86616
2.8071
2.73327
1
1
1
1
1
1
1
1
1
1
1
1
1
1
1
1.92492
2.66015
2.71968
2.74614
2.75219
2.74517
2.725
2.73275
2.77471
2.79871
2.80761
2.79111
2.75929
2.79289
2.82198
1
1
1
1
1
1
1
1
1
1
1
1
1
1
1
1.91004
2.65822
2.72541
2.74934
2.75917
2.73564
2.70714
2.70118
2.74267
2.85296
2.86987
2.7531
2.6955
2.77424
2.89198
1
1
1
1
1
1
1
1
1
1
1
1
1
1
1
1.90534
2.67391
2.71791
2.7254
2.73022
2.73273
2.72623
2.74486
2.78784
2.81015
2.80037
2.74967
2.69921
2.75806
2.87766
1
1
1
1
1
1
1
1
1
1
1
1
1
1
1
1.87949
2.6691
2.70749
2.69933
2.69855
2.72599
2.77738
2.80092
2.78996
2.73025
2.71259
2.77183
2.78293
2.79145
2.77372
1
1
1
1
1
1
1
1
1
1
1
1
1
1
1
1.8351
2.65127
2.69043
2.68558
2.69374
2.73602
2.79123
2.82104
2.77772
2.6936
2.68385
2.77121
2.8575
2.81667
2.70295
1
1
1
1
1
1
1
1
1
1
1
1
1
1
1
1.78551
2.62177
2.68608
2.71012
2.74529
2.75813
2.76044
2.75047
2.72987
2.73211
2.74084
2.81679
2.86035
2.796
2.70881
1
1
1
1
1
1
1
1
1
1
1
1
1
1
1
1.73949
2.59848
2.6869
2.73993
2.76433
2.76724
2.73185
2.67682
2.69437
2.76729
2.82478
2.8113
2.78367
2.75858
2.78013
1
1
1
1
1
1
1
1
1
1
1
1
1
1
1
1.723
2.60429
2.71725
2.73411
2.75233
2.73156
2.69506
2.67556
2.70648
2.79665
2.83273
2.77986
2.66861
2.74277
2.84331
1
1
1
1
1
1
1
1
1
1
1
1
1
1
1
1.701
2.62016
2.71729
2.71315
2.69431
2.69245
2.70996
2.74942
2.79098
2.78281
2.77242
2.6905
2.67283
2.73497
2.83988
1
1
1
1
1
1
1
1
1
1
1
1
1
1
1
1.64523
2.59501
2.71266
2.68062
2.66303
2.6645
2.72323
2.80641
2.82237
2.79039
2.6818
2.6423
2.67497
2.73963
2.8215
1
1
1
1
1
1
1
1
1
1
1
1
1
1
1
1.5687
2.55921
2.67192
2.66948
2.67461
2.71753
2.7681
2.7841
2.78585
2.68991
2.67352
2.68203
2.73535
2.77305
2.70215
1
1
1
1
1
1
1
1
1
1
1
1
1
1
1
1.48224
2.51068
2.64393
2.66448
2.73193
2.7689
2.76377
2.7438
2.67209
2.65853
2.69377
2.8199
2.82496
2.76256
2.65777
1
1
1
1
1
1
1
1
1
1
1
1
1
1
1
1.40668
2.47117
2.65296
2.71138
2.74828
2.76371
2.7598
2.67307
2.62783
2.62217
2.74495
2.84001
2.8745
2.73367
2.62382
1
1
1
1
1
1
1
1
1
1
1
1
1
1
1
1.35733
2.45857
2.70502
2.72431
2.72701
2.72191
2.67387
2.66518
2.67164
2.75605
2.79256
2.79718
2.7548
2.72236
2.70163
1
1
1
1
1
1
1
1
1
1
1
1
1
1
1
1.2778
2.45388
2.71294
2.71315
2.70634
2.64544
2.62665
2.64567
2.76444
2.81681
2.79595
2.67942
2.58955
2.6944
2.81457
1
1
1
1
1
1
1
1
1
1
1
1
1
1
1
1.16561
2.39834
2.68733
2.67068
2.638
2.63345
2.64573
2.7317
2.79483
2.80777
2.74116
2.57955
2.55093
2.65794
2.8308
1
1
1
1
1
1
1
1
1
1
1
1
1
1
1
1.06378
2.34768
2.65668
2.6118
2.60402
2.63896
2.7431
2.7754
2.75715
2.71153
2.62809
2.58613
2.58809
2.68481
2.80481
1
1
1
1
1
1
1
1
1
1
1
1
1
1
1
1.01723
2.29544
2.61781
2.58878
2.61245
2.7114
2.7643
2.78126
2.72787
2.57821
2.58996
2.60524
2.69506
2.74228
2.72242
1
1
1
1
1
1
1
1
1
1
1
1
1
1
1
1.00518
2.27344
2.59916
2.63949
2.70838
2.7247
2.72082
2.69606
2.60247
2.59272
2.62094
2.78514
2.80722
2.73091
2.56759
1
1
1
1
1
1
1
1
1
1
1
1
1
1
1
1.00059
2.2562
2.64287
2.69145
2.71222
2.72213
2.69481
2.57346
2.55104
2.54716
2.71509
2.81888
2.80433
2.68628
2.50033
1
1
1
1
1
1
1
1
1
1
1
1
1
1
1
0.999992
2.24172
2.69032
2.68764
2.69462
2.67958
2.58712
2.57041
2.58406
2.71984
2.75349
2.76442
2.74096
2.54985
2.45036
1
1
1
1
1
1
1
1
1
1
1
1
1
1
1
0.999987
2.18914
2.69771
2.69841
2.65179
2.58418
2.56173
2.57244
2.73945
2.78574
2.7436
2.60305
2.47138
2.52037
2.3889
1
1
1
1
1
1
1
1
1
1
1
1
1
1
1
0.999994
2.09712
2.66775
2.63828
2.60356
2.58199
2.61169
2.72703
2.75507
2.76942
2.70394
2.48424
2.44512
2.54127
2.68474
1
1
1
1
1
1
1
1
1
1
1
1
1
1
1
1
1.86662
2.58874
2.63668
2.65497
2.67586
2.69293
2.69741
2.67428
2.63812
2.61774
2.6402
2.63615
2.59916
2.58304
1
1
1
1
1
1
1
1
1
1
1
1
1
1
1
1
1.41673
2.43297
2.62735
2.64719
2.65717
2.65565
2.64377
2.63566
2.63578
2.64255
2.63585
2.59744
2.51331
2.36268
1
1
1
1
1
1
1
1
1
1
1
1
1
1
1
1
1.03613
2.2053
2.57704
2.60543
2.61868
2.62615
2.62692
2.62651
2.61859
2.59801
2.56363
2.51115
2.43415
2.32988
1
1
1
1
1
1
1
1
1
1
1
1
1
1
1
1
1.00016
1.78986
2.48564
2.5684
2.58637
2.59996
2.60009
2.5926
2.57719
2.55626
2.52533
2.48075
2.39847
2.30997
1
1
1
1
1
1
1
1
1
1
1
1
1
1
1
1
0.999999
1.16121
2.30249
2.54542
2.5508
2.55874
2.55814
2.55218
2.54061
2.52244
2.49423
2.45023
2.37599
2.29555
1
1
1
1
1
1
1
1
1
1
1
1
1
1
1
1
1
1.00362
1.99644
2.48199
2.51809
2.51691
2.51525
2.51082
2.50062
2.48243
2.45718
2.41776
2.35976
2.29295
1
1
1
1
1
1
1
1
1
1
1
1
1
1
1
1
1
0.999998
1.31961
2.30627
2.48866
2.48059
2.47961
2.47382
2.46249
2.44535
2.42149
2.38816
2.34182
2.28655
1
1
1
1
1
1
1
1
1
1
1
1
1
1
1
1
1
0.999999
1.01477
1.99137
2.42952
2.45553
2.44847
2.44057
2.42828
2.41138
2.38797
2.3582
2.31988
2.27493
1
1
1
1
1
1
1
1
1
1
1
1
1
1
1
1
1
1
1.00002
1.25268
2.2239
2.42717
2.41746
2.41208
2.39945
2.38237
2.3596
2.33153
2.29808
2.26062
1
1
1
1
1
1
1
1
1
1
1
1
1
1
1
1
1
1
1
1.0086
1.79856
2.33222
2.39091
2.38073
2.36942
2.35466
2.33397
2.3086
2.27945
2.24635
1
1
1
1
1
1
1
1
1
1
1
1
1
1
1
1
1
1
1
1.00002
1.14652
2.06011
2.35854
2.34992
2.34164
2.32878
2.31052
2.28905
2.26391
2.23367
1
1
1
1
1
1
1
1
1
1
1
1
1
1
1
1
1
1
1
1
1.00279
1.40156
2.15128
2.3154
2.30641
2.29797
2.28464
2.26752
2.24685
2.21987
1
1
1
1
1
1
1
1
1
1
1
1
1
1
1
1
1
1
1
1
1.00001
1.02628
1.68136
2.20119
2.28883
2.2722
2.2597
2.24474
2.22771
2.20387
1
1
1
1
1
1
1
1
1
1
1
1
1
1
1
1
1
1
1
1
1
1.00016
1.111
1.87986
2.23965
2.24211
2.23118
2.21807
2.20358
2.18342
1
1
1
1
1
1
1
1
1
1
1
1
1
1
1
1
1
1
1
1
1
1
1.00182
1.25545
1.97837
2.21002
2.20291
2.19102
2.17882
2.16295
1
1
1
1
1
1
1
1
1
1
1
1
1
1
1
1
1
1
1
1
1
1
1
1.00965
1.38848
2.01491
2.176
2.16564
2.15309
2.14111
1
1
1
1
1
1
1
1
1
1
1
1
1
1
1
1
1
1
1
1
1
1
1
1.00005
1.02614
1.49643
2.02692
2.14415
2.13159
2.11856
1
1
1
1
1
1
1
1
1
1
1
1
1
1
1
1
1
1
1
1
1
1
1
1
1.0002
1.05128
1.57146
2.02288
2.11414
2.10116
1
1
1
1
1
1
1
1
1
1
1
1
1
1
1
1
1
1
1
1
1
1
1
1
1
1.00058
1.07978
1.61349
2.00507
2.0835
1
1
1
1
1
1
1
1
1
1
1
1
1
1
1
1
1
1
1
1
1
1
1
1
1
1
1.00123
1.1039
1.62443
1.99885
1
1
1
1
1
1
1
1
1
1
1
1
1
1
1
1
1
1
1
1
1
1
1
1
1
1
1
1.00206
1.11644
1.70908
1
1
1
1
1
1
1
1
1
1
1
1
1
1
1
1
1
1
1
1
1
1
1
1
1
1
1
1.00001
1.00237
1.1789
1
1
1
1
1
1
1
1
1
1
1
1
1
1
1
1
1
1
1
1
1
1
1
1
1
1
1
1
1.00001
1.00505
1
1
1
1
1
1
1
1
1
1
1
1
1
1
1
1
1
1
1
1
1
1
1
1
1
1
1
1
1
1.00001
1
1
1
1
1
1
1
1
1
1
1
1
1
1
1
1
1
1
1
1
1
1
1
1
1
1
1
1
1
1
1
1
1
1
1
1
1
1
1
1
1
1
1
1
1
1
1
1
1
1
1
1
1
1
1
1
1
1
1
1
1
1
1
1
1
1
1
1
1
1
1
1
1
1
1
1
1
1
1
1
1
1
1
1
1
1
1
1
1
1
1
1
1
1
1
1
1
1
1
1
1
1
1
1
1
1
1
1
1
1
1
1
1
1
1
1
1
1
1
1
1
1
1
1
1
1
1
1
1
1
1
1
1
1
1
1
1
1
1
1
1
1
1
1
1
1
1
1
1
1
1
1
1
1
1
1
1
1
1
1
1
1
1
1
1
1
1
1
1
1
1
1
1
1
1
1
1
1
1
1
1.66095
1.45215
1.63062
1.79334
1.80829
1.81099
1.81927
2.09874
2.73331
2.88931
2.87615
2.85231
2.82803
2.78308
2.72836
2.66937
2.61161
2.55546
2.50485
2.45748
2.41417
2.37564
2.33488
2.29619
2.25613
2.21319
2.16831
2.1233
2.0874
2.03069
1.97719
1.59405
1.5986
1.64504
1.69543
1.73518
1.74708
2.02505
2.69982
2.87305
2.85404
2.81776
2.78557
2.74101
2.6892
2.63413
2.57982
2.52859
2.47986
2.43288
2.38801
2.3484
2.3132
2.27837
2.24373
2.20605
2.16398
2.11857
2.08053
2.02259
1.99541
1.63429
1.53152
1.49436
1.54644
1.61576
1.6382
1.86961
2.59807
2.80064
2.76833
2.71869
2.67535
2.63326
2.58996
2.54515
2.499
2.45311
2.40735
2.36615
2.32481
2.28869
2.25717
2.22758
2.19946
2.17059
2.13834
2.10017
2.06285
2.00271
2.01344
1.70633
1.54555
1.43556
1.44857
1.4995
1.52841
1.65034
2.41431
2.68237
2.63103
2.56957
2.52234
2.48643
2.45442
2.42087
2.38428
2.34451
2.30456
2.26708
2.23215
2.20403
2.18045
2.15895
2.13683
2.11262
2.08531
2.05228
2.01972
1.96532
2.04529
1.77678
1.58403
1.41914
1.42565
1.43357
1.45437
1.5279
2.25277
2.56287
2.49212
2.43299
2.39275
2.36203
2.33619
2.31044
2.2827
2.25227
2.21886
2.18427
2.15129
2.12463
2.10184
2.08294
2.06585
2.04784
2.02488
1.99442
1.96388
1.91448
2.08119
1.84512
1.64608
1.47182
1.43783
1.40552
1.41255
1.4603
2.12412
2.50296
2.40839
2.34434
2.31574
2.29756
2.27366
2.2494
2.22202
2.19275
2.16176
2.12932
2.09905
2.07253
2.04758
2.02582
2.00604
1.98702
1.96535
1.93882
1.91254
1.86844
2.10866
1.90256
1.70859
1.54236
1.4643
1.39454
1.40052
1.48547
1.98021
2.4355
2.37756
2.30379
2.27203
2.26051
2.24102
2.21842
2.19007
2.15892
2.12723
2.09646
2.06857
2.04239
2.01553
1.9899
1.96529
1.94226
1.91841
1.89294
1.87009
1.83101
2.12702
1.9496
1.7624
1.61468
1.51491
1.40863
1.4164
1.54425
1.87284
2.37426
2.36271
2.28837
2.25038
2.23507
2.21502
2.19125
2.1632
2.13307
2.10306
2.07435
2.04763
2.02175
1.99437
1.96665
1.93867
1.91274
1.88726
1.86284
1.84148
1.80443
2.13639
1.98245
1.80537
1.67905
1.56291
1.44124
1.44764
1.65567
1.81985
2.24934
2.34272
2.27643
2.236
2.21303
2.19095
2.16589
2.13903
2.11135
2.08378
2.05683
2.0302
2.00344
1.97557
1.94758
1.91896
1.89231
1.86625
1.84315
1.82238
1.78595
2.14161
2.00097
1.8407
1.7304
1.60566
1.49059
1.5078
1.78269
1.82854
2.0486
2.29383
2.25933
2.21693
2.18821
2.16519
2.14036
2.11549
2.09057
2.06502
2.03923
2.0126
1.98511
1.95693
1.92971
1.90236
1.87664
1.85075
1.82876
1.80745
1.77124
2.1436
2.00956
1.86844
1.76978
1.64054
1.53688
1.60495
1.88018
1.85845
1.87784
2.17775
2.22884
2.19009
2.15952
2.13617
2.1127
2.08934
2.0662
2.0426
2.01829
1.99231
1.96516
1.93785
1.91236
1.8871
1.86272
1.8373
1.81593
1.79325
1.75781
2.14264
2.00931
1.89191
1.79704
1.66707
1.58419
1.74419
1.94027
1.89479
1.85005
1.99721
2.16137
2.15879
2.126
2.10167
2.08098
2.06069
2.03865
2.01587
1.9927
1.96804
1.942
1.91633
1.89283
1.8701
1.84772
1.82391
1.8025
1.77761
1.74452
2.13791
2.00776
1.91408
1.81258
1.69025
1.65639
1.88047
1.9648
1.9211
1.84605
1.84899
2.03571
2.10948
2.0945
2.06733
2.04643
2.02817
2.00691
1.98479
1.96289
1.94044
1.91719
1.89437
1.87271
1.85145
1.83032
1.80834
1.78683
1.75985
1.73263
2.12727
2.00782
1.93271
1.81797
1.71875
1.7683
1.98839
1.97763
1.9304
1.85446
1.80872
1.88299
2.02648
2.05505
2.03101
2.0112
1.99273
1.97246
1.95169
1.93127
1.91105
1.89081
1.87103
1.85118
1.83075
1.81021
1.78918
1.76696
1.74043
1.72457
2.11211
2.00955
1.9428
1.82173
1.75703
1.91536
2.05136
1.99653
1.93407
1.86119
1.80044
1.77034
1.90097
1.99679
1.99675
1.97565
1.95635
1.93806
1.91955
1.90089
1.8824
1.8643
1.84638
1.82756
1.80787
1.78778
1.76781
1.74325
1.72105
1.72258
2.09274
2.01256
1.94079
1.82763
1.81849
2.05421
2.08525
2.01701
1.93667
1.86426
1.79381
1.74375
1.7732
1.9007
1.95118
1.9395
1.92208
1.90627
1.89067
1.87371
1.85596
1.83828
1.82054
1.80203
1.78401
1.7643
1.74517
1.71916
1.70711
1.72555
2.07147
2.01447
1.93148
1.84569
1.9193
2.13541
2.0983
2.02193
1.93893
1.86634
1.79533
1.73443
1.70163
1.77393
1.88358
1.90576
1.89291
1.87973
1.8652
1.85063
1.83639
1.81836
1.79776
1.77839
1.76196
1.74237
1.72262
1.69736
1.69593
1.74492
2.05523
2.01131
1.91713
1.87423
2.06315
2.17999
2.10457
2.02265
1.94206
1.86848
1.80108
1.73273
1.68556
1.68064
1.77815
1.85696
1.86977
1.85612
1.84248
1.82924
1.81121
1.79243
1.77439
1.75591
1.73796
1.7232
1.70207
1.68595
1.69085
1.78411
2.04446
2.00037
1.91303
1.92898
2.17927
2.18354
2.10929
2.02124
1.94218
1.87094
1.80587
1.74001
1.67816
1.64205
1.67022
1.77599
1.8342
1.83125
1.82377
1.81128
1.79183
1.77222
1.75665
1.74144
1.72389
1.70004
1.68058
1.68018
1.70263
1.82765
2.03669
1.98326
1.91971
2.03227
2.23248
2.18434
2.10664
2.02252
1.94537
1.87492
1.80974
1.7478
1.68226
1.63409
1.61313
1.67306
1.77585
1.81087
1.80525
1.79112
1.77592
1.75883
1.73934
1.72014
1.69976
1.67668
1.66885
1.67751
1.7514
1.85875
2.02096
1.97686
1.93791
2.16022
2.25061
2.18189
2.10761
2.02793
1.95085
1.87967
1.81311
1.7521
1.69128
1.63094
1.59418
1.59844
1.68472
1.77616
1.78789
1.77353
1.75848
1.74319
1.72675
1.70653
1.68316
1.66164
1.66492
1.70569
1.81666
1.86327
1.98429
1.95535
2.01184
2.27074
2.26243
2.18633
2.11012
2.03324
1.957
1.88472
1.81732
1.75577
1.69943
1.63993
1.58867
1.5657
1.59693
1.70467
1.7636
1.75789
1.74673
1.73107
1.71413
1.69142
1.66789
1.65597
1.67299
1.76865
1.86651
1.86573
1.9207
1.93784
2.15867
2.33623
2.27023
2.19538
2.11718
2.03956
1.96317
1.89009
1.82247
1.76058
1.70599
1.65154
1.59574
1.55896
1.55342
1.61816
1.71917
1.74913
1.73864
1.722
1.70287
1.67724
1.65753
1.66011
1.7243
1.82889
1.87762
1.86585
1.71556
1.9727
2.32859
2.36975
2.28276
2.20539
2.12424
2.0447
1.96813
1.89568
1.82903
1.76923
1.71578
1.66622
1.61462
1.56344
1.53938
1.55207
1.64641
1.73335
1.73028
1.71564
1.69407
1.67065
1.65838
1.68887
1.80537
1.8774
1.88475
1.86543
1.43005
2.07061
2.44964
2.38546
2.28859
2.21126
2.12974
2.05087
1.97563
1.9051
1.84079
1.78259
1.73036
1.68258
1.63243
1.58361
1.53909
1.52872
1.57105
1.67664
1.72047
1.71135
1.69021
1.67214
1.67701
1.76245
1.86537
1.89537
1.89016
1.86508
1.16324
2.04456
2.49551
2.385
2.29432
2.22435
2.15061
2.07512
2.00252
1.9342
1.87107
1.8127
1.75893
1.7082
1.65764
1.6044
1.55234
1.52261
1.52255
1.59713
1.70119
1.70473
1.68874
1.67974
1.72954
1.85961
1.9141
1.90967
1.89631
1.8641
1.04864
2.11335
2.53938
2.40331
2.32572
2.25271
2.17544
2.09822
2.02414
1.95439
1.88891
1.82741
1.7689
1.71457
1.66466
1.61765
1.5725
1.52168
1.50109
1.5223
1.62926
1.68863
1.6891
1.71482
1.82144
1.92174
1.93098
1.92122
1.90162
1.86315
1.02404
2.26677
2.60663
2.47299
2.3903
2.3095
2.22244
2.13867
2.06001
1.98587
1.91593
1.85033
1.78771
1.7287
1.67675
1.62807
1.57679
1.52505
1.49135
1.47305
1.54291
1.65217
1.69745
1.79336
1.9121
1.94859
1.94069
1.92151
1.90081
1.86154
1.12266
2.40633
2.69988
2.5729
2.46419
2.36098
2.26512
2.1738
2.08861
2.00896
1.93469
1.86527
1.80039
1.73987
1.68486
1.63411
1.58284
1.5341
1.48561
1.45321
1.4796
1.60081
1.74144
1.86251
1.95257
1.95639
1.94126
1.92174
1.90107
1.86268
1.22618
2.4781
2.74172
2.62555
2.51073
2.39471
2.28743
2.19035
2.10042
2.01772
1.94146
1.87008
1.80447
1.74439
1.68754
1.63633
1.58711
1.54136
1.48271
1.44083
1.44687
1.55681
1.77886
1.93307
1.98358
1.96593
1.94281
1.9211
1.89855
1.85854
)
;

boundaryField
{
    inlet
    {
        type            fixedValue;
        value           uniform 1;
    }
    outlet
    {
        type            inletOutlet;
        inletValue      uniform 1;
        value           nonuniform List<scalar> 
30
(
2.03069
2.02237
2.00194
1.9648
1.91402
1.86808
1.83093
1.80446
1.78601
1.77129
1.75783
1.7445
1.73256
1.72451
1.72253
1.72533
1.74445
1.78329
1.82692
1.85836
1.86336
1.86606
1.86608
1.8655
1.86478
1.86347
1.86243
1.86102
1.86223
1.85844
)
;
    }
    top
    {
        type            symmetryPlane;
    }
    bottom
    {
        type            symmetryPlane;
    }
    step
    {
        type            zeroGradient;
    }
    defaultFaces
    {
        type            empty;
    }
}


// ************************************************************************* //
