/*--------------------------------*- C++ -*----------------------------------*\
  =========                 |
  \\      /  F ield         | OpenFOAM: The Open Source CFD Toolbox
   \\    /   O peration     | Website:  https://openfoam.org
    \\  /    A nd           | Version:  6.0
     \\/     M anipulation  |
\*---------------------------------------------------------------------------*/
FoamFile
{
    version     2.0;
    format      ascii;
    class       volVectorField;
    location    "4.0001063";
    object      U;
}
// * * * * * * * * * * * * * * * * * * * * * * * * * * * * * * * * * * * * * //

dimensions      [0 1 -1 0 0 0 0];

internalField   nonuniform List<vector> 
2700
(
(3 -1.80854e-17 0)
(3 -1.29378e-16 0)
(3 -4.58012e-16 0)
(3 -4.32874e-16 0)
(3 -1.95098e-16 0)
(3 -1.82557e-16 0)
(3 -3.47379e-16 0)
(3 -8.32153e-17 0)
(3 -3.28726e-16 0)
(3 -6.28619e-16 0)
(3 -1.17275e-15 0)
(3 -8.09377e-16 0)
(3 -8.50142e-17 0)
(3 -5.11666e-17 0)
(3 4.20779e-16 0)
(1.55614 0.00376399 0)
(0.764595 -0.00290253 0)
(0.684279 0.0121797 0)
(0.62848 0.0265891 0)
(0.580115 0.036544 0)
(0.544941 0.0310916 0)
(0.508827 -0.0112742 0)
(0.456903 -0.0330257 0)
(0.382163 -0.018634 0)
(0.295997 0.0459237 0)
(0.25129 0.0628525 0)
(0.233226 0.0254407 0)
(0.175857 -0.0326479 0)
(0.0953806 -0.0133023 0)
(0.0368931 0.0574035 0)
(3 3.09776e-16 0)
(3 -7.45858e-17 0)
(3 -4.14226e-16 0)
(3 -3.47289e-16 0)
(3 -4.22588e-16 0)
(3 -2.75936e-16 0)
(3 -6.24291e-16 0)
(3 -7.7461e-17 0)
(3 -3.16471e-16 0)
(3 -9.12944e-16 0)
(3 -2.01961e-15 0)
(3 -1.6939e-15 0)
(3 -4.68489e-16 0)
(3 2.26763e-16 0)
(3 1.89115e-16 0)
(1.55944 0.00829139 0)
(0.759736 -0.00130104 0)
(0.688709 -0.00295985 0)
(0.644999 0.0293891 0)
(0.592253 0.0697021 0)
(0.538926 0.0823548 0)
(0.482954 0.0538422 0)
(0.432439 -0.0294286 0)
(0.381004 -0.0699107 0)
(0.337031 -0.0188389 0)
(0.273672 0.103623 0)
(0.222204 0.110254 0)
(0.163051 0.0648094 0)
(0.0884041 0.00888912 0)
(0.0536332 0.0384174 0)
(3 1.01101e-16 0)
(3 -5.11306e-17 0)
(3 3.94948e-17 0)
(3 -4.47257e-16 0)
(3 -6.90098e-16 0)
(3 -2.88753e-16 0)
(3 -2.19331e-16 0)
(3 3.52486e-16 0)
(3 1.49442e-16 0)
(3 -2.81235e-16 0)
(3 -6.95593e-16 0)
(3 -7.39922e-16 0)
(3 -5.97584e-16 0)
(3 -7.12097e-16 0)
(3 -7.34162e-16 0)
(1.56485 0.0299263 0)
(0.754898 0.0261469 0)
(0.693021 0.0314768 0)
(0.647952 0.0408881 0)
(0.597591 0.0506484 0)
(0.534668 0.0535596 0)
(0.463922 0.0436362 0)
(0.407253 0.0251959 0)
(0.383953 0.0221106 0)
(0.360555 0.0465919 0)
(0.296501 0.0692737 0)
(0.201514 0.0670335 0)
(0.139974 0.0358887 0)
(0.0905449 0.0322097 0)
(0.0557693 0.0571953 0)
(3 -3.42249e-17 0)
(3 -2.12538e-16 0)
(3 -4.35384e-16 0)
(3 -9.99191e-16 0)
(3 -6.74256e-16 0)
(3 -2.63238e-16 0)
(3 3.83456e-16 0)
(3 3.02628e-16 0)
(3 4.45184e-16 0)
(3 -5.68226e-17 0)
(3 4.98042e-16 0)
(3 5.78303e-16 0)
(3 6.2807e-17 0)
(3 -1.00735e-15 0)
(3 -9.22129e-16 0)
(1.57261 0.0573362 0)
(0.756262 0.0603445 0)
(0.689684 0.0648663 0)
(0.646136 0.0431958 0)
(0.593126 0.0191747 0)
(0.536874 0.016224 0)
(0.470319 0.0458412 0)
(0.422359 0.0989339 0)
(0.395419 0.125233 0)
(0.357651 0.0871441 0)
(0.287521 0.011942 0)
(0.214818 0.0351517 0)
(0.142836 0.0778801 0)
(0.0946392 0.0828645 0)
(0.0593257 0.0554939 0)
(3 1.69867e-16 0)
(3 -1.34839e-16 0)
(3 -1.14474e-15 0)
(3 -2.35625e-16 0)
(3 -4.08937e-17 0)
(3 5.53839e-17 0)
(3 2.85168e-16 0)
(3 5.64283e-16 0)
(3 4.95958e-16 0)
(3 1.8659e-16 0)
(3 5.55467e-16 0)
(3 4.02919e-16 0)
(3 -3.546e-16 0)
(3 -9.10812e-16 0)
(3 -3.03126e-16 0)
(1.59259 0.0736697 0)
(0.766921 0.0717131 0)
(0.6828 0.081498 0)
(0.633172 0.0578046 0)
(0.584408 0.0230518 0)
(0.537369 0.0039493 0)
(0.4969 0.0460551 0)
(0.442086 0.137724 0)
(0.377802 0.167593 0)
(0.324397 0.102244 0)
(0.266417 0.0323592 0)
(0.21852 0.00147725 0)
(0.163233 0.0414799 0)
(0.087518 0.133316 0)
(0.0467506 0.0915395 0)
(3 -7.33074e-17 0)
(3 -1.35059e-16 0)
(3 -2.10617e-16 0)
(3 1.27404e-16 0)
(3 4.53593e-16 0)
(3 6.91113e-18 0)
(3 3.25131e-17 0)
(3 5.3061e-16 0)
(3 5.45019e-16 0)
(3 8.43922e-16 0)
(3 7.16273e-17 0)
(3 1.49706e-16 0)
(3 -3.94217e-16 0)
(3 -7.86178e-16 0)
(3 -2.77971e-16 0)
(1.61987 0.0790947 0)
(0.770301 0.0709631 0)
(0.680356 0.0725116 0)
(0.624452 0.0726362 0)
(0.571115 0.0747851 0)
(0.537434 0.0822473 0)
(0.506794 0.0906783 0)
(0.456722 0.0981093 0)
(0.372965 0.103096 0)
(0.292899 0.0832011 0)
(0.243879 0.0680098 0)
(0.215459 0.0910851 0)
(0.170469 0.131226 0)
(0.099432 0.136416 0)
(0.0369783 0.110912 0)
(3 -5.23816e-16 0)
(3 -7.65122e-16 0)
(3 -3.68266e-17 0)
(3 3.35744e-16 0)
(3 3.60056e-16 0)
(3 -2.09298e-16 0)
(3 -1.43553e-16 0)
(3 3.73498e-16 0)
(3 6.91162e-16 0)
(3 -5.3646e-16 0)
(3 -8.40139e-16 0)
(3 -2.4612e-16 0)
(3 -7.51009e-17 0)
(3 3.53491e-16 0)
(3 -8.43351e-16 0)
(1.65211 0.0841948 0)
(0.76936 0.072953 0)
(0.683279 0.0622061 0)
(0.634675 0.088619 0)
(0.5873 0.133389 0)
(0.539465 0.162922 0)
(0.497775 0.132906 0)
(0.44525 0.0575278 0)
(0.381855 0.0348157 0)
(0.304047 0.0915887 0)
(0.260376 0.139519 0)
(0.240526 0.179049 0)
(0.171518 0.190181 0)
(0.0875642 0.127125 0)
(0.0389364 0.149282 0)
(3 -4.35215e-16 0)
(3 -4.76379e-17 0)
(3 2.18124e-17 0)
(3 2.50697e-16 0)
(3 4.34668e-16 0)
(3 -4.29739e-16 0)
(3 -1.11259e-15 0)
(3 -3.99939e-16 0)
(3 -2.34077e-16 0)
(3 -6.13964e-16 0)
(3 -7.06856e-16 0)
(3 -9.07511e-16 0)
(3 -2.2342e-16 0)
(3 7.49742e-16 0)
(3 -7.4285e-16 0)
(1.68735 0.0945742 0)
(0.759204 0.0812354 0)
(0.691651 0.0943342 0)
(0.648919 0.122351 0)
(0.595576 0.150938 0)
(0.54042 0.162793 0)
(0.473641 0.129025 0)
(0.422552 0.07378 0)
(0.381604 0.029596 0)
(0.346019 0.0680976 0)
(0.284628 0.198845 0)
(0.227312 0.236303 0)
(0.157345 0.183551 0)
(0.0689442 0.143948 0)
(0.0534374 0.132525 0)
(3 7.11812e-17 0)
(3 2.31475e-16 0)
(3 -9.20686e-17 0)
(3 -3.1496e-16 0)
(3 6.74799e-16 0)
(3 4.1246e-16 0)
(3 -8.79433e-16 0)
(3 -1.28691e-15 0)
(3 -5.81012e-16 0)
(3 2.21488e-16 0)
(3 -7.29539e-16 0)
(3 -9.28035e-16 0)
(3 -2.21394e-17 0)
(3 5.64929e-16 0)
(3 4.63283e-16 0)
(1.7181 0.119986 0)
(0.768969 0.112313 0)
(0.691045 0.13955 0)
(0.648573 0.130815 0)
(0.599933 0.120549 0)
(0.535779 0.109294 0)
(0.464582 0.117589 0)
(0.404304 0.130108 0)
(0.372625 0.139142 0)
(0.359739 0.170315 0)
(0.301676 0.182467 0)
(0.216006 0.162847 0)
(0.14225 0.141386 0)
(0.0607623 0.168116 0)
(0.054023 0.212962 0)
(3 2.98279e-16 0)
(3 -2.46993e-16 0)
(3 -1.32848e-16 0)
(3 -1.68675e-16 0)
(3 4.18498e-17 0)
(3 5.56072e-16 0)
(3 5.24485e-16 0)
(3 2.82059e-17 0)
(3 1.91902e-16 0)
(3 5.71658e-17 0)
(3 -8.67741e-17 0)
(3 1.61783e-16 0)
(3 -2.18752e-17 0)
(3 -2.42736e-16 0)
(3 1.33879e-15 0)
(1.75628 0.145217 0)
(0.786502 0.145954 0)
(0.690052 0.173533 0)
(0.641227 0.157165 0)
(0.588804 0.107239 0)
(0.534861 0.0735176 0)
(0.483075 0.0955514 0)
(0.427684 0.176804 0)
(0.395351 0.25122 0)
(0.34841 0.258921 0)
(0.281529 0.152216 0)
(0.208104 0.101888 0)
(0.144861 0.141887 0)
(0.0908781 0.202104 0)
(0.0617852 0.257469 0)
(3 1.29706e-16 0)
(3 3.63023e-16 0)
(3 2.39904e-16 0)
(3 1.21463e-16 0)
(3 1.90374e-16 0)
(3 7.42656e-16 0)
(3 1.02645e-15 0)
(3 2.69067e-16 0)
(3 6.41346e-16 0)
(3 7.43446e-16 0)
(3 1.7245e-15 0)
(3 1.06143e-15 0)
(3 -5.0308e-16 0)
(3 7.09339e-17 0)
(3 2.1856e-15 0)
(1.81051 0.157138 0)
(0.801062 0.161483 0)
(0.691926 0.164158 0)
(0.632849 0.137434 0)
(0.572801 0.119948 0)
(0.532634 0.11012 0)
(0.510042 0.151713 0)
(0.465057 0.220227 0)
(0.405607 0.277789 0)
(0.328141 0.207387 0)
(0.250076 0.136692 0)
(0.218095 0.10287 0)
(0.170158 0.112059 0)
(0.121919 0.240628 0)
(0.0628042 0.266293 0)
(3 3.15738e-17 0)
(3 5.30637e-16 0)
(3 2.55619e-16 0)
(3 -2.01104e-16 0)
(3 -2.7012e-18 0)
(3 4.21432e-16 0)
(3 9.62371e-16 0)
(3 8.87883e-16 0)
(3 4.57111e-16 0)
(3 8.94745e-16 0)
(3 7.52732e-16 0)
(3 5.38403e-16 0)
(3 -4.954e-16 0)
(3 8.33274e-16 0)
(3 -7.01305e-17 0)
(1.88034 0.158523 0)
(0.802806 0.163383 0)
(0.685348 0.138812 0)
(0.630145 0.142324 0)
(0.57874 0.169603 0)
(0.541019 0.20659 0)
(0.513962 0.212642 0)
(0.473069 0.196856 0)
(0.40388 0.160249 0)
(0.309078 0.158667 0)
(0.242271 0.184549 0)
(0.209463 0.242696 0)
(0.178275 0.275793 0)
(0.133132 0.268147 0)
(0.0511936 0.197638 0)
(3 -2.23894e-17 0)
(3 4.32812e-16 0)
(3 2.97868e-16 0)
(3 -1.59084e-16 0)
(3 -6.38908e-16 0)
(3 -8.50589e-16 0)
(3 4.46746e-17 0)
(3 1.15813e-15 0)
(3 1.2421e-15 0)
(3 -1.96756e-16 0)
(3 -7.34353e-16 0)
(3 -5.2621e-16 0)
(3 -9.65262e-16 0)
(3 -4.06185e-16 0)
(3 -1.60245e-15 0)
(1.95169 0.158609 0)
(0.797552 0.153567 0)
(0.683987 0.133121 0)
(0.64618 0.157289 0)
(0.605439 0.212404 0)
(0.552694 0.264197 0)
(0.505133 0.269074 0)
(0.452794 0.205877 0)
(0.385328 0.0906722 0)
(0.333433 0.101271 0)
(0.284334 0.210212 0)
(0.244091 0.348701 0)
(0.165714 0.39853 0)
(0.088123 0.285732 0)
(0.0441029 0.163118 0)
(3 -3.92268e-16 0)
(3 7.25379e-17 0)
(3 1.31429e-16 0)
(3 -1.09881e-16 0)
(3 -1.67578e-15 0)
(3 -1.66948e-15 0)
(3 -5.30901e-16 0)
(3 6.92348e-16 0)
(3 6.13276e-16 0)
(3 -1.73055e-16 0)
(3 -7.05741e-16 0)
(3 -9.19463e-16 0)
(3 -6.07018e-16 0)
(3 -2.10648e-16 0)
(3 -1.43513e-15 0)
(2.01703 0.163104 0)
(0.791018 0.159901 0)
(0.694046 0.186374 0)
(0.657639 0.221425 0)
(0.611714 0.234825 0)
(0.569856 0.242411 0)
(0.504883 0.218081 0)
(0.423227 0.158509 0)
(0.367303 0.150178 0)
(0.354016 0.182575 0)
(0.325443 0.284208 0)
(0.275635 0.368033 0)
(0.165134 0.397539 0)
(0.0244274 0.309742 0)
(0.0460924 0.244542 0)
(3 -1.91551e-16 0)
(3 2.51417e-17 0)
(3 -3.28018e-16 0)
(3 -1.52114e-16 0)
(3 -1.58118e-16 0)
(3 -5.36922e-16 0)
(3 -2.40475e-16 0)
(3 2.11877e-16 0)
(3 -1.20662e-16 0)
(3 2.0559e-16 0)
(3 -2.34137e-16 0)
(3 -3.13035e-16 0)
(3 7.36806e-17 0)
(3 2.86911e-16 0)
(3 -1.52477e-15 0)
(2.06872 0.190534 0)
(0.819701 0.204595 0)
(0.700516 0.256446 0)
(0.660977 0.251004 0)
(0.612568 0.238895 0)
(0.559661 0.191094 0)
(0.48906 0.159434 0)
(0.428554 0.182322 0)
(0.390319 0.255395 0)
(0.376191 0.319487 0)
(0.33199 0.307065 0)
(0.281054 0.25425 0)
(0.151222 0.201743 0)
(0.0270994 0.312974 0)
(0.0578149 0.392103 0)
(3 -1.11505e-17 0)
(3 7.15125e-16 0)
(3 -1.44522e-16 0)
(3 -1.91299e-16 0)
(3 1.37066e-15 0)
(3 8.60414e-16 0)
(3 7.62081e-16 0)
(3 -2.06702e-16 0)
(3 -1.70968e-16 0)
(3 1.29221e-16 0)
(3 7.32484e-16 0)
(3 9.07783e-16 0)
(3 4.16906e-16 0)
(3 6.54325e-16 0)
(3 -9.32611e-17 0)
(2.14572 0.228693 0)
(0.845812 0.258468 0)
(0.702401 0.27615 0)
(0.659107 0.259429 0)
(0.598595 0.213911 0)
(0.54336 0.163254 0)
(0.49996 0.138522 0)
(0.477222 0.214447 0)
(0.434081 0.341727 0)
(0.372692 0.409821 0)
(0.301888 0.366769 0)
(0.231999 0.152714 0)
(0.179053 0.131976 0)
(0.103795 0.301935 0)
(0.0700454 0.476613 0)
(3 -7.28005e-17 0)
(3 -3.48334e-16 0)
(3 9.38588e-17 0)
(3 4.54387e-16 0)
(3 1.15767e-15 0)
(3 1.53636e-15 0)
(3 1.07456e-15 0)
(3 2.62689e-16 0)
(3 -1.84873e-16 0)
(3 1.5871e-15 0)
(3 2.40755e-15 0)
(3 1.73023e-15 0)
(3 1.07339e-15 0)
(3 6.67941e-16 0)
(3 -4.91168e-16 0)
(2.25465 0.234775 0)
(0.865482 0.285101 0)
(0.70504 0.255112 0)
(0.651733 0.205572 0)
(0.593523 0.192358 0)
(0.53633 0.206592 0)
(0.511737 0.258397 0)
(0.495531 0.316042 0)
(0.455233 0.3322 0)
(0.39093 0.335159 0)
(0.25518 0.24923 0)
(0.194984 0.210116 0)
(0.177749 0.183337 0)
(0.174263 0.318315 0)
(0.0897945 0.44381 0)
(3 -4.05525e-16 0)
(3 -1.04686e-15 0)
(3 -2.07919e-16 0)
(3 -1.1927e-16 0)
(3 1.36616e-15 0)
(3 1.62769e-15 0)
(3 6.86913e-16 0)
(3 5.21258e-16 0)
(3 1.02403e-15 0)
(3 2.53243e-15 0)
(3 3.02323e-15 0)
(3 2.0737e-15 0)
(3 1.1389e-15 0)
(3 1.00701e-15 0)
(3 6.82581e-16 0)
(2.37663 0.223167 0)
(0.877411 0.283295 0)
(0.692439 0.224112 0)
(0.647018 0.189878 0)
(0.601357 0.186829 0)
(0.569489 0.269428 0)
(0.537098 0.356274 0)
(0.493147 0.37401 0)
(0.450657 0.322682 0)
(0.353233 0.187379 0)
(0.26917 0.225376 0)
(0.207147 0.316578 0)
(0.199607 0.410274 0)
(0.188636 0.410722 0)
(0.0778585 0.300073 0)
(3 -4.86822e-16 0)
(3 -5.634e-16 0)
(3 -4.30612e-16 0)
(3 3.70012e-16 0)
(3 7.47435e-16 0)
(3 7.0435e-16 0)
(3 5.27481e-16 0)
(3 6.48028e-16 0)
(3 1.72271e-15 0)
(3 2.02228e-15 0)
(3 1.6145e-15 0)
(3 1.62918e-15 0)
(3 1.13698e-15 0)
(3 1.42324e-15 0)
(3 7.3896e-16 0)
(2.49081 0.194794 0)
(0.890396 0.261345 0)
(0.680496 0.224918 0)
(0.650901 0.215831 0)
(0.632361 0.293269 0)
(0.60107 0.338587 0)
(0.558256 0.365763 0)
(0.498608 0.369815 0)
(0.40312 0.250693 0)
(0.352934 0.171704 0)
(0.322165 0.210547 0)
(0.293236 0.470931 0)
(0.189468 0.572838 0)
(0.130202 0.486311 0)
(0.0552161 0.272686 0)
(3 4.45691e-16 0)
(3 3.56866e-16 0)
(3 4.54195e-16 0)
(3 1.03521e-15 0)
(3 1.82984e-16 0)
(3 -2.95901e-16 0)
(3 2.88784e-16 0)
(3 7.98284e-16 0)
(3 1.00265e-15 0)
(3 2.25389e-16 0)
(3 1.8891e-16 0)
(3 9.14814e-16 0)
(3 1.96273e-15 0)
(3 1.37804e-15 0)
(3 3.93363e-17 0)
(2.60514 0.193018 0)
(0.896684 0.26272 0)
(0.699072 0.248402 0)
(0.687692 0.319429 0)
(0.654318 0.340686 0)
(0.609234 0.335992 0)
(0.571861 0.311963 0)
(0.475746 0.230551 0)
(0.390871 0.242809 0)
(0.343112 0.279809 0)
(0.361935 0.398986 0)
(0.332563 0.497784 0)
(0.203715 0.561036 0)
(0.0577203 0.466619 0)
(0.0396766 0.318139 0)
(3 1.78351e-16 0)
(3 7.8461e-16 0)
(3 8.33404e-16 0)
(3 5.46307e-16 0)
(3 -2.40119e-16 0)
(3 -3.41179e-16 0)
(3 -6.21222e-16 0)
(3 -6.08926e-17 0)
(3 8.80139e-16 0)
(3 -1.1451e-16 0)
(3 -5.23874e-16 0)
(3 1.1949e-17 0)
(3 7.68531e-16 0)
(3 1.0961e-15 0)
(3 2.28809e-16 0)
(2.71201 0.204418 0)
(0.937816 0.31737 0)
(0.749894 0.337955 0)
(0.721597 0.357175 0)
(0.664015 0.370277 0)
(0.611167 0.358202 0)
(0.536295 0.242824 0)
(0.482299 0.182906 0)
(0.430195 0.217256 0)
(0.406938 0.422149 0)
(0.375931 0.533936 0)
(0.341386 0.552619 0)
(0.193508 0.499158 0)
(0.00857133 0.447882 0)
(0.0430573 0.427639 0)
(3 -3.59635e-16 0)
(3 -1.26648e-16 0)
(3 3.09521e-16 0)
(3 -5.16786e-16 0)
(3 -2.62082e-16 0)
(3 1.05373e-16 0)
(3 -7.12297e-16 0)
(3 -2.22597e-16 0)
(3 4.4912e-16 0)
(3 1.4072e-16 0)
(3 -8.54847e-16 0)
(3 -1.09356e-15 0)
(3 -5.55001e-16 0)
(3 3.24821e-16 0)
(3 5.7664e-16 0)
(2.8724 0.187081 0)
(1.02098 0.408144 0)
(0.790486 0.363712 0)
(0.754326 0.34982 0)
(0.687157 0.333443 0)
(0.595323 0.259846 0)
(0.524604 0.255551 0)
(0.473934 0.257352 0)
(0.48203 0.400802 0)
(0.446054 0.494139 0)
(0.40291 0.520746 0)
(0.310915 0.417246 0)
(0.181284 0.325423 0)
(0.046539 0.458475 0)
(0.0800573 0.624613 0)
(3 2.09485e-18 0)
(3 1.39343e-16 0)
(3 -1.90629e-16 0)
(3 -1.50544e-16 0)
(3 -5.56781e-17 0)
(3 -3.83598e-16 0)
(3 -4.48106e-16 0)
(3 -4.87663e-16 0)
(3 -9.17577e-16 0)
(3 -9.16782e-16 0)
(3 -4.98097e-16 0)
(3 -6.30414e-16 0)
(3 -2.15011e-16 0)
(3 5.59737e-16 0)
(3 -1.14159e-16 0)
(3.01378 0.105715 0)
(1.10251 0.411454 0)
(0.821656 0.379064 0)
(0.779293 0.345818 0)
(0.685858 0.257395 0)
(0.61698 0.23993 0)
(0.554182 0.27707 0)
(0.535919 0.429107 0)
(0.51372 0.50001 0)
(0.456309 0.514781 0)
(0.386635 0.426753 0)
(0.264581 0.285629 0)
(0.202796 0.3296 0)
(0.123334 0.505296 0)
(0.101903 0.682543 0)
(3 3.90998e-16 0)
(3 1.91532e-16 0)
(3 3.50053e-16 0)
(3 3.11041e-17 0)
(3 -5.14626e-16 0)
(3 -4.47575e-16 0)
(3 1.40492e-16 0)
(3 -1.16466e-15 0)
(3 -1.67222e-15 0)
(3 -4.38595e-16 0)
(3 2.42015e-16 0)
(3 3.54168e-16 0)
(3 -1.90636e-16 0)
(3 -3.51811e-16 0)
(3 -7.21715e-16 0)
(3.02916 0.0296327 0)
(1.1564 0.356407 0)
(0.84003 0.342164 0)
(0.780886 0.281629 0)
(0.700258 0.269946 0)
(0.642743 0.277443 0)
(0.629588 0.423296 0)
(0.582657 0.503225 0)
(0.530663 0.530957 0)
(0.448427 0.480328 0)
(0.3218 0.328237 0)
(0.283851 0.267149 0)
(0.237203 0.319069 0)
(0.223018 0.552586 0)
(0.117564 0.747695 0)
(3 -1.1697e-16 0)
(3 -8.79884e-16 0)
(3 -4.41734e-16 0)
(3 1.23153e-16 0)
(3 -6.03217e-16 0)
(3 -3.90397e-16 0)
(3 -2.18522e-16 0)
(3 -8.26854e-16 0)
(3 -1.35997e-15 0)
(3 -7.35458e-16 0)
(3 7.11942e-17 0)
(3 7.75785e-16 0)
(3 -3.14483e-16 0)
(3 -1.5739e-15 0)
(3 -1.13297e-15 0)
(3.01079 0.0134162 0)
(1.17039 0.283103 0)
(0.821988 0.288767 0)
(0.788214 0.286054 0)
(0.730646 0.318185 0)
(0.713905 0.450019 0)
(0.667594 0.470449 0)
(0.609194 0.471322 0)
(0.546132 0.416924 0)
(0.421026 0.290478 0)
(0.309754 0.374197 0)
(0.288894 0.441675 0)
(0.280637 0.58828 0)
(0.278677 0.683963 0)
(0.131806 0.691772 0)
(3 -3.96646e-17 0)
(3 -3.78691e-16 0)
(3 -3.62416e-16 0)
(3 4.34272e-16 0)
(3 -1.96264e-17 0)
(3 -3.2189e-16 0)
(3 -9.06527e-16 0)
(3 -6.85068e-16 0)
(3 -1.00187e-15 0)
(3 -1.45967e-15 0)
(3 -2.43492e-16 0)
(3 7.42481e-16 0)
(3 6.36689e-16 0)
(3 5.26262e-16 0)
(3 2.5857e-16 0)
(3.00396 0.00633412 0)
(1.18581 0.275369 0)
(0.791623 0.310147 0)
(0.804909 0.357962 0)
(0.785845 0.467137 0)
(0.735985 0.506268 0)
(0.674319 0.521982 0)
(0.608448 0.465525 0)
(0.498362 0.276004 0)
(0.439093 0.248276 0)
(0.385878 0.349335 0)
(0.392519 0.701366 0)
(0.286107 0.811866 0)
(0.235665 0.76858 0)
(0.10534 0.545456 0)
(3 5.79918e-17 0)
(3 5.47017e-16 0)
(3 5.89164e-16 0)
(3 2.99233e-17 0)
(3 2.09742e-16 0)
(3 3.60444e-16 0)
(3 -2.03064e-17 0)
(3 -1.10113e-15 0)
(3 -7.65711e-16 0)
(3 -1.69256e-15 0)
(3 -4.84385e-16 0)
(3 7.76593e-16 0)
(3 1.34259e-15 0)
(3 1.3998e-15 0)
(3 -1.63681e-16 0)
(3.00077 0.000977233 0)
(1.20069 0.307048 0)
(0.798322 0.366749 0)
(0.815091 0.444779 0)
(0.794155 0.473374 0)
(0.757381 0.475877 0)
(0.705174 0.447988 0)
(0.566268 0.319959 0)
(0.485014 0.321424 0)
(0.44411 0.340036 0)
(0.471961 0.562511 0)
(0.434704 0.743679 0)
(0.304623 0.80588 0)
(0.207726 0.766203 0)
(0.0844873 0.544555 0)
(3 -8.67045e-18 0)
(3 5.79428e-16 0)
(3 1.957e-16 0)
(3 -3.45246e-16 0)
(3 3.31165e-16 0)
(3 7.0742e-16 0)
(3 -9.03367e-17 0)
(3 -4.84504e-16 0)
(3 -1.39475e-15 0)
(3 -1.1716e-15 0)
(3 -5.70022e-16 0)
(3 2.79704e-16 0)
(3 -2.01978e-16 0)
(3 -3.78078e-17 0)
(3 -4.48971e-16 0)
(3.00006 -3.24688e-06 0)
(1.26737 0.367048 0)
(0.808988 0.422172 0)
(0.808321 0.472132 0)
(0.786047 0.496224 0)
(0.757102 0.472802 0)
(0.656658 0.320939 0)
(0.589504 0.295033 0)
(0.527717 0.350931 0)
(0.525772 0.596453 0)
(0.52367 0.701086 0)
(0.469419 0.806296 0)
(0.299746 0.836387 0)
(0.09674 0.651227 0)
(0.0936184 0.580046 0)
(3 -2.24129e-16 0)
(3 7.19324e-18 0)
(3 -5.87389e-16 0)
(3 -4.21181e-16 0)
(3 1.23117e-16 0)
(3 -1.137e-16 0)
(3 -4.79381e-16 0)
(3 -8.47104e-16 0)
(3 -1.10337e-15 0)
(3 -5.33261e-16 0)
(3 -1.09377e-15 0)
(3 -1.04248e-15 0)
(3 -9.82324e-16 0)
(3 -6.1698e-16 0)
(3 -2.32164e-16 0)
(3.00002 -3.10772e-05 0)
(1.368 0.398773 0)
(0.819994 0.432742 0)
(0.805074 0.447455 0)
(0.773337 0.419048 0)
(0.705947 0.340276 0)
(0.656329 0.337244 0)
(0.605739 0.366739 0)
(0.635462 0.596698 0)
(0.589004 0.679917 0)
(0.560999 0.678186 0)
(0.474501 0.598089 0)
(0.315678 0.49289 0)
(0.0944931 0.688603 0)
(0.0816236 0.663487 0)
(3 2.20719e-17 0)
(3 -1.82621e-16 0)
(3 -4.4499e-16 0)
(3 -3.39567e-17 0)
(3 1.38235e-16 0)
(3 -7.1676e-16 0)
(3 -9.30275e-16 0)
(3 -9.90596e-16 0)
(3 -1.50043e-15 0)
(3 -1.22791e-15 0)
(3 -2.12579e-15 0)
(3 -2.3866e-15 0)
(3 -6.20594e-16 0)
(3 -6.05858e-16 0)
(3 1.14312e-16 0)
(3 -1.35377e-05 0)
(1.49054 0.385932 0)
(0.835423 0.373023 0)
(0.769582 0.348344 0)
(0.733704 0.338551 0)
(0.696917 0.344177 0)
(0.672251 0.404325 0)
(0.69331 0.594084 0)
(0.677791 0.675069 0)
(0.635878 0.702038 0)
(0.577785 0.609056 0)
(0.480545 0.391629 0)
(0.417424 0.470394 0)
(0.251007 0.802814 0)
(0.233122 1.16514 0)
(3 1.78866e-16 0)
(3 4.68645e-17 0)
(3 3.41102e-16 0)
(3 4.12461e-16 0)
(3 1.48528e-16 0)
(3 -5.46756e-17 0)
(3 -1.16842e-16 0)
(3 3.92325e-17 0)
(3 -6.81325e-17 0)
(3 -1.56681e-16 0)
(3 -2.14809e-16 0)
(3 -7.04705e-16 0)
(3 -6.9778e-16 0)
(3 -3.32304e-16 0)
(3 3.56495e-16 0)
(3 -6.37448e-07 0)
(1.83278 0.406314 0)
(0.847029 0.407089 0)
(0.759326 0.409676 0)
(0.744884 0.438425 0)
(0.737411 0.486016 0)
(0.733353 0.537685 0)
(0.723231 0.562465 0)
(0.69141 0.555046 0)
(0.638009 0.543138 0)
(0.578422 0.560273 0)
(0.580282 0.655367 0)
(0.580615 0.790262 0)
(0.661576 0.975165 0)
(0.719302 1.32387 0)
(3 -7.59663e-17 0)
(3 1.16809e-16 0)
(3 1.73802e-16 0)
(3 9.57472e-17 0)
(3 4.34565e-16 0)
(3 8.34842e-16 0)
(3 9.13518e-16 0)
(3 6.16092e-16 0)
(3 6.74917e-16 0)
(3 6.03117e-16 0)
(3 4.59564e-16 0)
(3 1.19532e-16 0)
(3 -2.53462e-16 0)
(3 -3.5196e-16 0)
(3 3.41193e-16 0)
(3 -1.74361e-07 0)
(2.63464 0.291528 0)
(1.01378 0.526289 0)
(0.832317 0.491453 0)
(0.792223 0.488967 0)
(0.761428 0.504568 0)
(0.743714 0.520177 0)
(0.727172 0.538315 0)
(0.71442 0.57095 0)
(0.710981 0.618843 0)
(0.719819 0.69823 0)
(0.722856 0.790532 0)
(0.735529 0.887424 0)
(0.828488 0.981871 0)
(1.0872 1.04606 0)
(3 3.08973e-17 0)
(3 1.45783e-16 0)
(3 4.73835e-16 0)
(3 9.7811e-17 0)
(3 -6.0413e-18 0)
(3 1.52039e-16 0)
(3 -3.10499e-16 0)
(3 -4.60033e-16 0)
(3 -5.76292e-16 0)
(3 -6.05304e-16 0)
(3 -6.526e-16 0)
(3 -8.68019e-16 0)
(3 -8.17819e-16 0)
(3 -7.45185e-16 0)
(3 3.70363e-16 0)
(3 -1.64574e-08 0)
(3.05649 0.0251618 0)
(1.3804 0.553106 0)
(0.915735 0.537371 0)
(0.856114 0.522763 0)
(0.813459 0.531255 0)
(0.785651 0.549964 0)
(0.771003 0.580999 0)
(0.77241 0.626781 0)
(0.774898 0.676647 0)
(0.785711 0.725948 0)
(0.808197 0.789076 0)
(0.86473 0.872161 0)
(0.998179 0.967523 0)
(1.21668 1.02766 0)
(3 -2.71983e-17 0)
(3 -6.98867e-17 0)
(3 -1.50408e-17 0)
(3 -1.85306e-16 0)
(3 -5.65484e-16 0)
(3 -1.40271e-15 0)
(3 -1.253e-15 0)
(3 -7.92788e-16 0)
(3 -6.39787e-16 0)
(3 -1.16004e-15 0)
(3 -1.18889e-15 0)
(3 -1.08535e-15 0)
(3 -9.90467e-16 0)
(3 -7.01702e-16 0)
(3 1.06953e-16 0)
(3 -1.86405e-10 0)
(3.00227 0.000163485 0)
(2.03573 0.503087 0)
(0.983378 0.610988 0)
(0.906355 0.599915 0)
(0.881833 0.602815 0)
(0.855822 0.612382 0)
(0.836032 0.628469 0)
(0.829537 0.654249 0)
(0.83464 0.691061 0)
(0.859548 0.73963 0)
(0.897498 0.804656 0)
(0.981773 0.876399 0)
(1.1132 0.935982 0)
(1.29612 0.981403 0)
(3 4.08339e-17 0)
(3 -1.78516e-16 0)
(3 -7.97332e-16 0)
(3 -7.12456e-16 0)
(3 -4.4962e-16 0)
(3 -2.45038e-16 0)
(3 3.82387e-16 0)
(3 4.50828e-16 0)
(3 2.85678e-16 0)
(3 -1.30756e-16 0)
(3 4.93199e-17 0)
(3 1.74147e-16 0)
(3 -1.02167e-16 0)
(3 -4.72647e-16 0)
(3 -5.55157e-16 0)
(3 -1.99295e-13 0)
(3.00001 -4.97532e-07 0)
(2.99199 0.121913 0)
(1.24 0.61656 0)
(0.989476 0.622884 0)
(0.970313 0.628173 0)
(0.946987 0.640673 0)
(0.924692 0.652478 0)
(0.913823 0.673862 0)
(0.919883 0.706254 0)
(0.944725 0.748885 0)
(0.984921 0.800105 0)
(1.06455 0.852939 0)
(1.1804 0.892422 0)
(1.3349 0.923633 0)
(3 1.56559e-16 0)
(3 1.03618e-17 0)
(3 6.64003e-17 0)
(3 2.0431e-17 0)
(3 1.49109e-16 0)
(3 2.32568e-16 0)
(3 1.20127e-16 0)
(3 1.00869e-16 0)
(3 -6.32393e-17 0)
(3 2.84432e-16 0)
(3 9.69427e-16 0)
(3 1.25826e-15 0)
(3 1.27763e-15 0)
(3 5.7089e-16 0)
(3 -1.96088e-16 0)
(3 -1.78355e-15 0)
(3 -3.97674e-07 0)
(3.01476 0.00151228 0)
(1.70611 0.584247 0)
(1.01958 0.675284 0)
(0.986832 0.67734 0)
(0.986445 0.697506 0)
(0.984196 0.713802 0)
(0.986613 0.731262 0)
(0.998184 0.750844 0)
(1.02211 0.775027 0)
(1.06459 0.805931 0)
(1.13774 0.841989 0)
(1.23259 0.867192 0)
(1.3645 0.888551 0)
(3 -3.45529e-17 0)
(3 5.13458e-17 0)
(3 1.57879e-16 0)
(3 5.63562e-17 0)
(3 -9.96887e-17 0)
(3 -3.22153e-17 0)
(3 -6.5841e-17 0)
(3 -1.33476e-16 0)
(3 5.22238e-17 0)
(3 1.70801e-16 0)
(3 -8.19602e-17 0)
(3 2.52072e-16 0)
(3 4.51548e-16 0)
(3 4.55565e-16 0)
(3 6.14825e-17 0)
(3 3.84127e-16 0)
(3 -2.80117e-08 0)
(3.00009 9.66255e-06 0)
(2.80474 0.256344 0)
(1.22279 0.699169 0)
(1.03971 0.692416 0)
(1.04089 0.704825 0)
(1.04386 0.727469 0)
(1.05287 0.74621 0)
(1.06843 0.76459 0)
(1.09474 0.782687 0)
(1.13592 0.803666 0)
(1.19991 0.827636 0)
(1.27643 0.844702 0)
(1.38639 0.85847 0)
(3 -1.21162e-17 0)
(3 3.04765e-16 0)
(3 1.94889e-16 0)
(3 -1.42738e-16 0)
(3 -4.88436e-16 0)
(3 -3.47319e-16 0)
(3 3.45853e-16 0)
(3 3.6407e-16 0)
(3 -2.68876e-16 0)
(3 -4.26317e-16 0)
(3 -1.25366e-15 0)
(3 -1.42075e-15 0)
(3 -3.563e-16 0)
(3 8.12686e-16 0)
(3 7.89436e-16 0)
(3 8.07181e-16 0)
(3 -6.73313e-11 0)
(3.00001 -1.93239e-06 0)
(3.02966 0.00767968 0)
(1.75436 0.655757 0)
(1.09953 0.753898 0)
(1.07851 0.749122 0)
(1.08784 0.756101 0)
(1.10153 0.771535 0)
(1.12279 0.787952 0)
(1.15454 0.804503 0)
(1.19563 0.820271 0)
(1.25291 0.83371 0)
(1.31818 0.843552 0)
(1.41036 0.849717 0)
(3 9.6625e-17 0)
(3 -3.20117e-17 0)
(3 -1.17386e-16 0)
(3 -2.49458e-17 0)
(3 2.43013e-17 0)
(3 -6.06039e-18 0)
(3 -4.29906e-17 0)
(3 5.61152e-17 0)
(3 3.79454e-17 0)
(3 -3.97046e-16 0)
(3 -2.73854e-16 0)
(3 -2.0342e-16 0)
(3 3.26504e-16 0)
(3 5.39054e-16 0)
(3 4.77039e-16 0)
(3 3.43975e-16 0)
(3 1.31631e-12 0)
(3 -3.40005e-07 0)
(3.00035 0.000112832 0)
(2.89631 0.22706 0)
(1.37588 0.775597 0)
(1.13524 0.757936 0)
(1.15012 0.76172 0)
(1.15828 0.777792 0)
(1.17724 0.792508 0)
(1.20671 0.806955 0)
(1.24546 0.819943 0)
(1.29778 0.829747 0)
(1.35667 0.836599 0)
(1.43504 0.83853 0)
(3 2.52707e-16 0)
(3 9.1107e-17 0)
(3 1.27116e-16 0)
(3 4.29875e-16 0)
(3 6.59732e-16 0)
(3 4.56999e-16 0)
(3 -2.01212e-17 0)
(3 -2.64872e-16 0)
(3 2.51581e-16 0)
(3 1.03959e-15 0)
(3 1.45486e-15 0)
(3 1.47822e-15 0)
(3 3.00672e-16 0)
(3 -1.77893e-16 0)
(3 -1.00196e-16 0)
(3 -3.60093e-16 0)
(3 1.18378e-12 0)
(3 -1.5205e-08 0)
(3 4.18907e-08 0)
(3.0166 0.00562862 0)
(2.06129 0.63013 0)
(1.22709 0.81007 0)
(1.18215 0.811835 0)
(1.19764 0.809527 0)
(1.21518 0.816601 0)
(1.24393 0.824541 0)
(1.28061 0.832659 0)
(1.3302 0.839303 0)
(1.38475 0.843078 0)
(1.45302 0.842336 0)
(3 1.26572e-17 0)
(3 -1.97325e-17 0)
(3 5.59248e-17 0)
(3 1.6441e-16 0)
(3 4.68594e-16 0)
(3 6.39976e-16 0)
(3 1.00489e-15 0)
(3 9.53021e-16 0)
(3 9.55093e-16 0)
(3 1.25308e-15 0)
(3 1.50905e-15 0)
(3 1.60185e-15 0)
(3 9.17842e-16 0)
(3 5.21601e-16 0)
(3 4.66797e-16 0)
(3 2.08882e-16 0)
(3 2.47729e-13 0)
(3 -6.15985e-11 0)
(3 -8.58556e-10 0)
(3.00011 7.16236e-05 0)
(2.97333 0.11951 0)
(1.64828 0.789935 0)
(1.23462 0.832658 0)
(1.25083 0.826413 0)
(1.26018 0.829566 0)
(1.28308 0.831626 0)
(1.31463 0.834631 0)
(1.36034 0.837306 0)
(1.40901 0.838873 0)
(1.4694 0.837169 0)
(3 -3.1199e-16 0)
(3 -2.43319e-16 0)
(3 -2.03147e-16 0)
(3 -1.39044e-16 0)
(3 9.24073e-17 0)
(3 4.14015e-16 0)
(3 9.45414e-16 0)
(3 1.49658e-15 0)
(3 1.10214e-15 0)
(3 6.15994e-16 0)
(3 7.17088e-16 0)
(3 7.32443e-16 0)
(3 7.61305e-16 0)
(3 6.84045e-16 0)
(3 6.27409e-16 0)
(3 2.51059e-16 0)
(3 7.68378e-15 0)
(3 -5.11677e-14 0)
(3 -1.51569e-10 0)
(3 2.39945e-08 0)
(3.00367 0.00433274 0)
(2.6943 0.393757 0)
(1.48213 0.872921 0)
(1.28801 0.865211 0)
(1.30609 0.857503 0)
(1.32154 0.855149 0)
(1.34744 0.8521 0)
(1.38535 0.85014 0)
(1.42761 0.847073 0)
(1.47971 0.842988 0)
(3 -1.39166e-16 0)
(3 9.02268e-18 0)
(3 4.84235e-16 0)
(3 2.94796e-16 0)
(3 1.12469e-16 0)
(3 1.48478e-16 0)
(3 2.74793e-17 0)
(3 7.4351e-17 0)
(3 8.2564e-16 0)
(3 9.8324e-16 0)
(3 5.44167e-16 0)
(3 -3.53694e-16 0)
(3 -3.95161e-16 0)
(3 -1.93574e-16 0)
(3 -2.56877e-16 0)
(3 -3.57412e-16 0)
(3 5.7127e-17 0)
(3 3.46292e-17 0)
(3 -6.68953e-12 0)
(3 -5.25989e-12 0)
(3.00001 2.34985e-05 0)
(3.01273 0.0231189 0)
(2.27135 0.648772 0)
(1.39827 0.890537 0)
(1.34522 0.884825 0)
(1.37179 0.871205 0)
(1.39188 0.864281 0)
(1.42104 0.858423 0)
(1.45531 0.850812 0)
(1.49792 0.845018 0)
(3 -1.13476e-18 0)
(3 -1.20128e-16 0)
(3 -2.43946e-16 0)
(3 -1.78539e-16 0)
(3 -6.22182e-17 0)
(3 -1.45905e-16 0)
(3 -4.36298e-16 0)
(3 -6.97515e-16 0)
(3 -1.16673e-16 0)
(3 1.44807e-16 0)
(3 3.38897e-17 0)
(3 1.32676e-16 0)
(3 -6.34728e-17 0)
(3 -2.09265e-16 0)
(3 -1.97889e-16 0)
(3 -1.65175e-16 0)
(3 -3.55754e-16 0)
(3 -1.5677e-16 0)
(3 -3.32728e-14 0)
(3 -1.13671e-12 0)
(3 6.10956e-09 0)
(3.00017 0.000488298 0)
(2.98609 0.0959685 0)
(1.92332 0.773798 0)
(1.41109 0.899658 0)
(1.41048 0.900193 0)
(1.43702 0.89104 0)
(1.45958 0.883641 0)
(1.48732 0.872124 0)
(1.51998 0.863404 0)
(3 -5.05524e-17 0)
(3 -2.2789e-16 0)
(3 -6.42514e-16 0)
(3 -9.19224e-16 0)
(3 -5.65438e-16 0)
(3 -4.93238e-16 0)
(3 -5.33226e-16 0)
(3 -9.81553e-16 0)
(3 -1.20668e-15 0)
(3 -7.7457e-16 0)
(3 -4.12927e-17 0)
(3 2.80225e-16 0)
(3 3.19553e-16 0)
(3 1.71609e-16 0)
(3 2.51824e-16 0)
(3 3.20151e-17 0)
(3 -6.98406e-16 0)
(3 -6.96459e-16 0)
(3 -5.84252e-17 0)
(3 -9.6329e-14 0)
(3 6.8125e-13 0)
(3 4.35599e-07 0)
(3.0011 0.00368582 0)
(2.84655 0.244253 0)
(1.77119 0.848158 0)
(1.45635 0.919213 0)
(1.47348 0.914734 0)
(1.49796 0.905434 0)
(1.52279 0.893664 0)
(1.55008 0.881565 0)
(3 7.79186e-17 0)
(3 2.18027e-16 0)
(3 1.02204e-16 0)
(3 -1.23488e-17 0)
(3 -2.50343e-16 0)
(3 -4.30427e-16 0)
(3 -9.815e-16 0)
(3 -8.47747e-16 0)
(3 -4.58998e-16 0)
(3 -1.31166e-16 0)
(3 1.25407e-17 0)
(3 -1.24769e-16 0)
(3 -8.34452e-19 0)
(3 4.63131e-16 0)
(3 6.24725e-17 0)
(3 -1.70376e-16 0)
(3 1.32571e-16 0)
(3 7.69414e-16 0)
(3 9.12231e-16 0)
(3 -1.52242e-15 0)
(3 -3.698e-15 0)
(3 9.79975e-11 0)
(3 1.15307e-05 0)
(3.00103 0.0135976 0)
(2.67087 0.393655 0)
(1.71077 0.888837 0)
(1.50263 0.931905 0)
(1.52591 0.925058 0)
(1.55413 0.913835 0)
(1.57918 0.901644 0)
(3 1.86179e-16 0)
(3 6.22262e-17 0)
(3 1.49873e-16 0)
(3 1.34358e-16 0)
(3 -3.43512e-16 0)
(3 -5.22187e-16 0)
(3 -3.47074e-16 0)
(3 -3.23182e-16 0)
(3 -2.36851e-16 0)
(3 1.75249e-16 0)
(3 3.28849e-16 0)
(3 3.02405e-16 0)
(3 2.24902e-16 0)
(3 1.16406e-16 0)
(3 -8.19826e-17 0)
(3 -1.24799e-17 0)
(3 6.02207e-16 0)
(3 1.0762e-15 0)
(3 1.09416e-15 0)
(3 6.90465e-16 0)
(3 -6.03179e-16 0)
(3 8.00821e-15 0)
(3 4.17529e-09 0)
(2.99999 0.000122242 0)
(2.99591 0.0296988 0)
(2.50584 0.512585 0)
(1.6941 0.911547 0)
(1.54754 0.940292 0)
(1.57363 0.932727 0)
(1.60477 0.918341 0)
(3 -9.40924e-17 0)
(3 -3.65307e-16 0)
(3 -3.5045e-16 0)
(3 -1.3236e-16 0)
(3 -3.25806e-16 0)
(3 -3.08157e-16 0)
(3 -1.56539e-17 0)
(3 -6.93258e-17 0)
(3 -2.53645e-16 0)
(3 -2.29255e-16 0)
(3 -1.16001e-16 0)
(3 -4.22438e-18 0)
(3 -2.68624e-16 0)
(3 -7.64577e-16 0)
(3 -5.64604e-16 0)
(3 7.60689e-17 0)
(3 5.62389e-16 0)
(3 1.01529e-15 0)
(3 1.08026e-15 0)
(3 1.42233e-15 0)
(3 9.58046e-16 0)
(3 -4.15285e-16 0)
(3 4.97648e-13 0)
(3 7.87728e-08 0)
(2.99996 0.000514638 0)
(2.98163 0.0530031 0)
(2.38404 0.59414 0)
(1.70476 0.926457 0)
(1.59077 0.946598 0)
(1.61911 0.938152 0)
(3 -1.20916e-16 0)
(3 -2.42514e-17 0)
(3 5.20283e-17 0)
(3 1.59324e-16 0)
(3 1.6024e-16 0)
(3 3.64744e-16 0)
(3 2.36054e-16 0)
(3 3.75251e-16 0)
(3 8.51863e-17 0)
(3 -7.51668e-16 0)
(3 -6.20232e-16 0)
(3 -3.17036e-16 0)
(3 -4.30666e-16 0)
(3 -4.61832e-16 0)
(3 -3.65267e-16 0)
(3 3.96608e-16 0)
(3 7.61203e-16 0)
(3 8.04864e-16 0)
(3 6.51892e-16 0)
(3 8.38609e-16 0)
(3 1.20357e-15 0)
(3 1.00195e-15 0)
(3 -1.97775e-16 0)
(3 1.97969e-11 0)
(3 5.31235e-07 0)
(2.99986 0.00136487 0)
(2.95904 0.081394 0)
(2.31811 0.642262 0)
(1.72916 0.940556 0)