/*--------------------------------*- C++ -*----------------------------------*\
  =========                 |
  \\      /  F ield         | OpenFOAM: The Open Source CFD Toolbox
   \\    /   O peration     | Website:  https://openfoam.org
    \\  /    A nd           | Version:  6.0
     \\/     M anipulation  |
\*---------------------------------------------------------------------------*/
FoamFile
{
    version     2.0;
    format      ascii;
    class       volScalarField;
    location    "4";
    object      p;
}
// * * * * * * * * * * * * * * * * * * * * * * * * * * * * * * * * * * * * * //

dimensions      [1 -1 -2 0 0 0 0];

internalField   nonuniform List<scalar> 
300
(
0.98944
1.0172
1.05596
0.936981
2.67439
3.95922
9.99479
10.8643
10.7448
10.9471
0.989364
1.01697
1.05549
0.937048
2.66857
3.9496
9.97086
10.8324
10.7112
10.9443
0.989183
1.01648
1.05439
0.93649
2.65719
3.92509
9.91255
10.7601
10.6344
10.9092
0.988921
1.01572
1.05265
0.93565
2.6393
3.88222
9.8135
10.6538
10.5254
10.8319
0.988594
1.0147
1.05027
0.934506
2.61428
3.81833
9.67028
10.5193
10.3905
10.7145
0.988227
1.01345
1.04724
0.933061
2.58164
3.73177
9.47976
10.3585
10.2284
10.5542
0.987872
1.01201
1.04369
0.931817
2.54059
3.62225
9.23978
10.1712
10.0354
10.3413
0.987539
1.01044
1.03959
0.930395
2.49138
3.4889
8.94892
9.95639
9.80559
10.0573
0.987375
1.00898
1.03545
0.931805
2.43063
3.33086
8.60745
9.71182
9.53289
9.67126
0.98748
1.00771
1.03111
0.935607
2.36342
3.13008
8.2291
9.43973
9.21277
9.12068
0.99267
1.00826
0.992545
0.96275
2.18182
2.34692
7.24248
8.7244
8.33174
6.99735
1.00105
1.01899
1.06506
1.02835
1.80343
1.83118
5.35448
7.73682
7.49686
6.53483
1.00569
1.0104
1.05065
1.04917
1.41889
1.38733
3.65659
6.4588
6.71132
6.28849
1.00452
1.0066
1.00727
1.07492
1.20833
1.15969
2.5742
4.32933
5.883
5.74132
1.00017
1.01118
1.00628
1.02685
1.0508
0.99347
1.87915
2.16967
4.44028
4.90323
1.00119
1.0014
1.00851
1.01233
1.04836
1.0468
1.36192
1.36848
2.53304
3.87083
1.00071
1.00014
1.00186
1.00262
0.999434
1.04753
1.10663
1.10059
1.57869
2.06656
1.0002
1.00029
1.00133
1.00115
1.00805
1.01107
1.04357
1.03232
1.29613
1.35696
0.999986
1.00036
1.00046
1.00197
1.00234
1.01034
1.01012
1.00936
1.11495
1.10707
1.00005
1.00009
1.00062
1.00145
1.00211
1.00901
1.00939
1.04537
1.07914
1.08684
2.66527
1.89892
2.0207
2.39862
3.19065
4.09414
4.16456
4.15568
4.12359
4.04701
3.24072
2.34109
2.39006
2.57346
3.06711
4.03462
4.18566
4.16774
4.11419
4.00252
3.95778
2.75363
2.5845
2.68309
3.04006
3.84047
4.16034
4.13895
4.07056
3.93204
4.29047
3.08798
2.87823
2.94485
3.17515
3.70482
4.02888
4.01358
3.95586
3.83321
4.34623
3.48231
3.25823
3.29556
3.41017
3.66366
3.80447
3.79287
3.75785
3.68706
4.24957
4.04796
3.77218
3.77482
3.76439
3.71671
3.60858
3.5196
3.50825
3.50406
3.99529
4.51613
4.48535
4.40939
4.22489
3.82541
3.44707
3.2517
3.25716
3.28101
3.40479
5.28566
5.27243
5.1267
4.72595
3.92395
3.36787
3.03248
3.03531
3.06183
2.46076
6.25787
6.16426
5.83113
5.07768
4.03243
3.33925
2.90096
2.8664
2.89037
2.47409
6.85442
6.76334
6.28431
5.24929
4.09098
3.33369
2.84904
2.77474
2.79569
)
;

boundaryField
{
    inlet
    {
        type            fixedValue;
        value           uniform 1;
    }
    outlet
    {
        type            waveTransmissive;
        gamma           1.4;
        fieldInf        1;
        lInf            3;
        value           nonuniform List<scalar> 10(3.92065 3.87824 3.81019 3.71509 3.57331 3.39481 3.17793 2.96546 2.79957 2.70804);
    }
    top
    {
        type            symmetryPlane;
    }
    bottom
    {
        type            symmetryPlane;
    }
    step
    {
        type            zeroGradient;
    }
    defaultFaces
    {
        type            empty;
    }
}


// ************************************************************************* //
