/*--------------------------------*- C++ -*----------------------------------*\
  =========                 |
  \\      /  F ield         | OpenFOAM: The Open Source CFD Toolbox
   \\    /   O peration     | Website:  https://openfoam.org
    \\  /    A nd           | Version:  6.0
     \\/     M anipulation  |
\*---------------------------------------------------------------------------*/
FoamFile
{
    version     2.0;
    format      ascii;
    class       volScalarField;
    location    "4";
    object      p;
}
// * * * * * * * * * * * * * * * * * * * * * * * * * * * * * * * * * * * * * //

dimensions      [1 -1 -2 0 0 0 0];

internalField   nonuniform List<scalar> 
3000
(
0.670091
0.550806
0.527019
0.530574
0.55081
0.627231
0.912912
1.75763
5.26016
5.2055
0.67006
0.550789
0.526932
0.530471
0.550655
0.626951
0.912306
1.76072
5.23576
5.18601
0.669985
0.550753
0.526723
0.530217
0.550241
0.626065
0.909841
1.75305
5.20838
5.15691
0.66985
0.550699
0.526358
0.529771
0.549497
0.624407
0.905178
1.73602
5.17822
5.11082
0.669641
0.550623
0.5258
0.529087
0.548354
0.62187
0.898261
1.7121
5.12089
5.03456
0.66933
0.550523
0.524978
0.528079
0.546672
0.618129
0.888046
1.67508
5.02325
4.92379
0.66889
0.550381
0.523811
0.526661
0.544357
0.61312
0.874331
1.62758
4.87897
4.77106
0.668268
0.550132
0.522131
0.524684
0.541215
0.605911
0.854513
1.55557
4.66911
4.55949
0.667408
0.549568
0.520065
0.522351
0.537749
0.598498
0.831403
1.48593
4.3782
4.27194
0.666292
0.548812
0.517471
0.519434
0.533412
0.588996
0.800251
1.39258
3.94997
3.84733
1.07241
1.07367
1.08229
1.11819
1.22133
1.48488
2.164
4.27482
12.9742
12.3188
1.07237
1.0736
1.08214
1.11789
1.2207
1.48353
2.16063
4.26241
12.9209
12.4191
1.07228
1.07345
1.08182
1.11724
1.21938
1.48067
2.1539
4.23905
12.8327
12.3183
1.07213
1.07319
1.08129
1.11618
1.21719
1.47596
2.14269
4.20165
12.6824
12.0904
1.07189
1.07279
1.08049
1.11458
1.21396
1.46903
2.12615
4.14582
12.4491
11.7758
1.07153
1.07221
1.07933
1.1123
1.20938
1.45925
2.10264
4.06928
12.1263
11.3796
1.071
1.07135
1.07767
1.10915
1.2032
1.44607
2.07097
3.96643
11.6926
10.8946
1.07008
1.07005
1.07549
1.10513
1.19512
1.42857
2.02714
3.83507
11.1266
10.2916
1.06818
1.06783
1.0727
1.10037
1.18528
1.40614
1.97063
3.65603
10.3792
9.56185
1.06574
1.06503
1.06922
1.09454
1.17311
1.37769
1.8957
3.41804
9.36711
8.63681
1.09181
1.18011
1.22095
1.30339
1.47776
1.87066
2.84979
5.87829
18.2058
17.2663
1.09179
1.18005
1.22079
1.30302
1.47696
1.86884
2.84524
5.86227
18.1578
17.2024
1.09177
1.17989
1.22044
1.30226
1.47528
1.86502
2.83561
5.82878
18.0347
16.9869
1.09173
1.17961
1.21988
1.30104
1.47258
1.85883
2.81991
5.77401
17.7818
16.5794
1.09167
1.17916
1.21901
1.29923
1.46861
1.84975
2.79674
5.69283
17.4006
16.0635
1.09158
1.17843
1.21773
1.29668
1.46313
1.8372
2.76451
5.58142
16.8902
15.4498
1.09144
1.17727
1.21593
1.29328
1.45586
1.82039
2.72101
5.43325
16.2332
14.7187
1.09115
1.1754
1.21461
1.28938
1.44639
1.79794
2.66309
5.24264
15.3984
13.8588
1.09048
1.17263
1.21333
1.2847
1.43441
1.76892
2.58748
4.99507
14.3433
12.8419
1.08957
1.1692
1.21194
1.27907
1.41967
1.73261
2.49115
4.67917
13.0013
11.6166
1.0495
1.14897
1.19979
1.30148
1.51463
1.98802
3.15849
6.81417
21.5455
20.1844
1.0495
1.14891
1.19965
1.30114
1.51382
1.98608
3.1535
6.79726
21.5
20.0531
1.04949
1.14878
1.19942
1.30045
1.51209
1.98189
3.14254
6.75915
21.3508
19.7188
1.04948
1.14851
1.19913
1.29936
1.50931
1.97508
3.12448
6.69353
21.0298
19.1711
1.04948
1.14807
1.19868
1.29778
1.50524
1.96511
3.09782
6.59536
20.5487
18.5017
1.04946
1.14732
1.19805
1.29561
1.49969
1.95145
3.06099
6.46053
19.9212
17.7327
1.04943
1.1461
1.19731
1.29281
1.49238
1.93322
3.01151
6.28257
19.1311
16.8317
1.04935
1.14417
1.19712
1.28979
1.48316
1.90929
2.94635
6.05391
18.1433
15.8071
1.04916
1.14147
1.19732
1.2863
1.4716
1.87858
2.86247
5.76672
16.9163
14.6045
1.0489
1.13814
1.1978
1.28217
1.45735
1.84036
2.75756
5.41177
15.4422
13.2151
1.01918
1.09739
1.15402
1.26578
1.49687
2.00624
3.26686
7.24092
23.1908
21.5188
1.01917
1.09735
1.15397
1.26549
1.49608
2.00425
3.26178
7.22399
23.1447
21.366
1.01915
1.09723
1.15394
1.26495
1.49441
1.99994
3.25047
7.18422
22.9805
20.9689
1.01911
1.09699
1.15398
1.26412
1.49174
1.99297
3.23157
7.11351
22.6233
20.34
1.01903
1.09659
1.15406
1.26295
1.48789
1.98283
3.20354
7.00707
22.0928
19.5859
1.0189
1.0959
1.15425
1.26141
1.48265
1.96889
3.16464
6.86053
21.4139
18.7318
1.01869
1.09477
1.15473
1.25957
1.47581
1.9503
3.11251
6.66779
20.5667
17.7429
1.01837
1.09307
1.1558
1.25755
1.46717
1.92609
3.04429
6.42101
19.5099
16.6304
1.01795
1.09078
1.15754
1.25527
1.45633
1.89524
2.9576
6.11698
18.2268
15.2935
1.01743
1.088
1.1599
1.25257
1.44289
1.85684
2.84977
5.74609
16.6916
13.8398
1.01918
1.09739
1.15402
1.26579
1.49689
2.00629
3.26698
7.24131
23.1926
21.5214
1.01917
1.09735
1.15397
1.2655
1.4961
2.0043
3.2619
7.22439
23.1466
21.3686
1.01915
1.09723
1.15395
1.26496
1.49443
1.99999
3.25059
7.18463
22.9826
20.9715
1.01911
1.097
1.15399
1.26413
1.49177
1.99302
3.23169
7.11389
22.6256
20.3428
1.01903
1.09659
1.15407
1.26296
1.48791
1.98288
3.20364
7.0074
22.0955
19.5892
1.0189
1.0959
1.15426
1.26142
1.48267
1.96892
3.16472
6.86082
21.4173
18.7356
1.01869
1.09478
1.15475
1.25958
1.47583
1.95034
3.11258
6.66813
20.5707
17.7473
1.01838
1.09308
1.15581
1.25756
1.4672
1.92614
3.04439
6.42172
19.5173
16.6139
1.01795
1.09079
1.15755
1.25528
1.45635
1.89529
2.95775
6.11888
18.2854
15.2112
1.01744
1.08802
1.15991
1.25259
1.44292
1.85689
2.84991
5.74702
16.7043
13.8408
1.0495
1.14897
1.1998
1.30151
1.51469
1.98814
3.15881
6.81532
21.5507
20.1917
1.0495
1.14892
1.19966
1.30116
1.51388
1.98621
3.15385
6.79846
21.5055
20.0603
1.04949
1.14878
1.19944
1.30048
1.51216
1.98203
3.1429
6.76037
21.3567
19.7256
1.04949
1.14852
1.19914
1.2994
1.50937
1.97522
3.12483
6.69466
21.0364
19.1784
1.04948
1.14808
1.1987
1.29782
1.50531
1.96525
3.09814
6.59633
20.5562
18.51
1.04947
1.14734
1.19808
1.29565
1.49976
1.95159
3.06125
6.46131
19.9302
17.7425
1.04944
1.14613
1.19735
1.29286
1.49245
1.93335
3.01175
6.28331
19.1426
16.8443
1.04936
1.14421
1.19716
1.28983
1.48323
1.90942
2.94663
6.05517
18.1592
15.8174
1.04917
1.1415
1.19735
1.28635
1.47168
1.87874
2.86291
5.76962
16.9785
14.5989
1.04891
1.13818
1.19783
1.28222
1.45743
1.84052
2.75796
5.41338
15.4638
13.2192
1.09181
1.18012
1.22097
1.30342
1.47784
1.87084
2.85026
5.88012
18.2142
17.277
1.0918
1.18005
1.22081
1.30306
1.47704
1.86902
2.84573
5.86415
18.166
17.2118
1.09177
1.1799
1.22047
1.30231
1.47537
1.86522
2.83613
5.83068
18.0433
16.9953
1.09173
1.17963
1.2199
1.30109
1.47269
1.85906
2.82046
5.77576
17.7915
16.5888
1.09167
1.17918
1.21904
1.29929
1.46874
1.85001
2.79732
5.69438
17.4113
16.0738
1.09159
1.17846
1.21777
1.29676
1.46328
1.83749
2.76509
5.58249
16.9023
15.4616
1.09146
1.17731
1.21598
1.29337
1.45601
1.82069
2.72158
5.43386
16.2474
14.7328
1.09118
1.17545
1.21467
1.28947
1.44654
1.79823
2.66366
5.24323
15.4162
13.8755
1.09051
1.17269
1.21338
1.28479
1.43459
1.76926
2.58822
4.99673
14.3749
12.8596
1.0896
1.16925
1.21199
1.27916
1.41983
1.73294
2.49186
4.68085
13.0209
11.6247
1.07242
1.07368
1.08231
1.11823
1.22142
1.48508
2.16454
4.27705
12.9838
12.3293
1.07238
1.07361
1.08216
1.11793
1.22079
1.48371
2.16108
4.26434
12.9294
12.4256
1.07229
1.07346
1.08185
1.11729
1.21947
1.48088
2.15438
4.24106
12.8417
12.3258
1.07214
1.0732
1.08132
1.11624
1.21732
1.47623
2.1433
4.20361
12.6922
12.0989
1.0719
1.07281
1.08054
1.11466
1.21412
1.46937
2.12693
4.14786
12.4593
11.7849
1.07156
1.07224
1.07938
1.1124
1.20959
1.4597
2.10364
4.07096
12.1373
11.3894
1.07104
1.0714
1.07774
1.10927
1.20344
1.44663
2.07215
3.96748
11.7043
10.9052
1.07014
1.07011
1.07558
1.10528
1.1954
1.42907
2.02859
3.83561
11.1399
10.3024
1.06824
1.0679
1.07279
1.10051
1.18556
1.40673
1.97214
3.65719
10.3948
9.57339
1.0658
1.06509
1.06931
1.09467
1.17335
1.37819
1.89697
3.42002
9.38142
8.64272
0.670098
0.550809
0.527042
0.530603
0.550866
0.627387
0.91334
1.75964
5.26093
5.20757
0.670066
0.550792
0.526952
0.530496
0.550697
0.627044
0.912552
1.76144
5.24199
5.18904
0.669991
0.550757
0.526744
0.530243
0.550283
0.626149
0.910078
1.75368
5.21493
5.16257
0.669859
0.550703
0.526386
0.529805
0.549555
0.624533
0.905559
1.73764
5.18264
5.11658
0.669654
0.550629
0.525837
0.529133
0.548434
0.622051
0.898837
1.71499
5.12542
5.0399
0.66935
0.550531
0.525029
0.528143
0.546784
0.618396
0.888931
1.68036
5.02902
4.92892
0.668919
0.550392
0.523878
0.526744
0.544502
0.613459
0.875502
1.63521
4.88595
4.7759
0.668318
0.55014
0.522224
0.524806
0.54147
0.606753
0.856285
1.56514
4.67811
4.56451
0.667451
0.549585
0.520152
0.52246
0.537951
0.599052
0.832944
1.49405
4.38648
4.27667
0.666328
0.548831
0.517548
0.519529
0.533581
0.589431
0.801405
1.39802
3.9583
3.85091
0.66268
0.546421
0.509175
0.510032
0.519305
0.558803
0.704849
1.14707
2.53309
2.40032
0.658362
0.543138
0.498253
0.494794
0.499335
0.521777
0.602421
0.884436
1.66214
1.64193
0.655451
0.532642
0.484102
0.470331
0.471303
0.478813
0.508459
0.610239
0.859772
1.3861
0.652773
0.529537
0.481116
0.443805
0.436814
0.438034
0.446149
0.476349
0.563623
0.77269
0.65155
0.529163
0.479106
0.442066
0.420278
0.417284
0.419011
0.427836
0.457667
0.538225
0.652676
0.528396
0.478884
0.44183
0.414737
0.409875
0.410581
0.415348
0.432718
0.484468
0.652893
0.528185
0.478889
0.440971
0.411848
0.398206
0.396129
0.397123
0.402476
0.42029
0.652234
0.528457
0.478781
0.440807
0.411989
0.395133
0.392179
0.392623
0.395673
0.405613
0.651463
0.528737
0.47861
0.440578
0.41208
0.392483
0.387942
0.388173
0.390396
0.399273
0.652032
0.528135
0.478678
0.440362
0.412095
0.393178
0.388931
0.389293
0.391788
0.402174
1.05828
1.05644
1.05858
1.07694
1.13721
1.29536
1.68556
2.7685
6.14953
5.75504
1.04935
1.0462
1.04085
1.05087
1.08991
1.19728
1.46526
2.16129
4.21682
4.11279
1.03387
1.02728
1.00997
1.01134
1.02431
1.06676
1.17601
1.43361
2.04306
3.42655
1.02824
1.02135
1.00264
0.964417
0.965266
0.973563
0.999677
1.06445
1.21021
1.42024
1.02654
1.01941
0.999608
0.95908
0.939088
0.941841
0.954402
0.989384
1.07279
1.26131
1.02695
1.01948
0.999226
0.957823
0.929914
0.93107
0.939317
0.964728
1.02817
1.1764
1.02683
1.01923
0.998644
0.956442
0.924235
0.91249
0.914696
0.924325
0.950537
1.0126
1.0265
1.01896
0.998402
0.956343
0.924113
0.907981
0.909375
0.91678
0.938217
0.990879
1.02604
1.01859
0.998093
0.956163
0.923926
0.902603
0.902864
0.906768
0.919708
0.952509
1.02616
1.01857
0.997964
0.955624
0.92393
0.903856
0.904434
0.909012
0.923915
0.959257
1.08681
1.15913
1.2073
1.26184
1.37538
1.62445
2.20852
3.79353
8.63513
8.04884
1.08368
1.1485
1.19585
1.23583
1.31859
1.49824
1.90974
2.97177
6.15446
5.95005
1.07324
1.13913
1.16905
1.20042
1.23965
1.32105
1.49653
1.89275
2.76382
4.84505
1.06859
1.13671
1.16471
1.1712
1.18482
1.21256
1.25194
1.33135
1.4666
1.75028
1.06808
1.13523
1.16208
1.16499
1.17116
1.18463
1.21288
1.27156
1.39525
1.66926
1.06837
1.13517
1.16166
1.16335
1.16714
1.17716
1.19937
1.24635
1.34668
1.56942
1.06864
1.1349
1.16073
1.16173
1.16331
1.1678
1.17834
1.20045
1.24666
1.3447
1.06907
1.13435
1.15989
1.16163
1.16285
1.16642
1.17515
1.19393
1.23374
1.31943
1.06914
1.13387
1.15924
1.1615
1.16204
1.16397
1.16956
1.18163
1.20641
1.2579
1.06906
1.13389
1.15932
1.16103
1.16184
1.16429
1.17075
1.18453
1.21328
1.27398
1.04813
1.12868
1.1986
1.26887
1.41314
1.72279
2.4379
4.37449
10.2794
9.52045
1.04852
1.1193
1.19348
1.24742
1.35647
1.5858
2.09882
3.42194
7.47519
7.18365
1.04253
1.11825
1.17225
1.23143
1.28431
1.3913
1.61565
2.11563
3.19223
5.75878
1.03995
1.11838
1.17122
1.21675
1.25205
1.29968
1.3469
1.44147
1.58999
1.91392
1.03961
1.11782
1.16967
1.21086
1.2464
1.2825
1.31843
1.39069
1.53985
1.86678
1.03966
1.1178
1.16932
1.20959
1.24541
1.27896
1.30872
1.36853
1.49224
1.76156
1.03974
1.11796
1.16817
1.20892
1.24409
1.2751
1.29915
1.32812
1.38688
1.50886
1.04013
1.11784
1.1668
1.20877
1.24416
1.27499
1.29806
1.32295
1.37341
1.47834
1.0403
1.11764
1.1659
1.20875
1.2437
1.27427
1.29515
1.31425
1.3454
1.40855
1.04024
1.11753
1.16618
1.20843
1.24357
1.27426
1.29561
1.31555
1.35233
1.42749
1.016
1.08026
1.16612
1.24322
1.40037
1.73667
2.51442
4.63022
11.0992
10.2443
1.01785
1.07234
1.16706
1.22626
1.34559
1.59633
2.15794
3.61303
8.12745
7.79658
1.01536
1.07718
1.14899
1.22246
1.28071
1.39872
1.64665
2.2012
3.38919
6.2099
1.01565
1.0789
1.14991
1.21276
1.26254
1.32354
1.37522
1.47888
1.63703
1.98163
1.01567
1.07924
1.14876
1.20764
1.26134
1.31274
1.35179
1.42999
1.5906
1.94157
1.01562
1.07918
1.14848
1.20647
1.26137
1.31218
1.34497
1.41033
1.54437
1.8345
1.0157
1.07946
1.1473
1.20581
1.26152
1.31039
1.34384
1.37554
1.43964
1.57233
1.01583
1.07963
1.14579
1.2057
1.26187
1.31053
1.34378
1.37103
1.426
1.53966
1.01588
1.07979
1.14484
1.20576
1.26183
1.3104
1.34235
1.36596
1.40024
1.46951
1.01583
1.07956
1.14519
1.20558
1.26171
1.31048
1.3426
1.36635
1.40644
1.48816
1.016
1.08026
1.16613
1.24323
1.40039
1.73669
2.51446
4.63026
11.1005
10.2473
1.01786
1.07234
1.16707
1.22626
1.3456
1.59632
2.15791
3.61287
8.12722
7.79619
1.01536
1.07718
1.14899
1.22246
1.28069
1.39867
1.64651
2.20083
3.38823
6.20712
1.01565
1.0789
1.14991
1.21276
1.26254
1.32353
1.37521
1.47888
1.6369
1.98116
1.01567
1.07924
1.14875
1.20764
1.26135
1.31271
1.35171
1.4298
1.59019
1.94066
1.01562
1.07917
1.14848
1.20647
1.26136
1.31217
1.34489
1.41013
1.54387
1.83331
1.01569
1.07943
1.14724
1.20581
1.26145
1.31039
1.34376
1.37517
1.43868
1.57005
1.01582
1.07962
1.14581
1.2057
1.26175
1.31043
1.34366
1.37084
1.42567
1.5391
1.01589
1.07984
1.14491
1.20577
1.26187
1.31041
1.34242
1.3662
1.40135
1.47238
1.01584
1.07961
1.14524
1.2057
1.26165
1.31065
1.34273
1.36649
1.40708
1.48964
1.04813
1.1287
1.19863
1.2689
1.41319
1.72286
2.438
4.37474
10.2832
9.52294
1.04853
1.11929
1.19351
1.24743
1.35648
1.58578
2.09875
3.42163
7.47463
7.1829
1.04253
1.11825
1.17224
1.23143
1.28426
1.39116
1.61529
2.11469
3.1896
5.75154
1.03995
1.11838
1.17122
1.21674
1.25203
1.29964
1.34685
1.44141
1.58952
1.91252
1.0396
1.11783
1.16967
1.21085
1.24639
1.2824
1.31818
1.39013
1.53862
1.86401
1.03966
1.1178
1.16931
1.20958
1.24538
1.2789
1.30851
1.36801
1.49098
1.7585
1.03974
1.11785
1.16804
1.20892
1.24394
1.27501
1.29874
1.32692
1.38405
1.50247
1.03994
1.118
1.16686
1.20865
1.2438
1.27469
1.29767
1.32225
1.37209
1.47572
1.0403
1.11782
1.16607
1.20877
1.24379
1.27437
1.29546
1.31499
1.34816
1.41557
1.04027
1.11771
1.16631
1.20869
1.24349
1.27459
1.2958
1.31557
1.35318
1.42989
1.08682
1.15917
1.20734
1.2619
1.37547
1.6246
2.20881
3.79436
8.64149
8.0531
1.08368
1.14849
1.19588
1.23586
1.31862
1.49825
1.90972
2.97165
6.15495
5.9499
1.07323
1.13913
1.16903
1.20041
1.23959
1.32088
1.49611
1.89168
2.76075
4.83599
1.06859
1.13671
1.16469
1.17118
1.18478
1.21246
1.25178
1.33105
1.4657
1.74804
1.06807
1.13524
1.16208
1.16495
1.17105
1.1844
1.21244
1.27068
1.39335
1.66499
1.06837
1.13516
1.16165
1.16331
1.16708
1.17702
1.19909
1.24574
1.34537
1.56665
1.06857
1.13472
1.16058
1.16177
1.16318
1.1673
1.17721
1.19819
1.2422
1.33567
1.06894
1.13466
1.1599
1.1611
1.16236
1.16591
1.17447
1.19264
1.23092
1.31281
1.0692
1.13414
1.15942
1.1615
1.16213
1.16418
1.16993
1.1823
1.20794
1.26181
1.06918
1.13417
1.15951
1.16128
1.16193
1.16397
1.16964
1.18247
1.21049
1.27209
1.05832
1.05648
1.05863
1.07701
1.13733
1.29559
1.68607
2.76988
6.15705
5.76065
1.04935
1.0462
1.04088
1.05091
1.08996
1.19735
1.46536
2.16159
4.21823
4.11359
1.03386
1.02727
1.00995
1.01132
1.02425
1.06664
1.17573
1.43296
2.04106
3.42004
1.02822
1.02133
1.00262
0.964363
0.965184
0.973413
0.999381
1.06383
1.20881
1.41692
1.02656
1.01941
0.999602
0.959049
0.938804
0.941492
0.953865
0.988388
1.07071
1.25651
1.02694
1.01947
0.999214
0.957789
0.929783
0.930897
0.939022
0.964137
1.02689
1.17355
1.0266
1.01906
0.998554
0.95654
0.924172
0.910865
0.912659
0.9212
0.945022
1.00228
1.02696
1.01914
0.998229
0.955391
0.924134
0.90732
0.908523
0.91524
0.935099
0.982486
1.02633
1.01879
0.998201
0.956041
0.924307
0.902463
0.902523
0.905748
0.916921
0.94432
1.0265
1.01886
0.99814
0.955675
0.924609
0.901342
0.89969
0.902001
0.91243
0.941708
0.6627
0.546434
0.509213
0.510076
0.519376
0.558958
0.705264
1.14844
2.53867
2.40474
0.658368
0.543138
0.498269
0.494827
0.499374
0.521844
0.602616
0.884824
1.66382
1.64326
0.655451
0.532636
0.484092
0.470308
0.471277
0.478778
0.508399
0.61008
0.859298
1.38464
0.652754
0.529537
0.481115
0.443788
0.436718
0.437919
0.445944
0.47586
0.562241
0.76814
0.651594
0.529156
0.479108
0.442062
0.420097
0.417007
0.418687
0.427324
0.456592
0.535488
0.652664
0.52842
0.478896
0.441815
0.414714
0.409702
0.410359
0.414973
0.431886
0.482149
0.652562
0.528285
0.478787
0.440954
0.411913
0.397194
0.394157
0.394716
0.398246
0.409937
0.653597
0.527804
0.478774
0.440327
0.411748
0.394937
0.391048
0.3914
0.394009
0.404069
0.651898
0.528418
0.478678
0.440554
0.412457
0.392124
0.38779
0.387776
0.389072
0.395246
0.652332
0.528197
0.478683
0.440413
0.412668
0.391395
0.386013
0.381688
0.378444
0.369048
1.28383
0.813848
0.785247
0.858727
0.963604
0.989873
1.01149
1.05228
1.13879
1.1033
1.31613
0.880009
0.857514
0.878335
0.920109
0.973691
1.0138
1.04713
1.13876
1.14229
1.31022
1.04594
0.982507
0.910832
0.906106
0.91247
0.954021
0.958494
1.0426
1.13063
1.26629
1.20776
1.06168
0.931783
0.9179
0.907375
0.939034
0.96637
1.12277
1.19542
1.16099
1.17308
1.1378
1.03815
0.978013
0.979058
0.992717
1.05925
1.27484
1.23219
0.955213
1.16177
1.16743
1.14331
1.0792
1.08154
1.09907
1.27935
1.25827
1.21308
0.574686
1.14636
1.23941
1.25561
1.24874
1.23702
1.31972
1.30946
1.25548
1.15522
0.458131
1.16109
1.28414
1.37743
1.48398
1.47064
1.44423
1.3427
1.22078
1.1157
0.474433
0.767742
1.38959
1.68914
1.67665
1.63847
1.52275
1.32873
1.21763
1.11004
0.45802
0.81376
1.67641
1.74882
1.7384
1.6744
1.53385
1.3353
1.21578
1.10593
3.06089
2.06668
2.0411
2.17139
2.41563
2.54547
2.62038
2.73066
2.86055
2.83578
3.15289
2.23377
2.19005
2.22421
2.33826
2.47466
2.54194
2.67775
2.80531
2.75389
3.17356
2.64859
2.54516
2.32762
2.33332
2.34706
2.40767
2.43578
2.72865
2.89746
3.07013
2.92651
2.60174
2.37075
2.36095
2.36413
2.42777
2.55359
2.88068
3.02282
2.85738
2.86719
2.77873
2.56141
2.49658
2.51111
2.56677
2.79138
3.13344
3.08559
2.3893
2.92448
2.89906
2.8267
2.73218
2.75411
2.89261
3.16239
3.09132
2.96562
1.43933
3.03586
3.15824
3.15565
3.17485
3.25656
3.33192
3.24657
3.04578
2.85109
1.37178
3.01552
3.22985
3.46183
3.73708
3.70837
3.57571
3.2596
3.0123
2.78173
1.15664
1.84639
3.43846
4.22206
4.18668
4.04315
3.686
3.25258
2.9976
2.75702
1.19836
2.08518
4.22286
4.33189
4.29065
4.11003
3.69098
3.25282
2.98018
2.74025
4.21252
2.94319
2.93592
3.119
3.4515
3.6723
3.7692
3.94732
4.06371
4.15692
4.34319
3.1742
3.15424
3.2023
3.35203
3.55442
3.65853
3.87581
3.96211
3.85279
4.42986
3.7533
3.62416
3.33399
3.34656
3.39639
3.44855
3.47159
4.01144
4.23242
4.28492
4.08426
3.63819
3.37002
3.37505
3.39413
3.50865
3.78214
4.16975
4.32831
3.97838
4.01822
3.89239
3.59638
3.56949
3.59908
3.70545
4.08288
4.36589
4.38
3.33646
4.13197
4.09272
3.9776
3.89344
3.94002
4.23456
4.42663
4.32397
4.17756
2.02166
4.40861
4.49322
4.49168
4.53115
4.72912
4.72376
4.57419
4.24911
4.02638
1.89851
4.37903
4.59273
4.93618
5.33056
5.26881
5.03527
4.54855
4.24098
3.94595
1.56735
2.57865
4.88819
6.00046
5.93673
5.70258
5.14864
4.58057
4.22729
3.91479
1.63586
3.0016
6.11736
6.1661
6.08962
5.81173
5.15579
4.58729
4.21106
3.89722
4.89754
3.50617
3.51528
3.74955
4.12623
4.41309
4.49916
4.75036
4.82848
5.03627
5.05645
3.77597
3.78878
3.84334
4.0024
4.25665
4.40132
4.67233
4.68403
4.53627
5.20236
4.45097
4.29891
3.97397
3.99716
4.0916
4.13348
4.11858
4.89483
5.14705
5.03654
4.79916
4.28109
4.00973
4.02514
4.0615
4.20915
4.64989
5.0266
5.1712
4.67245
4.73769
4.58652
4.24507
4.25734
4.30356
4.44565
4.93847
5.09392
5.21079
3.91532
4.89061
4.83824
4.68599
4.63215
4.69772
5.14658
5.19026
5.0571
4.94741
2.36146
5.29662
5.32845
5.33449
5.39447
5.70498
5.62461
5.36587
4.99126
4.77233
2.1916
5.26683
5.46542
5.88307
6.35615
6.2658
5.9464
5.34838
4.99969
4.68551
1.7861
3.02687
5.84944
7.15422
7.07127
6.75706
6.04792
5.40719
4.99533
4.65245
1.87737
3.58297
7.38777
7.3743
7.24548
6.88644
6.05655
5.42397
4.98431
4.63738
5.21625
3.78218
3.80038
4.06326
4.46073
4.7761
4.8397
5.1537
5.19367
5.44533
5.39011
4.07018
4.10479
4.16221
4.31094
4.6017
4.77194
5.07466
5.03457
4.88924
5.56817
4.78667
4.61953
4.28257
4.31751
4.44091
4.48211
4.44227
5.34106
5.60286
5.39457
5.13877
4.58753
4.32189
4.34072
4.38576
4.54223
5.10702
5.46459
5.5895
5.00333
5.08028
4.91707
4.55866
4.58838
4.65212
4.81208
5.35466
5.43821
5.60964
4.18767
5.24715
5.18625
5.01159
4.98616
5.06528
5.60521
5.5612
5.37661
5.31417
2.5097
5.707
5.71584
5.72854
5.80518
6.18715
6.06762
5.72692
5.33947
5.13342
2.32176
5.68593
5.89284
6.34821
6.87038
6.76444
6.39392
5.72232
5.35504
5.04441
1.88631
3.2609
6.37242
7.75461
7.65325
7.28338
6.48238
5.79922
5.35832
5.01069
1.9853
3.87239
8.05164
8.01213
7.82412
7.41299
6.49069
5.8276
5.35139
4.99784
5.21533
3.78102
3.79938
4.06352
4.45918
4.76393
4.82062
5.15376
5.19525
5.43096
5.38915
4.06821
4.10251
4.15876
4.30929
4.59951
4.76627
5.0786
5.01984
4.90407
5.56423
4.78238
4.61585
4.27995
4.3178
4.44497
4.49443
4.48099
5.32257
5.5851
5.39026
5.1332
4.58118
4.31819
4.33738
4.37802
4.54035
5.09874
5.4933
5.5965
4.99784
5.07161
4.90873
4.55255
4.58365
4.65052
4.81681
5.36704
5.44678
5.5928
4.17973
5.22625
5.16672
4.99454
4.97916
5.06301
5.61268
5.55138
5.36972
5.30019
2.49517
5.64775
5.68885
5.69778
5.78245
6.17902
6.06787
5.71717
5.33228
5.12997
2.31873
5.64123
5.89728
6.35681
6.90163
6.80006
6.41889
5.71895
5.34203
5.04274
1.90144
3.31446
6.47768
7.82695
7.71754
7.31982
6.49619
5.79842
5.34689
5.00916
1.99057
3.89291
8.1259
8.08294
7.88151
7.43888
6.50671
5.83228
5.33958
4.9963
4.89496
3.50308
3.51243
3.75037
4.12212
4.38107
4.46565
4.74642
4.82843
5.02807
5.05367
3.77058
3.78284
3.83552
3.99531
4.24572
4.38966
4.67888
4.63417
4.52747
5.19147
4.43926
4.28829
3.96657
3.99632
4.10108
4.16633
4.21029
4.85743
5.12919
5.02456
4.78367
4.26319
3.99934
4.01653
4.04266
4.19909
4.64003
5.10744
5.18094
4.65707
4.71355
4.5632
4.2272
4.24627
4.29907
4.45602
4.96484
5.1044
5.1704
3.89362
4.83516
4.78721
4.64035
4.61217
4.69002
5.16693
5.1611
5.05133
4.91326
2.32304
5.13952
5.24896
5.25218
5.332
5.68836
5.61802
5.33844
4.97299
4.76283
2.17866
5.13504
5.49256
5.90715
6.44862
6.3618
6.00784
5.34398
4.96135
4.68009
1.82394
3.17722
6.15354
7.34574
7.23086
6.85454
6.08677
5.40843
4.96345
4.64798
1.88765
3.62491
7.60739
7.57553
7.40464
6.9695
6.09879
5.4374
4.95174
4.63324
4.20875
2.93895
2.93193
3.11994
3.44742
3.63128
3.74292
3.94496
4.06057
4.19834
4.33904
3.16675
3.14653
3.19231
3.3439
3.53446
3.6454
3.88505
3.87877
3.80018
4.416
3.7375
3.60916
3.32355
3.34328
3.40799
3.49732
3.57015
3.98421
4.2193
4.26915
4.06343
3.6135
3.35549
3.36487
3.373
3.49733
3.78344
4.27192
4.33614
3.95682
3.98484
3.85967
3.5686
3.56211
3.59144
3.71266
4.12034
4.34771
4.34173
3.30776
4.06158
4.02775
3.9185
3.86505
3.92659
4.26198
4.40112
4.32105
4.14055
1.97498
4.18317
4.37948
4.38208
4.44711
4.71452
4.71432
4.54898
4.22163
4.00842
1.86616
4.12184
4.65984
4.98009
5.46837
5.40192
5.11346
4.55246
4.1861
3.9366
1.59384
2.81082
5.34065
6.23812
6.14302
5.83778
5.19823
4.5906
4.18265
3.90812
1.65066
3.06159
6.47732
6.45535
6.32376
5.95247
5.20119
4.60681
4.16618
3.89144
3.05727
2.0628
2.03749
2.17227
2.4138
2.50968
2.61522
2.73291
2.84852
2.9089
3.14845
2.22671
2.18283
2.21462
2.33166
2.45534
2.52338
2.69654
2.73002
2.7008
3.16259
2.63378
2.53091
2.31755
2.32956
2.35976
2.45598
2.51465
2.72509
2.88285
3.05611
2.90716
2.57804
2.35733
2.3532
2.34647
2.42535
2.56525
2.95823
3.04009
2.83496
2.83559
2.74783
2.53398
2.49181
2.50612
2.57171
2.82304
3.10007
3.06627
2.36085
2.862
2.84105
2.77432
2.70292
2.73806
2.91322
3.15234
3.09157
2.92997
1.40337
2.82381
3.05145
3.05771
3.09874
3.24393
3.33508
3.24373
3.02659
2.82106
1.32372
2.64584
3.32647
3.52488
3.87902
3.839
3.65357
3.27028
2.96369
2.7708
1.112
2.11033
3.88413
4.41891
4.36293
4.17182
3.73609
3.27069
2.95424
2.75076
1.19284
2.19123
4.66891
4.65109
4.55315
4.27325
3.7173
3.27516
2.93878
2.73558
1.28289
0.812991
0.784331
0.860887
0.963817
0.973479
1.01758
1.06674
1.14814
1.16119
1.31436
0.877632
0.853482
0.873933
0.917493
0.964651
0.998967
1.05778
1.09406
1.11887
1.30697
1.03882
0.975849
0.905782
0.904368
0.922383
0.986694
0.999301
1.05471
1.12593
1.2593
1.19914
1.05053
0.928192
0.913666
0.897909
0.947753
0.978075
1.1511
1.21593
1.14545
1.15977
1.12348
1.02483
0.977116
0.977598
1.00085
1.07826
1.2615
1.2389
0.922695
1.11826
1.13744
1.11609
1.06123
1.06617
1.10346
1.28045
1.26092
1.1886
0.491235
1.06905
1.18567
1.21154
1.22011
1.23233
1.33793
1.32382
1.25708
1.13113
0.460488
0.967839
1.3219
1.40443
1.54872
1.53759
1.49313
1.36365
1.19996
1.10994
0.413535
0.899223
1.62595
1.80266
1.78756
1.72685
1.55968
1.34444
1.19441
1.10655
0.279779
0.84316
2.0105
1.98477
1.91989
1.77275
1.54447
1.35245
1.19679
1.10537
)
;

boundaryField
{
    inlet
    {
        type            fixedValue;
        value           uniform 1;
    }
    outlet
    {
        type            waveTransmissive;
        gamma           1.4;
        fieldInf        1;
        lInf            3;
        value           nonuniform List<scalar> 
100
(
1.23687
1.1478
1.18361
1.161
1.1954
1.20336
1.1428
1.09597
1.09052
1.08765
3.03416
2.76194
2.90024
2.87134
2.90091
2.87548
2.74802
2.68056
2.65701
2.64407
4.31863
3.92334
4.12669
4.08597
4.08214
4.00427
3.85842
3.78895
3.76218
3.74998
5.1184
4.68629
4.9217
4.86576
4.83125
4.70593
4.55798
4.49307
4.46974
4.46161
5.47172
5.07276
5.30771
5.24038
5.19541
5.03986
4.89472
4.83564
4.81647
4.81246
5.45358
5.08606
5.29334
5.22803
5.19335
5.02934
4.89158
4.83728
4.82046
4.81778
5.0695
4.70478
4.89011
4.8324
4.82067
4.6755
4.54838
4.49701
4.48093
4.47635
4.255
3.93881
4.08365
4.04368
4.05843
3.95974
3.84205
3.79309
3.7781
3.77
2.9867
2.77489
2.85761
2.8374
2.87066
2.83022
2.7266
2.68351
2.67337
2.66384
1.23526
1.1498
1.16675
1.14797
1.17838
1.1816
1.12597
1.0985
1.0995
1.09961
)
;
    }
    top
    {
        type            symmetryPlane;
    }
    bottom
    {
        type            symmetryPlane;
    }
    step
    {
        type            zeroGradient;
    }
    defaultFaces
    {
        type            empty;
    }
}


// ************************************************************************* //
