/*--------------------------------*- C++ -*----------------------------------*\
  =========                 |
  \\      /  F ield         | OpenFOAM: The Open Source CFD Toolbox
   \\    /   O peration     | Website:  https://openfoam.org
    \\  /    A nd           | Version:  6.0
     \\/     M anipulation  |
\*---------------------------------------------------------------------------*/
FoamFile
{
    version     2.0;
    format      ascii;
    class       surfaceScalarField;
    location    "4";
    object      phi;
}
// * * * * * * * * * * * * * * * * * * * * * * * * * * * * * * * * * * * * * //

dimensions      [1 0 -1 0 0 0 0];

internalField   nonuniform List<scalar> 
560
(
0.00840424
4.37897e-07
0.00840128
2.2185e-06
0.00839664
4.32995e-06
0.00839444
2.49564e-06
0.00832905
6.42514e-05
0.00815652
0.000166625
0.00711435
0.00103163
0.00518529
0.00192936
0.00241856
0.00276663
0.00241804
0.00840412
1.03834e-06
0.00840076
4.8275e-06
0.00839511
9.65536e-06
0.00838761
1.03434e-05
0.00832192
0.000128646
0.00810042
0.000382844
0.00685177
0.00227043
0.0048934
0.00388805
0.002544
0.00511582
0.00496137
0.00840434
1.50861e-06
0.00840102
7.37188e-06
0.00839534
1.49992e-05
0.00838992
1.59445e-05
0.00831536
0.000201995
0.00805976
0.000633083
0.0066694
0.00365146
0.00473701
0.00582129
0.00254963
0.00730295
0.00751017
0.00840456
1.88416e-06
0.00840141
9.71973e-06
0.00839573
2.03391e-05
0.0083903
2.15301e-05
0.00831144
0.000279858
0.00803369
0.00090548
0.00655835
0.00511803
0.00465826
0.00772267
0.00255999
0.00940084
0.010069
0.00840488
2.10935e-06
0.00840211
1.16498e-05
0.00839676
2.53173e-05
0.00839161
2.6674e-05
0.00831127
0.000359611
0.00802562
0.00118554
0.00650934
0.0066252
0.00463772
0.00959579
0.00259336
0.0114453
0.0126605
0.00840536
2.03434e-06
0.00840341
1.27606e-05
0.00839928
2.91005e-05
0.00839754
2.78638e-05
0.00831486
0.000442483
0.00803799
0.00145595
0.00652238
0.00812929
0.00467529
0.0114443
0.00266423
0.0134564
0.0153216
0.00840563
1.89499e-06
0.0084046
1.29982e-05
0.00840124
3.21375e-05
0.008396
3.09029e-05
0.00832573
0.000514712
0.00805887
0.00171455
0.00657816
0.00959313
0.004766
0.0132576
0.00277415
0.0154495
0.0180926
0.00840654
1.0228e-06
0.00840727
1.14847e-05
0.00840705
3.20749e-05
0.00841692
1.37603e-05
0.00833926
0.000599525
0.00810317
0.00194037
0.0066948
0.010978
0.00491681
0.0150392
0.00295518
0.0174168
0.0210475
0.00840637
2.18979e-07
0.00840648
9.82812e-06
0.0084048
3.38506e-05
0.00838528
9.06301e-06
0.00837078
0.000637857
0.00807219
0.00223309
0.00681791
0.0122028
0.00512854
0.0167303
0.00322841
0.0193275
0.024275
0.00841058
-6.69048e-06
0.00840608
9.37941e-06
0.00836971
7.62035e-05
0.00831129
-1.36658e-05
0.00844593
0.00057246
0.00793168
0.00278486
0.00695391
0.0131384
0.00539169
0.0182822
0.00361637
0.021116
0.0279006
0.033453
-1.58507e-05
0.0339826
-3.80772e-05
0.0338442
-0.000119525
0.0316729
-0.000207604
0.0332738
0.000680254
0.0360597
0.00133419
0.0355798
0.0130797
0.0334779
0.0202303
0.0316927
0.0229004
0.0223609
0.0373652
0.0335763
-8.7824e-06
0.0335456
8.28354e-06
0.033731
2.56198e-05
0.0338935
-4.36948e-05
0.0331224
0.000621673
0.0356693
0.0012193
0.037983
0.00874804
0.0392063
0.0185749
0.0397545
0.0221172
0.0221088
0.0400587
0.033588
4.39295e-06
0.0336625
5.032e-06
0.0334429
7.1065e-05
0.0340805
6.7661e-06
0.0334241
0.000381544
0.0364254
0.000791182
0.0383507
0.00487011
0.0413799
0.0150193
0.0436015
0.0198039
0.0218634
0.0439263
0.0335544
5.46649e-06
0.0335912
-3.20544e-06
0.0337059
7.67577e-06
0.0338146
9.74475e-05
0.0336931
0.000278454
0.0354739
0.000516679
0.0362116
0.00242426
0.0434894
0.00784105
0.0465425
0.01679
0.019896
0.0485562
0.0335855
-1.89554e-06
0.0336287
1.62777e-05
0.0335842
2.59186e-06
0.0336419
3.50736e-05
0.0338711
4.66555e-05
0.0344878
2.10408e-05
0.0355595
0.00124454
0.040554
0.00282033
0.0466863
0.0105763
0.0158922
0.0506882
0.033593
8.25733e-07
0.0336198
2.08624e-06
0.0335988
1.43804e-05
0.0336053
2.23968e-05
0.0335475
0.000104063
0.0338614
4.95886e-05
0.0341351
0.000490043
0.0367266
0.00107237
0.0427389
0.00418165
0.0099827
0.048208
0.0335971
7.50246e-07
0.0336084
4.87426e-07
0.0336072
2.27008e-06
0.0336287
5.63944e-06
0.0337365
-4.34352e-06
0.0337101
7.69848e-05
0.034032
0.000153314
0.0348596
0.000311457
0.0377821
0.00120471
0.00300725
0.0446568
0.0335993
3.18606e-07
0.0336014
1.59926e-07
0.0335998
1.65333e-06
0.0336176
2.85369e-07
0.0335862
9.2408e-06
0.0337061
4.44096e-06
0.0337306
6.52272e-05
0.0343448
0.000109867
0.0348411
0.000414786
0.000910534
0.0365499
0.0335998
-1.0241e-07
0.0335996
4.65378e-07
0.0336013
-2.99529e-08
0.0336007
1.20535e-06
0.03361
1.19093e-06
0.0336076
5.14931e-06
0.033651
6.24922e-06
0.0339388
-4.43095e-05
0.034124
6.45044e-05
0.000165231
0.0353913
0.0335991
0.0335995
0.0335985
0.0336006
0.0336035
0.0336077
0.03361
0.0337129
0.0336614
0.0332146
0.0174787
0.01976
0.0109102
0.00634471
0.010915
-0.000254315
0.016232
-0.00553308
0.0162025
-0.000356282
0.0159431
-0.000250497
0.0174156
-0.001782
0.01945
-0.00230528
0.0208989
-0.00162946
0.000441631
0.0245573
0.0352171
0.0186204
0.0120833
0.0173978
0.000699387
0.0174748
-0.00586527
0.0239266
-0.00736597
0.0254475
-0.00246207
0.0281161
-0.00480017
0.0296871
-0.004131
0.0301376
-0.00215311
0.0012194
0.0329415
0.0462558
0.0258478
0.019051
0.0207476
0.00555386
0.0197256
-0.00509436
0.0243066
-0.0124145
0.0317548
-0.0105446
0.0364225
-0.00967499
0.0377581
-0.00574314
0.0367922
-0.00154239
0.00227691
0.0378244
0.057013
0.0301022
0.0266298
0.0258434
0.00947373
0.0256828
-0.00529708
0.0297726
-0.0168931
0.0372918
-0.0186056
0.0415925
-0.0144258
0.043023
-0.00768472
0.0419269
-0.000925595
0.00395973
0.0408316
0.0668023
0.03508
0.0322503
0.0320357
0.0121874
0.0331587
-0.00673752
0.0368342
-0.0208905
0.0414662
-0.0237514
0.0441472
-0.0176577
0.0447181
-0.00878902
0.0442539
-0.000858238
0.00509233
0.0523701
0.062468
0.0416327
0.0428602
0.0398406
0.0136805
0.0420124
-0.00922102
0.0448066
-0.0240007
0.0454364
-0.0247703
0.0449839
-0.0177387
0.0448605
-0.00919506
0.0450914
-0.00152985
0.00561135
0.049957
0.0570943
0.0502193
0.0423673
0.0487152
0.0149319
0.0507309
-0.0115404
0.0514569
-0.0250301
0.0483496
-0.0219396
0.0460139
-0.0158356
0.0446119
-0.00835107
0.0445169
-0.00194631
0.00495154
0.0548512
0.0388734
0.0582685
0.0386574
0.063524
0.0094076
0.0634354
-0.0117389
0.0566964
-0.0185159
0.0510331
-0.0164654
0.0466563
-0.0118247
0.0442169
-0.00647048
0.043354
-0.00160905
0.00351579
0.0611871
0.012525
0.0717833
0.0276224
0.0729815
0.00793056
0.0695404
-0.00858641
0.0611418
-0.0102297
0.0532168
-0.00866231
0.047275
-0.00620566
0.0438858
-0.00353871
0.0425159
-0.000808415
0.00170687
0.0464948
0.0735365
0.0811582
0.0723386
0.0620995
0.0533455
0.0468357
0.0429173
0.0415234
)
;

boundaryField
{
    inlet
    {
        type            calculated;
        value           nonuniform List<scalar> 
20
(
-0.00840463
-0.00840467
-0.00840475
-0.00840487
-0.00840502
-0.00840518
-0.00840534
-0.00840549
-0.00840556
-0.0084055
-0.0336125
-0.0335974
-0.0335892
-0.0335912
-0.033599
-0.0335971
-0.033598
-0.0335989
-0.0335993
-0.0335992
)
;
    }
    outlet
    {
        type            calculated;
        value           nonuniform List<scalar> 10(0.020308 0.0292352 0.0354654 0.0399674 0.0428494 0.0441887 0.0447072 0.0442535 0.0437297 0.042614);
    }
    top
    {
        type            symmetryPlane;
        value           uniform 0;
    }
    bottom
    {
        type            symmetryPlane;
        value           uniform 0;
    }
    step
    {
        type            calculated;
        value           uniform 0;
    }
    defaultFaces
    {
        type            empty;
        value           nonuniform 0();
    }
}


// ************************************************************************* //
