/*--------------------------------*- C++ -*----------------------------------*\
  =========                 |
  \\      /  F ield         | OpenFOAM: The Open Source CFD Toolbox
   \\    /   O peration     | Website:  https://openfoam.org
    \\  /    A nd           | Version:  6.0
     \\/     M anipulation  |
\*---------------------------------------------------------------------------*/
FoamFile
{
    version     2.0;
    format      ascii;
    class       volScalarField;
    location    "4";
    object      T;
}
// * * * * * * * * * * * * * * * * * * * * * * * * * * * * * * * * * * * * * //

dimensions      [0 0 0 1 0 0 0];

internalField   nonuniform List<scalar> 
300
(
1.03018
0.896669
1.08428
1.22105
1.8569
2.64906
2.67475
2.67866
2.6899
2.693
1.03003
0.896957
1.08401
1.21996
1.85445
2.64608
2.6725
2.67702
2.68959
2.69078
1.02974
0.897418
1.08339
1.21749
1.84957
2.64008
2.66741
2.67213
2.68691
2.68791
1.02927
0.898232
1.08232
1.21375
1.84151
2.63113
2.66043
2.6651
2.68096
2.68072
1.0286
0.899438
1.08077
1.20864
1.82986
2.61873
2.65118
2.65707
2.67341
2.67366
1.02774
0.901067
1.07872
1.20197
1.81435
2.60251
2.63876
2.64473
2.66305
2.65853
1.02666
0.90329
1.07615
1.19416
1.79423
2.58121
2.62445
2.63336
2.6493
2.64546
1.0253
0.905927
1.07317
1.18458
1.76988
2.55471
2.6037
2.61395
2.63522
2.61902
1.02317
0.909842
1.06965
1.17482
1.73842
2.52057
2.58493
2.59626
2.61054
2.59147
1.02076
0.913842
1.06587
1.17282
1.69697
2.47325
2.54956
2.574
2.58646
2.54064
1.00986
0.960662
1.02955
1.06282
1.61122
2.39711
2.44702
2.47361
2.44277
2.39587
1.00496
1.01247
1.03704
1.1083
1.37166
2.09623
2.31466
2.3685
2.29324
2.27605
1.00274
1.0129
1.02495
1.07737
1.22001
1.53004
2.09423
2.28366
2.263
2.19827
0.999786
1.00678
1.00599
1.04424
1.12292
1.27448
1.7242
2.07263
2.1588
2.13822
1.00349
1.00082
1.02079
0.949799
1.05734
1.12086
1.44153
1.8746
2.00574
2.00261
1.00051
1.00231
1.00376
1.01302
1.02066
1.0703
1.17343
1.41218
1.71368
1.86225
1.00018
1.00084
0.99814
1.00441
1.00515
1.0248
1.05602
1.10556
1.30959
1.52598
1.00008
1.00037
1.00059
1.0016
1.00366
1.01099
1.01985
1.05175
1.13776
1.31416
1.00011
1.00012
1.00062
1.00058
1.00328
1.00015
1.02011
1.00026
1.06852
1.10592
1.00007
1.00007
1.00043
1.00042
1.0027
1.00234
1.0143
1.01448
1.05621
1.0904
2.14135
2.15649
2.36996
2.51641
2.61132
2.76435
2.73673
2.72056
2.67174
2.65601
2.09263
2.09863
2.17392
2.22248
2.30089
2.45599
2.41892
2.39654
2.33977
2.3197
2.06654
2.02443
2.04275
2.10405
2.17317
2.25085
2.20996
2.17882
2.15271
2.14437
2.01672
1.9813
2.00697
2.05947
2.06408
2.07986
2.05667
2.04439
2.03584
2.0267
1.96374
1.96924
1.98332
2.01429
1.97605
1.96283
1.95446
1.95333
1.94777
1.9356
1.90826
1.96971
1.99503
1.99524
1.94057
1.90683
1.88249
1.88188
1.87809
1.87339
1.85696
1.96346
2.00986
1.99135
1.92388
1.86257
1.81186
1.80619
1.80781
1.80322
1.84418
1.99639
2.01997
1.98864
1.91926
1.83738
1.77412
1.75655
1.75924
1.75169
1.81149
2.04909
2.05142
2.00745
1.93149
1.83246
1.7535
1.72081
1.71628
1.70721
1.85909
2.14365
2.09672
2.05048
1.95628
1.84876
1.76262
1.7215
1.71114
1.69975
)
;

boundaryField
{
    inlet
    {
        type            fixedValue;
        value           uniform 1;
    }
    outlet
    {
        type            inletOutlet;
        inletValue      uniform 1;
        value           nonuniform List<scalar> 10(2.65603 2.31973 2.14438 2.02671 1.9356 1.87342 1.80325 1.75173 1.70725 1.6998);
    }
    top
    {
        type            symmetryPlane;
    }
    bottom
    {
        type            symmetryPlane;
    }
    step
    {
        type            zeroGradient;
    }
    defaultFaces
    {
        type            empty;
    }
}


// ************************************************************************* //
