/*--------------------------------*- C++ -*----------------------------------*\
  =========                 |
  \\      /  F ield         | OpenFOAM: The Open Source CFD Toolbox
   \\    /   O peration     | Website:  https://openfoam.org
    \\  /    A nd           | Version:  6.0
     \\/     M anipulation  |
\*---------------------------------------------------------------------------*/
FoamFile
{
    version     2.0;
    format      ascii;
    class       volScalarField;
    location    "4";
    object      T;
}
// * * * * * * * * * * * * * * * * * * * * * * * * * * * * * * * * * * * * * //

dimensions      [0 0 0 1 0 0 0];

internalField   nonuniform List<scalar> 
3000
(
0.874302
0.834678
0.821348
0.817278
0.826242
0.895285
1.38293
2.4942
2.63486
2.64926
0.874336
0.83462
0.82134
0.817239
0.826203
0.894967
1.38402
2.52098
2.62092
2.57218
0.874425
0.83447
0.821328
0.817131
0.825997
0.894232
1.38171
2.51096
2.62539
2.54596
0.874588
0.834201
0.821313
0.816932
0.825592
0.892777
1.37662
2.48283
2.63777
2.54873
0.874842
0.833786
0.821292
0.816626
0.824959
0.890527
1.36839
2.45654
2.64085
2.5499
0.875219
0.833171
0.821269
0.816168
0.824011
0.887093
1.35585
2.39556
2.63406
2.54655
0.875728
0.832329
0.821227
0.815538
0.822697
0.882816
1.33785
2.33841
2.62273
2.53706
0.876294
0.831291
0.821048
0.814613
0.821202
0.87436
1.31529
2.19902
2.59172
2.51181
0.87656
0.830375
0.820533
0.813725
0.819699
0.86837
1.28446
2.15132
2.55617
2.47776
0.876893
0.829206
0.819892
0.812562
0.817858
0.859882
1.23678
2.05764
2.51033
2.40756
1.00235
1.00325
1.00577
1.01985
1.06619
1.18919
1.56795
3.05743
2.81456
2.60022
1.00234
1.00322
1.00573
1.01974
1.06595
1.1886
1.56564
3.03989
2.84393
2.74962
1.00231
1.00317
1.00564
1.01952
1.06544
1.18753
1.56202
3.03584
2.84262
2.75394
1.00226
1.00309
1.00552
1.01917
1.06459
1.18569
1.5564
3.03136
2.83994
2.75104
1.00218
1.00296
1.00533
1.01865
1.06336
1.18293
1.54784
3.02438
2.83257
2.74312
1.00208
1.00277
1.00509
1.01793
1.06163
1.17889
1.53579
3.01452
2.82723
2.72362
1.00193
1.00249
1.00476
1.01695
1.05926
1.17351
1.51955
3.00183
2.81592
2.70318
1.00167
1.00207
1.00426
1.01559
1.05636
1.16481
1.49454
2.9688
2.80586
2.65982
1.00108
1.00134
1.00342
1.0138
1.05207
1.15465
1.46297
2.90767
2.78441
2.61627
1.00034
1.00043
1.00237
1.01158
1.04675
1.14079
1.41699
2.79774
2.74083
2.53953
1.03184
1.04323
1.051
1.07514
1.13461
1.2793
1.68559
2.96118
2.74838
2.78179
1.03183
1.04321
1.05094
1.07501
1.13434
1.27872
1.68377
2.95996
2.74507
2.77842
1.03181
1.04315
1.05081
1.07474
1.13374
1.27746
1.67963
2.95597
2.7407
2.77121
1.03176
1.04304
1.0506
1.07429
1.13276
1.27535
1.67279
2.94823
2.73231
2.76062
1.03169
1.04288
1.05028
1.07362
1.13131
1.27221
1.66253
2.93479
2.72556
2.74576
1.03159
1.04263
1.04982
1.0727
1.12931
1.26774
1.64812
2.91542
2.71738
2.72797
1.03142
1.04227
1.04918
1.07145
1.12656
1.26151
1.62847
2.88695
2.70867
2.70068
1.03118
1.04184
1.04861
1.06999
1.12321
1.25357
1.60403
2.85051
2.69216
2.66783
1.0308
1.04127
1.048
1.06819
1.11882
1.24313
1.57228
2.79411
2.67223
2.61825
1.03032
1.04059
1.04728
1.06599
1.11332
1.22961
1.52962
2.71471
2.63037
2.55673
1.02842
1.04868
1.06714
1.10323
1.17981
1.35057
1.80589
3.01226
2.67184
2.75887
1.02841
1.04866
1.06708
1.10309
1.17948
1.34987
1.80408
3.01004
2.67376
2.76429
1.02838
1.04861
1.06696
1.10279
1.1788
1.34838
1.80004
3.00271
2.67621
2.7609
1.02834
1.04854
1.06678
1.10233
1.17773
1.34598
1.79305
2.98894
2.67829
2.75283
1.02828
1.04842
1.06651
1.10165
1.17616
1.3424
1.78228
2.96792
2.68099
2.73524
1.02816
1.04823
1.06614
1.10072
1.17399
1.33743
1.76646
2.94821
2.68133
2.71996
1.02798
1.04797
1.06567
1.0995
1.17106
1.33061
1.74483
2.92462
2.68011
2.68783
1.02769
1.04768
1.06524
1.09801
1.16727
1.32174
1.71741
2.89255
2.67312
2.65972
1.02728
1.04733
1.06477
1.09616
1.16238
1.31014
1.68268
2.84698
2.65961
2.60557
1.02677
1.04692
1.06425
1.09388
1.15628
1.29543
1.63821
2.78009
2.62815
2.5497
1.01673
1.03658
1.05827
1.10185
1.18789
1.37374
1.85917
3.06559
2.63138
2.7434
1.01671
1.03657
1.05823
1.10172
1.18757
1.37298
1.85837
3.06225
2.63478
2.75223
1.01668
1.03656
1.05813
1.10143
1.1869
1.37135
1.85614
3.0541
2.63869
2.75013
1.01661
1.03655
1.058
1.10099
1.18582
1.36884
1.84981
3.0409
2.64124
2.74223
1.0165
1.03654
1.0578
1.10036
1.18422
1.36522
1.8386
3.02252
2.64411
2.72426
1.01637
1.03646
1.0576
1.09951
1.18203
1.36013
1.82267
2.99726
2.64924
2.70881
1.01619
1.03633
1.05741
1.09841
1.17911
1.35323
1.80114
2.96613
2.64939
2.67565
1.01592
1.03618
1.05728
1.09704
1.17529
1.34406
1.77343
2.92101
2.64767
2.64891
1.01554
1.03601
1.05719
1.09535
1.17044
1.33236
1.73789
2.87859
2.63938
2.59084
1.0151
1.03585
1.05713
1.09327
1.16437
1.31764
1.69308
2.8202
2.61214
2.54053
1.01673
1.03658
1.05828
1.10186
1.18789
1.37376
1.85919
3.06568
2.63131
2.74339
1.01671
1.03657
1.05823
1.10172
1.18758
1.373
1.8584
3.06234
2.63474
2.75221
1.01668
1.03656
1.05814
1.10144
1.18691
1.37136
1.85616
3.05419
2.63864
2.75011
1.01661
1.03655
1.058
1.101
1.18582
1.36886
1.84984
3.04098
2.64123
2.74221
1.0165
1.03654
1.0578
1.10037
1.18423
1.36523
1.83863
3.02265
2.64401
2.72438
1.01637
1.03646
1.0576
1.09951
1.18204
1.36014
1.82269
2.99738
2.64927
2.70874
1.01619
1.03633
1.05741
1.09841
1.17911
1.35325
1.80117
2.96631
2.64917
2.67647
1.01592
1.03618
1.05728
1.09705
1.1753
1.34407
1.77349
2.92153
2.64838
2.64663
1.01555
1.03602
1.0572
1.09536
1.17045
1.33237
1.73808
2.87949
2.64065
2.58234
1.0151
1.03585
1.05714
1.09328
1.16438
1.31765
1.69322
2.8203
2.6131
2.53338
1.02842
1.04869
1.06715
1.10324
1.17983
1.35061
1.80602
3.01253
2.67164
2.75905
1.02841
1.04866
1.06708
1.1031
1.1795
1.34992
1.80421
3.01033
2.67358
2.76448
1.02839
1.04862
1.06696
1.1028
1.17883
1.34843
1.80016
3.00298
2.67608
2.76103
1.02835
1.04854
1.06678
1.10234
1.17775
1.34602
1.79314
2.98922
2.67813
2.75299
1.02828
1.04842
1.06652
1.10167
1.17618
1.34244
1.78234
2.96824
2.68081
2.73546
1.02817
1.04824
1.06615
1.10074
1.17401
1.33746
1.76648
2.94841
2.68115
2.72018
1.02798
1.04798
1.06569
1.09952
1.17109
1.33064
1.74485
2.92487
2.67988
2.68825
1.0277
1.04769
1.06525
1.09803
1.1673
1.32178
1.71753
2.89333
2.67369
2.65998
1.02728
1.04734
1.06479
1.09618
1.16242
1.3102
1.68298
2.84869
2.65893
2.60846
1.02677
1.04693
1.06426
1.0939
1.15632
1.2955
1.63839
2.78132
2.62739
2.55299
1.03184
1.04324
1.05101
1.07515
1.13464
1.27936
1.68587
2.96094
2.75025
2.78288
1.03183
1.04321
1.05095
1.07502
1.13437
1.27878
1.68401
2.95995
2.746
2.77958
1.03181
1.04315
1.05082
1.07475
1.13377
1.27752
1.67985
2.95612
2.7411
2.77209
1.03176
1.04305
1.05061
1.0743
1.13279
1.27542
1.67297
2.94839
2.73264
2.76161
1.0317
1.04289
1.05029
1.07364
1.13135
1.27227
1.66264
2.93495
2.72579
2.74664
1.0316
1.04264
1.04983
1.07272
1.12935
1.2678
1.64809
2.9155
2.71758
2.72888
1.03143
1.04228
1.0492
1.07147
1.1266
1.26156
1.62831
2.88701
2.70874
2.70152
1.03119
1.04185
1.04863
1.07001
1.12322
1.25368
1.60405
2.85057
2.69237
2.66897
1.03081
1.04129
1.04801
1.06822
1.11886
1.24324
1.57231
2.79483
2.67217
2.61927
1.03034
1.0406
1.0473
1.06602
1.11336
1.22972
1.52973
2.7155
2.62995
2.55772
1.00236
1.00325
1.00577
1.01986
1.06622
1.1893
1.56839
3.05676
2.81679
2.60073
1.00234
1.00323
1.00573
1.01975
1.06599
1.18866
1.56591
3.03927
2.84521
2.74861
1.00231
1.00318
1.00565
1.01954
1.06548
1.18759
1.56226
3.03565
2.84348
2.75454
1.00226
1.0031
1.00552
1.01918
1.06464
1.18577
1.55659
3.03088
2.84056
2.75188
1.00219
1.00297
1.00534
1.01867
1.06342
1.18304
1.54791
3.02318
2.83259
2.7441
1.00209
1.00278
1.0051
1.01796
1.06171
1.17903
1.5356
3.01151
2.82678
2.72475
1.00194
1.0025
1.00477
1.01698
1.05936
1.17361
1.51888
2.99626
2.81408
2.70428
1.00168
1.00208
1.00427
1.01562
1.05626
1.16546
1.49563
2.96555
2.80277
2.66058
1.0011
1.00136
1.00344
1.01384
1.05213
1.155
1.46329
2.90525
2.78108
2.61684
1.00036
1.00045
1.00239
1.01162
1.04682
1.1411
1.41752
2.79665
2.73743
2.53946
0.874294
0.834695
0.821348
0.817294
0.826274
0.895487
1.38339
2.49764
2.6289
2.63668
0.874331
0.834632
0.821343
0.81725
0.826231
0.895021
1.38445
2.51932
2.62908
2.57025
0.87442
0.834483
0.821331
0.817142
0.826025
0.894261
1.38223
2.50859
2.63015
2.55344
0.874579
0.83422
0.821315
0.816946
0.82563
0.892844
1.37726
2.48597
2.63715
2.55529
0.874826
0.833813
0.821295
0.816645
0.825014
0.890613
1.36955
2.46415
2.64037
2.55553
0.875195
0.83321
0.821272
0.816193
0.82409
0.887221
1.35775
2.41376
2.63535
2.55229
0.875698
0.832377
0.821233
0.815567
0.822805
0.882831
1.34048
2.36577
2.62532
2.54294
0.876203
0.831408
0.821023
0.81469
0.821271
0.87604
1.31675
2.23175
2.59791
2.51876
0.876516
0.830445
0.820536
0.813772
0.819812
0.868976
1.28677
2.17818
2.56212
2.48482
0.87686
0.829264
0.819896
0.812604
0.817943
0.860414
1.23733
2.07259
2.51573
2.41573
0.878228
0.825058
0.81801
0.80857
0.810703
0.834422
1.04377
1.84031
2.2767
2.26842
0.8788
0.820677
0.814092
0.802166
0.801606
0.813439
0.892309
1.4742
1.91904
2.08161
0.869291
0.824806
0.799607
0.796891
0.790717
0.793423
0.804989
1.04409
1.45723
1.72261
0.872414
0.819632
0.796678
0.778598
0.776256
0.770443
0.772779
0.803056
1.02497
1.392
0.873098
0.817765
0.797273
0.773825
0.766215
0.7609
0.758706
0.762374
0.79394
1.01085
0.870059
0.821146
0.794481
0.775413
0.760845
0.758917
0.754691
0.756254
0.766175
0.84799
0.869478
0.821396
0.794672
0.77596
0.75647
0.75066
0.748925
0.74576
0.748757
0.755849
0.870739
0.819979
0.795729
0.774095
0.75708
0.747721
0.746375
0.743826
0.745268
0.758389
0.872234
0.818305
0.796452
0.773104
0.75678
0.745839
0.743898
0.739745
0.74259
0.738527
0.870908
0.820491
0.792886
0.776229
0.755152
0.746904
0.742581
0.743393
0.73623
0.773424
0.998382
0.997342
0.999113
1.00503
1.03103
1.09893
1.30135
2.15829
2.56527
2.453
0.996621
0.992368
0.993514
0.996533
1.01264
1.06161
1.18297
1.70197
2.20573
2.26185
0.991615
0.983295
0.982415
0.983778
0.987864
1.00633
1.04777
1.24331
1.71448
1.93891
0.989628
0.982276
0.973882
0.968147
0.969273
0.970083
0.978832
1.00541
1.19051
1.30459
0.989531
0.981133
0.973838
0.963166
0.960548
0.961173
0.964751
0.978127
1.01897
1.17496
0.989104
0.98094
0.973586
0.961515
0.957074
0.957809
0.960067
0.970614
0.995978
1.09979
0.988286
0.981272
0.972727
0.961582
0.951988
0.951227
0.952009
0.95497
0.966455
0.990989
0.988375
0.981333
0.972943
0.961301
0.951258
0.94958
0.950638
0.953323
0.963439
0.995201
0.988689
0.981164
0.972853
0.961355
0.950858
0.947254
0.948242
0.948478
0.957636
0.962394
0.988468
0.981125
0.972449
0.961566
0.950731
0.947083
0.947654
0.950806
0.953516
0.9763
1.02893
1.0385
1.04497
1.05916
1.09638
1.18673
1.40788
2.27266
2.51061
2.44159
1.02806
1.03501
1.04131
1.05012
1.0762
1.14125
1.29307
1.90083
2.25828
2.30068
1.02511
1.03089
1.03389
1.03704
1.04675
1.07385
1.13657
1.34631
1.64591
1.93256
1.02237
1.03066
1.02985
1.02875
1.0293
1.03274
1.04268
1.07597
1.11916
1.23576
1.02194
1.03038
1.02927
1.02626
1.02453
1.02522
1.03208
1.05235
1.09306
1.26448
1.02198
1.03033
1.02905
1.0253
1.02353
1.02319
1.02836
1.04442
1.07847
1.2089
1.02186
1.03027
1.02887
1.02467
1.02097
1.02076
1.02184
1.02833
1.04442
1.08358
1.02195
1.03023
1.02884
1.02442
1.02052
1.02064
1.02133
1.02669
1.04056
1.07387
1.02196
1.03015
1.02876
1.02428
1.01994
1.01966
1.02009
1.02231
1.03084
1.04461
1.02195
1.03014
1.02868
1.02428
1.01989
1.0197
1.02017
1.02354
1.03302
1.05751
1.02531
1.04569
1.06247
1.08671
1.13723
1.24791
1.50231
2.40448
2.56171
2.46667
1.02411
1.04369
1.05887
1.07692
1.11435
1.19566
1.37434
2.05636
2.34502
2.37089
1.02267
1.04101
1.05325
1.06568
1.08284
1.11972
1.19781
1.44487
1.76489
2.03199
1.01961
1.04193
1.05551
1.05866
1.06348
1.07778
1.09385
1.13604
1.17245
1.30899
1.01904
1.04307
1.05417
1.05602
1.06049
1.07263
1.0846
1.11162
1.15487
1.342
1.01903
1.04339
1.05376
1.05536
1.05984
1.07131
1.08113
1.1027
1.13915
1.28896
1.01907
1.04389
1.05308
1.05437
1.05925
1.06997
1.07685
1.08528
1.10326
1.14831
1.01932
1.04421
1.0521
1.05365
1.05979
1.07037
1.07637
1.08303
1.09813
1.13352
1.01946
1.04426
1.05156
1.05322
1.05995
1.07036
1.07511
1.07866
1.08786
1.10324
1.01947
1.04414
1.0516
1.05329
1.05986
1.07041
1.07532
1.0796
1.08996
1.11436
1.01395
1.03524
1.05676
1.08647
1.14501
1.26906
1.54789
2.49754
2.57292
2.4669
1.0133
1.03407
1.05465
1.0771
1.12152
1.21423
1.41328
2.14054
2.40068
2.3928
1.01347
1.03265
1.05129
1.06806
1.08963
1.13317
1.22277
1.49447
1.83929
2.07955
1.01007
1.03466
1.05821
1.06301
1.07038
1.09139
1.11157
1.16035
1.1975
1.34179
1.00934
1.03648
1.05704
1.06066
1.06828
1.08787
1.10338
1.13554
1.18056
1.37882
1.00921
1.03702
1.05657
1.06002
1.06803
1.08742
1.10062
1.12688
1.16442
1.32385
1.00918
1.03777
1.05579
1.05897
1.06773
1.08789
1.09877
1.1081
1.12694
1.17506
1.00941
1.03845
1.05443
1.0578
1.0686
1.08906
1.0983
1.10565
1.12134
1.15856
1.00955
1.0387
1.05374
1.0572
1.06902
1.08947
1.09753
1.10155
1.11071
1.1277
1.00961
1.03854
1.05378
1.05727
1.06876
1.08977
1.0976
1.10255
1.11304
1.13861
1.01395
1.03524
1.05676
1.08647
1.14502
1.26906
1.54798
2.49657
2.57394
2.46268
1.01329
1.03407
1.05466
1.0771
1.12153
1.21422
1.41331
2.13995
2.4013
2.39118
1.01347
1.03265
1.05129
1.06805
1.08962
1.13315
1.22273
1.49419
1.83911
2.07838
1.01007
1.03467
1.05821
1.06301
1.07038
1.09138
1.11158
1.16032
1.19743
1.34156
1.00934
1.03648
1.05704
1.06066
1.06828
1.08786
1.10335
1.13547
1.18043
1.37838
1.0092
1.03702
1.05657
1.06002
1.06802
1.08741
1.10059
1.12682
1.16424
1.32345
1.00915
1.03777
1.0558
1.05897
1.06772
1.08787
1.09871
1.10792
1.12658
1.17397
1.00941
1.03843
1.05443
1.0578
1.06859
1.08903
1.09824
1.10556
1.12121
1.15835
1.0096
1.03869
1.05369
1.05719
1.06911
1.08948
1.09747
1.10163
1.11099
1.12886
1.00965
1.03853
1.05375
1.05727
1.06877
1.08981
1.0976
1.10257
1.11315
1.13886
1.02532
1.0457
1.06248
1.08672
1.13724
1.24794
1.50228
2.4055
2.56169
2.46808
1.02411
1.04369
1.05888
1.07693
1.11435
1.19565
1.37431
2.05607
2.34561
2.37173
1.02267
1.04102
1.05325
1.06567
1.08282
1.11966
1.19767
1.44458
1.76428
2.03183
1.01962
1.04193
1.05551
1.05866
1.06348
1.07776
1.09385
1.13598
1.17229
1.30824
1.01904
1.04307
1.05418
1.05602
1.06048
1.07259
1.08452
1.11141
1.15452
1.34028
1.01903
1.04339
1.05377
1.05536
1.05983
1.07128
1.08105
1.10253
1.13867
1.28724
1.01903
1.04388
1.05309
1.05436
1.05922
1.06991
1.07666
1.0848
1.10228
1.14539
1.01927
1.0442
1.05212
1.05366
1.05975
1.07026
1.07621
1.08275
1.0977
1.13261
1.01952
1.04424
1.05156
1.05325
1.06003
1.07036
1.07508
1.07892
1.08845
1.10629
1.01954
1.04415
1.05157
1.05331
1.05986
1.07048
1.07533
1.07961
1.09003
1.11449
1.02894
1.03851
1.04498
1.05917
1.0964
1.18678
1.40792
2.27389
2.51054
2.44182
1.02806
1.03501
1.04132
1.05012
1.07621
1.14125
1.29302
1.90124
2.2584
2.30076
1.0251
1.03089
1.03389
1.03704
1.04673
1.07378
1.13638
1.34595
1.64521
1.93168
1.02237
1.03066
1.02984
1.02874
1.02928
1.03272
1.04265
1.07585
1.11889
1.23477
1.02193
1.03038
1.02927
1.02624
1.02451
1.02517
1.03197
1.05202
1.09255
1.26149
1.02198
1.03032
1.02904
1.0253
1.02352
1.02315
1.02828
1.04425
1.07783
1.2104
1.02182
1.03025
1.02888
1.02473
1.0209
1.0207
1.02159
1.02767
1.04307
1.07975
1.02186
1.03027
1.02886
1.02449
1.02034
1.02042
1.021
1.02607
1.03923
1.07024
1.02207
1.03017
1.02875
1.02416
1.01986
1.01967
1.02012
1.02269
1.03111
1.04886
1.02207
1.03018
1.0287
1.02403
1.01983
1.01979
1.02024
1.02327
1.03261
1.0581
0.998392
0.997354
0.999124
1.00505
1.03106
1.09906
1.30145
2.1609
2.56409
2.45247
0.996613
0.99238
0.993528
0.996545
1.01265
1.06161
1.18303
1.703
2.20598
2.2621
0.991608
0.983293
0.982409
0.983771
0.987844
1.00628
1.04762
1.24335
1.71454
1.93853
0.989627
0.982269
0.973851
0.968121
0.969255
0.970057
0.978743
1.00518
1.19027
1.30271
0.989515
0.981118
0.973864
0.963163
0.960462
0.961075
0.964589
0.977719
1.01839
1.16936
0.989125
0.980869
0.973561
0.96156
0.957071
0.95778
0.959983
0.970397
0.995622
1.09837
0.988304
0.981374
0.972822
0.961766
0.951808
0.950647
0.951445
0.954063
0.964894
0.988327
0.987986
0.981089
0.973629
0.961384
0.951161
0.949088
0.949798
0.952294
0.958383
0.983725
0.989012
0.980586
0.973154
0.960711
0.95043
0.94717
0.948235
0.948916
0.95256
0.965285
0.988751
0.980912
0.972995
0.959863
0.95091
0.946944
0.947022
0.949089
0.952885
0.984236
0.878214
0.825082
0.818014
0.808587
0.810736
0.834573
1.04424
1.84512
2.27983
2.27235
0.878796
0.820692
0.8141
0.802186
0.801621
0.813468
0.892594
1.47579
1.92131
2.0828
0.86929
0.824805
0.799602
0.796889
0.790709
0.7934
0.804948
1.04382
1.45892
1.72224
0.872427
0.819567
0.796618
0.778642
0.776287
0.770385
0.772645
0.802602
1.02449
1.3902
0.873022
0.817876
0.797323
0.773921
0.765954
0.760735
0.758525
0.762021
0.793332
1.00466
0.870042
0.821073
0.794562
0.775579
0.760926
0.758724
0.75443
0.755934
0.765772
0.844557
0.870416
0.820858
0.794935
0.7749
0.757115
0.749378
0.747429
0.743881
0.746183
0.750057
0.868157
0.823873
0.794763
0.776329
0.754296
0.747301
0.744711
0.744123
0.740842
0.759499
0.870905
0.81955
0.794462
0.773697
0.75732
0.745391
0.744658
0.743212
0.740158
0.740724
0.86995
0.820606
0.794171
0.774476
0.756007
0.746233
0.741871
0.741782
0.722811
0.810119
2.16501
2.07722
2.13627
2.66817
2.63038
2.55705
2.53211
2.56383
2.65263
2.60023
2.08099
2.0421
2.31105
2.32961
2.2929
2.52938
2.67384
2.55703
2.57617
2.56347
1.95659
1.94811
1.99383
2.11804
2.07677
2.18268
2.27928
2.16892
2.18801
2.181
1.82745
1.90397
1.89955
1.85659
1.8657
1.8563
2.00685
1.99824
2.05161
1.92398
1.52874
1.79124
1.83799
1.80819
1.82097
1.84419
1.88732
1.90612
1.84724
1.79038
1.42641
1.55623
1.74092
1.73883
1.72317
1.80712
1.7924
1.77787
1.73454
1.72737
1.31759
1.45802
1.55126
1.66494
1.6906
1.69801
1.7142
1.69288
1.66111
1.63444
0.923641
1.4832
1.58088
1.71702
1.79442
1.70854
1.69339
1.66422
1.60835
1.57217
1.02021
1.41991
1.60102
1.73954
1.7128
1.71795
1.70749
1.64318
1.58763
1.58954
0.903597
1.51413
1.73479
1.745
1.74474
1.74605
1.71356
1.64344
1.59804
1.58105
2.36453
2.34704
2.44384
2.81139
2.78952
2.84494
2.87565
2.91351
2.88042
2.76762
2.2843
2.3416
2.52952
2.47288
2.48631
2.73092
2.77018
2.73382
2.68677
2.56861
2.11434
2.2643
2.37641
2.36412
2.34368
2.39505
2.4317
2.35553
2.35484
2.26902
1.98655
2.06262
2.07959
2.09891
2.13159
2.14811
2.19841
2.20787
2.19661
2.07461
1.78456
1.95327
1.99206
2.00166
2.04492
2.07796
2.09098
2.1272
1.99154
1.92601
1.65267
1.81386
1.89021
1.91596
1.9403
1.99675
2.02167
1.93414
1.86036
1.82963
1.47234
1.72489
1.78487
1.82977
1.90667
1.9682
1.90922
1.8491
1.7945
1.74516
1.28438
1.63091
1.75617
1.87663
1.97069
1.94859
1.8674
1.79807
1.70383
1.68056
1.25676
1.44845
1.74449
1.89713
1.9079
1.85843
1.81092
1.70729
1.65971
1.65883
1.15977
1.47417
1.75658
1.81803
1.81761
1.80124
1.72842
1.64554
1.6256
1.62261
2.3629
2.37144
2.48853
2.76607
2.75766
2.84169
2.95072
2.99531
2.95045
2.8909
2.29357
2.37236
2.58221
2.50546
2.52419
2.72207
2.79501
2.77034
2.75613
2.6216
2.12611
2.30769
2.43809
2.39968
2.40295
2.46047
2.45905
2.38383
2.40988
2.32249
2.01051
2.08193
2.07324
2.1144
2.17832
2.20811
2.24306
2.26607
2.2095
2.11191
1.87246
2.00002
2.0268
2.03923
2.09546
2.13102
2.1462
2.17414
2.01682
1.96801
1.73358
1.89671
1.94942
1.9722
2.01255
2.07439
2.09895
1.97633
1.89779
1.87458
1.60988
1.84574
1.87677
1.91122
1.9924
2.02963
1.94298
1.90544
1.83998
1.81398
1.48627
1.7422
1.84989
1.98133
2.05797
2.00436
1.94158
1.85463
1.76303
1.74509
1.36554
1.54257
1.81313
1.96795
1.99179
1.94166
1.88442
1.77688
1.70978
1.7046
1.24353
1.60941
1.84906
1.90819
1.90172
1.89058
1.80698
1.71337
1.67782
1.67247
2.3979
2.4136
2.55752
2.92377
2.84847
2.91016
2.97493
3.03394
2.98563
2.94722
2.34888
2.44198
2.66028
2.59477
2.61659
2.76911
2.83484
2.80783
2.76942
2.60158
2.20507
2.3987
2.49369
2.4381
2.47068
2.56033
2.53543
2.4495
2.48157
2.3518
2.10588
2.18496
2.17123
2.21152
2.28439
2.32926
2.34357
2.3531
2.26895
2.18206
2.00087
2.11484
2.14553
2.14976
2.21004
2.24666
2.25904
2.24132
2.10895
2.06917
1.84623
2.02448
2.08665
2.11188
2.16586
2.22763
2.22399
2.06135
1.99096
1.97273
1.7488
1.97766
2.00413
2.05115
2.13977
2.16568
2.03853
1.98505
1.92905
1.91248
1.64836
1.85555
1.96278
2.11687
2.17992
2.09666
2.03402
1.93517
1.85649
1.84652
1.4766
1.65858
1.92633
2.08115
2.10888
2.0652
1.97367
1.85473
1.79015
1.79304
1.36757
1.74633
1.95984
2.00937
1.99791
1.98827
1.89568
1.79005
1.74176
1.74655
2.41428
2.43244
2.60788
2.96497
2.91383
2.94372
2.97911
3.05614
2.99842
2.78771
2.3793
2.47754
2.6897
2.63623
2.65056
2.80793
2.80606
2.81269
2.78459
2.5378
2.2466
2.45337
2.51698
2.47779
2.55367
2.63147
2.57675
2.46504
2.48786
2.368
2.14975
2.23608
2.23939
2.29456
2.37443
2.41599
2.4061
2.39453
2.30685
2.22444
2.06261
2.1733
2.20848
2.22687
2.29837
2.32797
2.3291
2.25724
2.15934
2.1349
1.90953
2.0814
2.1545
2.18826
2.26533
2.3146
2.27382
2.10682
2.0453
2.04194
1.81778
2.04204
2.07346
2.13323
2.23058
2.24731
2.1092
2.0372
1.98293
1.97947
1.72851
1.91315
2.0252
2.18991
2.24951
2.15643
2.08796
1.987
1.92766
1.9234
1.54478
1.73632
1.99147
2.14486
2.13648
2.12255
2.03658
1.91362
1.86235
1.87007
1.43665
1.82116
2.02729
2.07016
2.05707
2.04915
1.95586
1.85855
1.81784
1.82417
2.41108
2.42922
2.60694
2.96527
2.91424
2.93475
3.01489
3.04859
2.90388
2.72991
2.37724
2.47543
2.68855
2.63689
2.6506
2.81507
2.75672
2.81427
2.6987
2.5044
2.2455
2.45282
2.51753
2.47787
2.55242
2.63715
2.58177
2.47071
2.47409
2.37092
2.14834
2.23536
2.23991
2.29526
2.37441
2.41274
2.40848
2.39144
2.31147
2.22547
2.06199
2.17309
2.20804
2.22785
2.29874
2.32791
2.32871
2.25581
2.15984
2.13615
1.90802
2.07848
2.15397
2.18984
2.26749
2.3142
2.268
2.10534
2.04921
2.04403
1.81615
2.03937
2.07533
2.13812
2.23022
2.2414
2.1117
2.03721
1.98362
1.9816
1.72469
1.91967
2.02504
2.18319
2.24944
2.16203
2.09675
1.98752
1.92917
1.92666
1.54454
1.74134
1.9803
2.13543
2.13703
2.12331
2.0363
1.91318
1.86335
1.87217
1.4388
1.82717
2.04337
2.07249
2.06128
2.05326
1.96073
1.85969
1.81833
1.82528
2.39857
2.41396
2.5573
2.92481
2.84486
2.9
2.97187
3.06283
2.95891
2.93241
2.34865
2.44117
2.65884
2.59442
2.61328
2.77738
2.80234
2.78764
2.73203
2.5653
2.20598
2.39745
2.4927
2.43659
2.46806
2.56367
2.54501
2.4555
2.45929
2.34463
2.10476
2.18393
2.16969
2.21059
2.27949
2.32504
2.33996
2.34557
2.2803
2.18547
2.00225
2.11701
2.14633
2.15001
2.20688
2.24441
2.25992
2.23336
2.11161
2.07119
1.84161
2.02023
2.09043
2.11676
2.1719
2.22382
2.21454
2.0532
1.99564
1.97574
1.74457
1.98072
2.01652
2.06634
2.14205
2.1568
2.04376
1.98099
1.92713
1.91665
1.64523
1.88216
1.98471
2.12193
2.18285
2.09998
2.05049
1.93369
1.85416
1.85266
1.47339
1.66633
1.86308
2.03052
2.07348
2.04614
1.96629
1.84712
1.78941
1.79726
1.36769
1.75931
1.9639
2.00542
2.00038
1.98834
1.90073
1.7901
1.74335
1.75106
2.36244
2.37047
2.48805
2.76704
2.75471
2.83648
2.93379
3.02635
2.95178
2.85114
2.29246
2.37096
2.57944
2.50358
2.51949
2.7192
2.80406
2.79706
2.74103
2.56053
2.12602
2.30518
2.43738
2.39813
2.4011
2.4672
2.47169
2.39799
2.40611
2.29176
2.00763
2.07907
2.07002
2.11221
2.1724
2.20277
2.24148
2.26217
2.21742
2.10566
1.87592
2.00408
2.02559
2.03524
2.09093
2.12641
2.14924
2.17447
2.01112
1.96431
1.71117
1.88301
1.95315
1.9841
2.02649
2.07227
2.09937
1.96309
1.89788
1.87066
1.60498
1.86368
1.89965
1.92922
1.99529
2.03606
1.94687
1.89618
1.83035
1.81288
1.51871
1.77552
1.88911
1.99243
2.05828
2.00685
1.96274
1.84204
1.75091
1.7474
1.35777
1.63317
1.75339
1.88947
1.94483
1.91933
1.87313
1.75673
1.69736
1.70345
1.21825
1.6165
1.86499
1.89988
1.89615
1.8814
1.80662
1.7051
1.65992
1.6616
2.36351
2.34626
2.44471
2.80651
2.78415
2.83372
2.86994
2.93969
2.82921
2.6776
2.28312
2.34059
2.5277
2.4701
2.47912
2.73103
2.76992
2.83589
2.75379
2.56448
2.11441
2.26376
2.37923
2.36534
2.34254
2.41248
2.46661
2.39877
2.37412
2.25959
1.98395
2.05471
2.07397
2.09882
2.12754
2.1376
2.19934
2.20468
2.19342
2.06865
1.79402
1.96637
1.9966
2.00284
2.04566
2.07211
2.09681
2.13665
1.98712
1.92232
1.62534
1.77468
1.8773
1.92697
1.95774
1.99715
2.02805
1.93152
1.86226
1.81728
1.46037
1.75893
1.82343
1.8567
1.91319
1.97496
1.91323
1.85066
1.78931
1.74408
1.35953
1.7199
1.82552
1.89096
1.96181
1.93018
1.89695
1.79675
1.695
1.68609
1.24993
1.70009
1.73189
1.85098
1.8805
1.84957
1.81337
1.70299
1.65292
1.66288
1.03557
1.44633
1.80545
1.84792
1.84394
1.81917
1.73656
1.64612
1.61351
1.61055
2.16971
2.08416
2.14287
2.68204
2.63107
2.53769
2.55514
2.65544
2.70182
2.64131
2.08573
2.04945
2.30792
2.33345
2.29085
2.52782
2.68429
2.63724
2.61701
2.54803
1.95639
1.95108
1.99675
2.12201
2.07488
2.22881
2.38938
2.24421
2.24281
2.20859
1.82132
1.90247
1.89762
1.86975
1.86059
1.8499
2.03455
2.01242
2.05444
1.92567
1.53532
1.80487
1.84264
1.81903
1.83236
1.83302
1.92293
1.95674
1.86422
1.80515
1.35735
1.47335
1.7038
1.72882
1.73378
1.77865
1.78952
1.8018
1.76008
1.71351
1.02726
1.54844
1.5878
1.69542
1.73037
1.71911
1.73778
1.72566
1.67892
1.63484
0.955809
1.57449
1.58104
1.67595
1.7509
1.70566
1.73507
1.70217
1.59825
1.58375
1.03608
1.67857
1.64738
1.7845
1.81648
1.80106
1.77112
1.65731
1.57808
1.59245
0.761455
1.82456
1.97316
1.92526
1.87931
1.82728
1.74556
1.65612
1.59083
1.57709
)
;

boundaryField
{
    inlet
    {
        type            fixedValue;
        value           uniform 1;
    }
    outlet
    {
        type            inletOutlet;
        inletValue      uniform 1;
        value           nonuniform List<scalar> 
100
(
2.59968
2.56381
2.18089
1.92397
1.79028
1.72741
1.63448
1.57219
1.58955
1.58105
2.76742
2.56872
2.26896
2.07459
1.92601
1.82963
1.74518
1.68056
1.65884
1.62261
2.89093
2.62151
2.32245
2.11191
1.96802
1.87459
1.81398
1.74509
1.7046
1.67248
2.94735
2.60141
2.35182
2.18205
2.0692
1.97275
1.91249
1.84652
1.79305
1.74655
2.78782
2.53774
2.36804
2.22442
2.13494
2.04196
1.97949
1.9234
1.87007
1.82417
2.72995
2.50439
2.37096
2.2255
2.13617
2.04404
1.9816
1.92666
1.87217
1.82528
2.93246
2.56526
2.34466
2.18549
2.07119
1.97574
1.91666
1.85266
1.79726
1.75106
2.85123
2.56042
2.29174
2.10566
1.9643
1.87065
1.81289
1.7474
1.70345
1.6616
2.67765
2.56446
2.25953
2.06865
1.92231
1.81725
1.74409
1.68609
1.66289
1.61055
2.64109
2.54825
2.20845
1.92577
1.80517
1.7134
1.63483
1.58376
1.59245
1.57709
)
;
    }
    top
    {
        type            symmetryPlane;
    }
    bottom
    {
        type            symmetryPlane;
    }
    step
    {
        type            zeroGradient;
    }
    defaultFaces
    {
        type            empty;
    }
}


// ************************************************************************* //
