/*--------------------------------*- C++ -*----------------------------------*\
  =========                 |
  \\      /  F ield         | OpenFOAM: The Open Source CFD Toolbox
   \\    /   O peration     | Website:  https://openfoam.org
    \\  /    A nd           | Version:  6.0
     \\/     M anipulation  |
\*---------------------------------------------------------------------------*/
FoamFile
{
    version     2.0;
    format      ascii;
    class       volVectorField;
    location    "4";
    object      U;
}
// * * * * * * * * * * * * * * * * * * * * * * * * * * * * * * * * * * * * * //

dimensions      [0 1 -1 0 0 0 0];

internalField   nonuniform List<vector> 
300
(
(2.99922 2.69637e-05 0)
(2.99026 0.000112655 0)
(3.00403 0.000276717 0)
(2.77545 0.00018114 0)
(2.30793 0.00318189 0)
(1.49039 0.00619367 0)
(0.456676 0.0172118 0)
(0.357529 0.0307393 0)
(0.338029 0.0502373 0)
(0.25394 0.0541265 0)
(2.99925 9.09002e-05 0)
(2.99035 0.000364999 0)
(3.00406 0.000909436 0)
(2.77627 0.000905765 0)
(2.31025 0.00966528 0)
(1.49368 0.0203284 0)
(0.458031 0.0525701 0)
(0.355856 0.0835769 0)
(0.332526 0.11503 0)
(0.246997 0.108943 0)
(2.99933 0.000156831 0)
(2.99055 0.000637001 0)
(3.00422 0.00161776 0)
(2.77801 0.00183836 0)
(2.31645 0.0166625 0)
(1.50377 0.0377944 0)
(0.468454 0.0950334 0)
(0.361528 0.14187 0)
(0.329666 0.184888 0)
(0.238322 0.180392 0)
(2.99945 0.000208906 0)
(2.99086 0.000893286 0)
(3.00447 0.00232084 0)
(2.78074 0.00261825 0)
(2.32679 0.024282 0)
(1.52153 0.0576951 0)
(0.486965 0.142113 0)
(0.372568 0.200704 0)
(0.330205 0.252633 0)
(0.231161 0.257545 0)
(2.99961 0.000245867 0)
(2.99128 0.00112235 0)
(3.00482 0.00300243 0)
(2.78456 0.00337365 0)
(2.34193 0.0323472 0)
(1.54791 0.0793574 0)
(0.513191 0.192542 0)
(0.387846 0.259601 0)
(0.334356 0.318806 0)
(0.226686 0.336664 0)
(2.99981 0.000255055 0)
(2.99182 0.00128838 0)
(3.00527 0.00358249 0)
(2.78956 0.00383148 0)
(2.36234 0.0407019 0)
(1.58366 0.101871 0)
(0.547138 0.245664 0)
(0.407059 0.319158 0)
(0.342544 0.385313 0)
(0.225599 0.418929 0)
(3.00002 0.000241743 0)
(2.99244 0.00136675 0)
(3.00574 0.00405132 0)
(2.79579 0.004179 0)
(2.38775 0.0490564 0)
(1.62898 0.124804 0)
(0.588396 0.30098 0)
(0.429982 0.379843 0)
(0.35551 0.453654 0)
(0.228706 0.507283 0)
(3.00024 0.000179347 0)
(2.99314 0.00129235 0)
(3.00629 0.00420889 0)
(2.80329 0.0033015 0)
(2.4193 0.0574792 0)
(1.68481 0.147836 0)
(0.637629 0.357909 0)
(0.457262 0.441841 0)
(0.374711 0.524692 0)
(0.237414 0.605704 0)
(3.00043 7.61938e-05 0)
(2.99384 0.00116526 0)
(3.00655 0.00416457 0)
(2.81205 0.00170546 0)
(2.45506 0.0635956 0)
(1.74995 0.172972 0)
(0.691097 0.414987 0)
(0.487885 0.504737 0)
(0.401967 0.598572 0)
(0.25386 0.720729 0)
(3.00061 -0.000396966 0)
(2.99456 0.00109366 0)
(3.00669 0.00766956 0)
(2.82109 0.00136993 0)
(2.49625 0.066387 0)
(1.82496 0.217491 0)
(0.744618 0.472233 0)
(0.520943 0.567337 0)
(0.440558 0.672951 0)
(0.281707 0.865002 0)
(3.00081 -0.00135105 0)
(2.99971 -0.00201398 0)
(3.00756 -0.00299449 0)
(2.85169 -0.0158785 0)
(2.66733 0.0610297 0)
(2.09384 0.194421 0)
(0.967117 0.566181 0)
(0.732785 0.689558 0)
(0.743057 0.804998 0)
(0.734008 1.02566 0)
(2.99757 -0.0014601 0)
(2.98928 -0.00205947 0)
(2.98863 -0.00657097 0)
(2.89545 -0.0168294 0)
(2.79657 0.0671556 0)
(2.38359 0.138804 0)
(1.28906 0.580537 0)
(0.940093 0.737708 0)
(0.942034 0.8397 0)
(1.01534 0.940151 0)
(2.99806 -0.000257883 0)
(2.99293 0.000912409 0)
(2.98832 0.00649435 0)
(2.94354 0.00156011 0)
(2.90077 0.0611111 0)
(2.62601 0.115308 0)
(1.73436 0.469794 0)
(1.25765 0.73732 0)
(1.15576 0.849426 0)
(1.19223 0.917555 0)
(2.99869 0.000584714 0)
(2.99831 0.000363284 0)
(2.98959 0.0043684 0)
(2.9666 0.00617257 0)
(2.95793 0.0396006 0)
(2.78175 0.0762385 0)
(2.24981 0.299116 0)
(1.72058 0.665725 0)
(1.45236 0.827828 0)
(1.41315 0.920185 0)
(2.99863 0.000211946 0)
(2.99796 0.000742091 0)
(2.99606 0.000582994 0)
(2.9903 0.00687452 0)
(2.99589 0.0198299 0)
(2.88353 0.0305165 0)
(2.69838 0.172156 0)
(2.29512 0.450243 0)
(1.7963 0.775422 0)
(1.67239 0.90761 0)
(2.99968 -6.39496e-05 0)
(2.9988 0.000998554 0)
(2.9977 0.00125642 0)
(2.99279 0.00354632 0)
(2.98869 0.00840351 0)
(2.94984 0.00176152 0)
(2.90589 0.0830835 0)
(2.72928 0.187977 0)
(2.25732 0.551795 0)
(1.99822 0.796205 0)
(2.99989 9.37853e-05 0)
(2.99972 0.000185237 0)
(2.99946 0.000852415 0)
(2.99988 0.00167589 0)
(2.99399 0.00542529 0)
(2.98168 0.0085026 0)
(2.97583 0.03792 0)
(2.90787 0.0701248 0)
(2.73173 0.232381 0)
(2.47574 0.507134 0)
(2.99994 6.36203e-05 0)
(2.99981 4.15231e-05 0)
(2.99969 0.000201177 0)
(2.99887 0.000226488 0)
(2.99776 -0.000105942 0)
(2.9935 0.00351485 0)
(2.99066 0.0117284 0)
(2.95872 0.0199532 0)
(2.9176 0.0705928 0)
(2.79 0.176078 0)
(2.99996 1.28709e-05 0)
(2.9999 3.01446e-05 0)
(2.9997 9.2889e-05 0)
(2.99948 8.15583e-05 0)
(2.99841 0.000627515 0)
(2.99751 0.000743554 0)
(2.9979 0.0038869 0)
(2.98434 0.00264412 0)
(2.97276 0.024037 0)
(2.90289 0.0487916 0)
(2.99998 -6.09634e-06 0)
(2.99991 2.21318e-05 0)
(2.99975 2.72602e-06 0)
(2.99958 6.01865e-05 0)
(2.99865 8.06556e-05 0)
(2.99785 0.000242119 0)
(2.99321 0.000337016 0)
(2.98516 -0.00331763 0)
(2.98264 0.000855022 0)
(2.91067 0.00373295 0)
(1.56142 0.841202 0)
(1.71439 0.540116 0)
(1.5593 0.138516 0)
(1.33066 -0.105873 0)
(1.00368 -0.0359205 0)
(0.849726 0.00290823 0)
(0.942132 -0.0197049 0)
(1.04885 -0.0314037 0)
(1.13512 -0.0245345 0)
(1.22675 0.00261088 0)
(1.61187 0.648941 0)
(1.74689 0.294563 0)
(1.7089 -0.063072 0)
(1.6203 -0.217748 0)
(1.42164 -0.15767 0)
(1.29926 -0.0450815 0)
(1.35911 -0.0585744 0)
(1.43397 -0.0556838 0)
(1.49651 -0.0322946 0)
(1.56025 0.0149602 0)
(1.6304 0.640714 0)
(1.7867 0.348404 0)
(1.80319 0.117709 0)
(1.74831 -0.0965661 0)
(1.63646 -0.220276 0)
(1.57491 -0.140658 0)
(1.62331 -0.117215 0)
(1.68419 -0.0749968 0)
(1.73121 -0.0235523 0)
(1.78139 0.0331595 0)
(1.66909 0.736343 0)
(1.81071 0.452901 0)
(1.83331 0.175314 0)
(1.81132 -0.108318 0)
(1.77949 -0.304163 0)
(1.77813 -0.289955 0)
(1.82327 -0.203128 0)
(1.87383 -0.109768 0)
(1.90794 -0.0222266 0)
(1.94597 0.0485578 0)
(1.736 0.821691 0)
(1.83308 0.505948 0)
(1.85714 0.19596 0)
(1.85981 -0.115076 0)
(1.87938 -0.335427 0)
(1.92196 -0.358871 0)
(1.97607 -0.256394 0)
(2.01853 -0.13081 0)
(2.04354 -0.0143453 0)
(2.07132 0.0731822 0)
(1.83216 0.846962 0)
(1.85843 0.571622 0)
(1.88535 0.21438 0)
(1.90571 -0.122668 0)
(1.95745 -0.34518 0)
(2.0293 -0.376302 0)
(2.09668 -0.28583 0)
(2.13784 -0.149832 0)
(2.15521 -0.0219302 0)
(2.17578 0.0848498 0)
(1.96701 0.79776 0)
(1.89976 0.535222 0)
(1.90992 0.188287 0)
(1.94566 -0.137706 0)
(2.0193 -0.327523 0)
(2.11263 -0.345622 0)
(2.19132 -0.2768 0)
(2.23181 -0.154574 0)
(2.24479 -0.0335096 0)
(2.26336 0.0846775 0)
(2.04178 0.771168 0)
(1.90874 0.454439 0)
(1.92422 0.12873 0)
(1.96741 -0.125028 0)
(2.05675 -0.253111 0)
(2.16808 -0.268067 0)
(2.25475 -0.22784 0)
(2.2995 -0.138632 0)
(2.31101 -0.0367896 0)
(2.33238 0.0715039 0)
(2.09484 0.602118 0)
(1.88186 0.358307 0)
(1.91479 0.113541 0)
(1.97493 -0.0676338 0)
(2.07981 -0.142807 0)
(2.19736 -0.161179 0)
(2.2893 -0.144666 0)
(2.33969 -0.0982771 0)
(2.35409 -0.0294557 0)
(2.37943 0.0461732 0)
(2.06547 0.168616 0)
(1.78804 0.143894 0)
(1.8373 0.0538768 0)
(1.91921 -0.011626 0)
(2.04694 -0.0397866 0)
(2.17734 -0.0511116 0)
(2.27881 -0.0502839 0)
(2.33753 -0.0383435 0)
(2.35686 -0.0138656 0)
(2.38668 0.0139031 0)
)
;

boundaryField
{
    inlet
    {
        type            fixedValue;
        value           uniform (3 0 0);
    }
    outlet
    {
        type            inletOutlet;
        inletValue      uniform (3 0 0);
        value           nonuniform List<vector> 10((1.22675 0.00261088 0) (1.56025 0.0149602 0) (1.78139 0.0331595 0) (1.94597 0.0485578 0) (2.07132 0.0731822 0) (2.17578 0.0848498 0) (2.26336 0.0846775 0) (2.33238 0.0715039 0) (2.37943 0.0461732 0) (2.38668 0.0139031 0));
    }
    top
    {
        type            symmetryPlane;
    }
    bottom
    {
        type            symmetryPlane;
    }
    step
    {
        type            slip;
    }
    defaultFaces
    {
        type            empty;
    }
}


// ************************************************************************* //
