/*--------------------------------*- C++ -*----------------------------------*\
  =========                 |
  \\      /  F ield         | OpenFOAM: The Open Source CFD Toolbox
   \\    /   O peration     | Website:  https://openfoam.org
    \\  /    A nd           | Version:  6.0
     \\/     M anipulation  |
\*---------------------------------------------------------------------------*/
FoamFile
{
    version     2.0;
    format      ascii;
    class       volVectorField;
    location    "4";
    object      U;
}
// * * * * * * * * * * * * * * * * * * * * * * * * * * * * * * * * * * * * * //

dimensions      [0 1 -1 0 0 0 0];

internalField   nonuniform List<vector> 
3000
(
(3.09246 1.11449e-05 -0.0762116)
(3.11476 1.95694e-05 -0.0831111)
(3.11832 6.60636e-05 -0.0850854)
(3.11382 0.00012589 -0.0865159)
(3.09302 0.000229358 -0.0911604)
(2.99791 0.00046343 -0.104299)
(2.55162 0.00153678 -0.160923)
(1.40924 -0.000485731 -0.29622)
(0.123365 0.0255449 -0.322152)
(0.14088 0.0438542 -0.315427)
(3.09246 3.82595e-05 -0.0762145)
(3.11478 6.34849e-05 -0.0831033)
(3.11835 0.000221194 -0.0850854)
(3.11386 0.000427236 -0.0865051)
(3.0931 0.000802434 -0.091138)
(2.99814 0.00174899 -0.104223)
(2.55183 0.00576931 -0.161026)
(1.38987 0.0100485 -0.298544)
(0.16773 0.0565683 -0.320289)
(0.176905 0.0901366 -0.308064)
(3.09247 7.5198e-05 -0.0762225)
(3.11481 0.000117741 -0.0830837)
(3.11842 0.000422401 -0.0850882)
(3.11397 0.000824442 -0.0864834)
(3.09337 0.00158159 -0.0910872)
(2.99902 0.00361204 -0.104087)
(2.55589 0.0118313 -0.160664)
(1.39852 0.0314178 -0.296807)
(0.170089 0.0862847 -0.320048)
(0.187065 0.135128 -0.30371)
(3.0925 0.000122859 -0.0762374)
(3.11486 0.000184595 -0.0830486)
(3.11854 0.000674246 -0.0850952)
(3.11417 0.00132145 -0.0864485)
(3.09385 0.00254966 -0.0910039)
(3.0007 0.00587459 -0.103859)
(2.56355 0.0188346 -0.159947)
(1.42342 0.0508074 -0.293317)
(0.160754 0.129752 -0.31932)
(0.189265 0.195793 -0.301063)
(3.09253 0.000185715 -0.0762606)
(3.11494 0.000269083 -0.082994)
(3.11873 0.00100104 -0.0851072)
(3.11448 0.00196721 -0.0863972)
(3.09459 0.00379972 -0.0908819)
(3.00319 0.00874942 -0.103525)
(2.57396 0.0275584 -0.158844)
(1.4575 0.0742761 -0.289936)
(0.167192 0.193384 -0.31686)
(0.195846 0.274199 -0.297655)
(3.09258 0.000268317 -0.0762952)
(3.11505 0.000383091 -0.0829123)
(3.11901 0.00143764 -0.0851262)
(3.11492 0.00281773 -0.0863245)
(3.09568 0.00539719 -0.0907107)
(3.00682 0.0122469 -0.103044)
(2.58919 0.0380988 -0.157209)
(1.5158 0.100789 -0.282843)
(0.195061 0.269638 -0.313133)
(0.210479 0.366126 -0.293452)
(3.09265 0.000379676 -0.0763411)
(3.11522 0.00056525 -0.082798)
(3.1194 0.00207582 -0.0851525)
(3.11554 0.00400135 -0.0862279)
(3.09713 0.00750748 -0.0904811)
(3.0116 0.0170368 -0.102435)
(2.60861 0.0522526 -0.154911)
(1.58825 0.137095 -0.276097)
(0.235691 0.361532 -0.308623)
(0.231368 0.474417 -0.28837)
(3.09275 0.000528646 -0.0763858)
(3.11547 0.000910432 -0.0826519)
(3.11996 0.00289616 -0.0851901)
(3.11638 0.00532715 -0.0861119)
(3.09918 0.00953252 -0.0902156)
(3.01886 0.0207136 -0.101357)
(2.63691 0.0660642 -0.152136)
(1.6889 0.163354 -0.26107)
(0.292852 0.466546 -0.301935)
(0.25803 0.601046 -0.281407)
(3.09292 0.00070398 -0.0763777)
(3.11582 0.00132097 -0.0825012)
(3.12062 0.00378955 -0.0852024)
(3.11732 0.00673783 -0.0860015)
(3.10124 0.0116601 -0.0898953)
(3.0266 0.0243753 -0.100356)
(2.67119 0.0817257 -0.148405)
(1.77518 0.193984 -0.254727)
(0.358924 0.597103 -0.294405)
(0.28838 0.758697 -0.273788)
(3.09314 0.000912211 -0.0763676)
(3.11626 0.00171197 -0.0823148)
(3.12146 0.0048479 -0.0852217)
(3.11848 0.0085893 -0.0858646)
(3.10387 0.0148384 -0.0894997)
(3.0369 0.0307709 -0.0989672)
(2.7191 0.100198 -0.142801)
(1.88502 0.232806 -0.242683)
(0.439923 0.753272 -0.285715)
(0.311699 0.955532 -0.263129)
(3.00384 1.35758e-05 -0.0133071)
(3.01107 3.59052e-05 -0.0199203)
(3.01097 8.68718e-05 -0.0219407)
(3.00232 0.000197845 -0.0240611)
(2.96775 0.000429015 -0.0276906)
(2.86357 0.000909056 -0.0341476)
(2.50704 0.00222874 -0.0484861)
(0.740936 0.00781216 -0.102427)
(-0.509691 0.0290162 -0.0994774)
(0.438316 -0.0938847 -0.0906551)
(3.00385 4.50719e-05 -0.013308)
(3.0111 0.000116123 -0.0199195)
(3.01101 0.000277147 -0.0219401)
(3.0024 0.00062544 -0.0240564)
(2.96795 0.00134849 -0.0276779)
(2.8641 0.00286716 -0.0341156)
(2.50906 0.00676859 -0.0483803)
(0.761632 0.0233373 -0.101578)
(-0.517418 0.0702411 -0.100345)
(-0.0511787 0.0384759 -0.0939734)
(3.00387 8.60539e-05 -0.0133102)
(3.01116 0.000216704 -0.0199173)
(3.01109 0.000510594 -0.0219403)
(3.00259 0.0011415 -0.0240489)
(2.96837 0.00244731 -0.0276555)
(2.86507 0.00522453 -0.0340665)
(2.51219 0.012111 -0.0482297)
(0.774686 0.0410271 -0.101259)
(-0.508336 0.123229 -0.100143)
(-0.0777686 0.163427 -0.0930468)
(3.0039 0.000138487 -0.0133145)
(3.01126 0.000344997 -0.019913)
(3.01121 0.000806626 -0.0219415)
(3.00288 0.00178968 -0.0240389)
(2.96906 0.00381143 -0.027623)
(2.86673 0.00811519 -0.0339932)
(2.5173 0.0187264 -0.0480171)
(0.79037 0.0629913 -0.100954)
(-0.491268 0.186361 -0.0991586)
(-0.0781806 0.283845 -0.0914072)
(3.00394 0.0002082 -0.0133212)
(3.01141 0.000515736 -0.0199052)
(3.01139 0.00119762 -0.0219435)
(3.00332 0.00263286 -0.0240252)
(2.97007 0.00555424 -0.0275779)
(2.8692 0.0117567 -0.0338883)
(2.52502 0.02703 -0.0476995)
(0.810996 0.0898596 -0.100503)
(-0.466877 0.25947 -0.0977596)
(-0.0696839 0.399937 -0.0895561)
(3.00401 0.000308932 -0.0133315)
(3.01162 0.000760252 -0.0198913)
(3.01165 0.00173822 -0.0219472)
(3.00393 0.00374977 -0.024009)
(2.9715 0.00777996 -0.0275208)
(2.87277 0.0163027 -0.0337476)
(2.53604 0.037276 -0.0472795)
(0.850506 0.122226 -0.099969)
(-0.429354 0.342168 -0.0963768)
(-0.0536406 0.517273 -0.0873512)
(3.00411 0.000495466 -0.0133457)
(3.01193 0.0011702 -0.0198679)
(3.01202 0.00249939 -0.0219531)
(3.00476 0.00516011 -0.0239917)
(2.97344 0.0105202 -0.0274482)
(2.87752 0.0219595 -0.0335628)
(2.55079 0.0505054 -0.0467137)
(0.894823 0.162042 -0.099304)
(-0.383943 0.437325 -0.0947678)
(-0.0360254 0.643256 -0.085033)
(3.00429 0.000919377 -0.0133639)
(3.01236 0.00200488 -0.0198303)
(3.01253 0.0037154 -0.0219972)
(3.00586 0.00695684 -0.0239845)
(2.9759 0.0136601 -0.0273627)
(2.885 0.028343 -0.0332785)
(2.57308 0.0659598 -0.0459249)
(1.00452 0.209398 -0.0980624)
(-0.305831 0.546887 -0.0931885)
(-0.0165731 0.780771 -0.0822256)
(3.00471 0.00138939 -0.0133845)
(3.01294 0.00292389 -0.0197823)
(3.01321 0.00505853 -0.0220562)
(3.00722 0.00893583 -0.0239654)
(2.9792 0.0171108 -0.0272107)
(2.89367 0.0355929 -0.0328914)
(2.60028 0.0846417 -0.0448578)
(1.12521 0.270101 -0.095561)
(-0.209369 0.681603 -0.0913579)
(-0.00016101 0.935236 -0.0795753)
(3.00525 0.00174197 -0.0134106)
(3.01368 0.00364622 -0.0197259)
(3.01407 0.0062728 -0.0221376)
(3.00889 0.0109833 -0.0239468)
(2.98333 0.0208563 -0.027025)
(2.90549 0.0432182 -0.0323845)
(2.6391 0.102039 -0.0434225)
(1.34043 0.316405 -0.0915333)
(-0.0697584 0.833483 -0.0895613)
(0.0139946 1.10994 -0.0767737)
(2.97271 5.92643e-06 0.000733008)
(2.96457 2.87865e-05 -0.00225482)
(2.9578 8.15043e-05 -0.00342577)
(2.93783 0.000194623 -0.00512871)
(2.88777 0.000438477 -0.00766365)
(2.75941 0.000985555 -0.0117692)
(2.36663 0.00236021 -0.020249)
(0.783312 0.00734501 -0.0443937)
(-0.469129 0.0241773 -0.0457433)
(-0.327213 0.0413709 -0.0448785)
(2.97272 1.85667e-05 0.000731875)
(2.96459 9.42314e-05 -0.00225535)
(2.95785 0.000257585 -0.00342615)
(2.93794 0.000604467 -0.0051283)
(2.888 0.0013542 -0.00766083)
(2.75995 0.00304383 -0.0117604)
(2.36829 0.00728418 -0.0202224)
(0.787396 0.0223109 -0.0443853)
(-0.46674 0.0664649 -0.0457884)
(-0.290037 0.11534 -0.0434661)
(2.97274 3.30946e-05 0.00072918)
(2.96464 0.000180265 -0.00225602)
(2.95796 0.000473453 -0.00342929)
(2.93818 0.00108553 -0.00512851)
(2.88852 0.00240973 -0.00765458)
(2.76115 0.00541058 -0.0117403)
(2.37197 0.0129679 -0.0201501)
(0.799103 0.0395921 -0.0442842)
(-0.457125 0.126845 -0.0455828)
(-0.271994 0.223864 -0.0423608)
(2.97277 5.04873e-05 0.000724417)
(2.96473 0.000297796 -0.00225625)
(2.95815 0.000758692 -0.00343694)
(2.93856 0.00169796 -0.00513042)
(2.88936 0.00371663 -0.00764544)
(2.76313 0.00829582 -0.0117088)
(2.37807 0.0198742 -0.0200342)
(0.823266 0.0605821 -0.0440419)
(-0.432632 0.197846 -0.0449974)
(-0.253253 0.340144 -0.0411703)
(2.97282 7.36964e-05 0.000717027)
(2.96487 0.000469143 -0.00225524)
(2.95842 0.00115461 -0.00344862)
(2.93913 0.00250256 -0.00513427)
(2.89059 0.00536325 -0.0076336)
(2.76608 0.011853 -0.0116637)
(2.38731 0.0283325 -0.0198621)
(0.861677 0.0855599 -0.043652)
(-0.394442 0.273314 -0.0443227)
(-0.231293 0.45089 -0.0399484)
(2.97291 0.000113072 0.000706104)
(2.96508 0.000740019 -0.00225127)
(2.95881 0.00171819 -0.0034663)
(2.93992 0.00355576 -0.00514261)
(2.89231 0.0074199 -0.00762177)
(2.77025 0.0162291 -0.0116075)
(2.40029 0.0387014 -0.0196371)
(0.914248 0.11525 -0.0431068)
(-0.343937 0.354321 -0.0436177)
(-0.205679 0.561573 -0.0387779)
(2.97305 0.000203478 0.000690105)
(2.96539 0.00120171 -0.00224179)
(2.95935 0.00222191 -0.00349588)
(2.94098 0.00451107 -0.0051594)
(2.89466 0.00960224 -0.00760987)
(2.776 0.0213791 -0.0115332)
(2.41806 0.0514001 -0.019335)
(0.983749 0.15042 -0.0423859)
(-0.280724 0.444179 -0.0429517)
(-0.174971 0.676402 -0.0374382)
(2.97328 0.000427556 0.000663269)
(2.96573 0.00196114 -0.00222526)
(2.95986 0.0028821 -0.00355585)
(2.94224 0.00562811 -0.00519546)
(2.89756 0.0121753 -0.00760542)
(2.78329 0.0276167 -0.0114459)
(2.44026 0.0670427 -0.0190039)
(1.06864 0.193884 -0.0414484)
(-0.204925 0.547013 -0.0422049)
(-0.140465 0.79936 -0.0362547)
(2.97365 0.000680743 0.000608661)
(2.96615 0.00274478 -0.00221453)
(2.96042 0.0037439 -0.00364533)
(2.94378 0.00706895 -0.00524146)
(2.90131 0.0152375 -0.00759166)
(2.79276 0.0348322 -0.0113326)
(2.46927 0.0854924 -0.0185833)
(1.18024 0.24631 -0.0404312)
(-0.11252 0.667042 -0.0416086)
(-0.102716 0.93641 -0.0348575)
(2.97412 0.000860238 0.000539313)
(2.96666 0.00335524 -0.00220384)
(2.96108 0.00457675 -0.003763)
(2.94566 0.00862091 -0.00530141)
(2.906 0.0185507 -0.00757554)
(2.805 0.042392 -0.0112008)
(2.5076 0.103863 -0.0181259)
(1.33272 0.294712 -0.0394329)
(0.00207077 0.809206 -0.0416061)
(-0.0624316 1.09064 -0.0338746)
(2.97611 1.65085e-06 0.00241481)
(2.95963 2.10212e-05 0.0025618)
(2.94429 6.85366e-05 0.00201906)
(2.91348 0.000177545 0.00108187)
(2.8473 0.000426966 -0.00050656)
(2.69212 0.000999206 -0.00314846)
(2.2464 0.00241585 -0.00819682)
(0.563213 0.00710923 -0.0208979)
(-0.691981 0.0201172 -0.0218984)
(-0.454168 0.0591352 -0.0205492)
(2.97612 4.5381e-06 0.00241465)
(2.95965 7.1928e-05 0.00256125)
(2.94434 0.000196812 0.00201568)
(2.9136 0.000526384 0.00107963)
(2.84758 0.0013049 -0.00050706)
(2.69277 0.00310438 -0.00314574)
(2.24814 0.00758981 -0.0081892)
(0.56528 0.0224511 -0.0209072)
(-0.692744 0.0652853 -0.0219212)
(-0.43125 0.148836 -0.0202058)
(2.97614 6.72615e-06 0.00241447)
(2.95969 0.000145654 0.00256036)
(2.94444 0.000328229 0.0020062)
(2.91385 0.00089881 0.00107394)
(2.84816 0.00228621 -0.000507357)
(2.69416 0.0055135 -0.00313697)
(2.25213 0.0136456 -0.00816417)
(0.576424 0.0413954 -0.0208621)
(-0.680446 0.129997 -0.0218342)
(-0.402064 0.266362 -0.0195347)
(2.97617 8.92047e-06 0.00241448)
(2.95976 0.000253608 0.00255939)
(2.94459 0.000517087 0.00198809)
(2.91424 0.00138041 0.00106297)
(2.84909 0.00349072 -0.000508717)
(2.69642 0.00841155 -0.0031236)
(2.25905 0.0209186 -0.00811386)
(0.603055 0.064399 -0.0207026)
(-0.650979 0.205605 -0.021629)
(-0.373865 0.386873 -0.018823)
(2.97622 1.27458e-05 0.00241493)
(2.95986 0.00042101 0.00255859)
(2.94481 0.000802678 0.00195978)
(2.91482 0.00202096 0.00104521)
(2.85044 0.0049857 -0.000512288)
(2.69978 0.0119153 -0.00310575)
(2.26965 0.0296476 -0.00803549)
(0.645509 0.091109 -0.020443)
(-0.606857 0.284385 -0.0213889)
(-0.342062 0.501391 -0.0180581)
(2.97631 2.32777e-05 0.00241618)
(2.96002 0.000693631 0.00255858)
(2.94512 0.00118763 0.00191593)
(2.9156 0.00280535 0.00101704)
(2.85232 0.0067793 -0.00051957)
(2.70449 0.0161384 -0.00308236)
(2.28447 0.0402084 -0.00792422)
(0.701639 0.122233 -0.0201432)
(-0.551696 0.366509 -0.0211792)
(-0.308056 0.615003 -0.0173627)
(2.97646 5.18016e-05 0.00241814)
(2.96025 0.00112913 0.00255926)
(2.94551 0.00149654 0.00184722)
(2.91663 0.00340996 0.000973114)
(2.85483 0.00853628 -0.000532519)
(2.71092 0.0209239 -0.00305293)
(2.30445 0.0528529 -0.00777965)
(0.773645 0.158805 -0.0197908)
(-0.484928 0.456309 -0.0210138)
(-0.271294 0.732215 -0.0165632)
(2.9767 0.000119204 0.00241858)
(2.9605 0.00171565 0.00255754)
(2.94587 0.00180566 0.00177502)
(2.91789 0.00397931 0.00091969)
(2.8581 0.0104583 -0.000556213)
(2.71923 0.0265494 -0.00302774)
(2.32973 0.0680509 -0.0076154)
(0.863662 0.201641 -0.01934)
(-0.405502 0.557348 -0.0208524)
(-0.232934 0.857318 -0.0158977)
(2.97705 0.000197313 0.00240977)
(2.9608 0.00228345 0.0025478)
(2.94624 0.00219298 0.00168286)
(2.91946 0.00476558 0.00085098)
(2.8623 0.0128307 -0.000588436)
(2.72999 0.0331461 -0.00300533)
(2.3618 0.0857126 -0.0074504)
(0.976631 0.251107 -0.0189691)
(-0.310863 0.670127 -0.0208804)
(-0.194686 0.991081 -0.014807)
(2.97748 0.000249364 0.00239625)
(2.96114 0.00272002 0.00253343)
(2.94667 0.00261927 0.0015685)
(2.92138 0.00580645 0.000767029)
(2.86754 0.0157539 -0.000626371)
(2.74356 0.0407974 -0.00298115)
(2.40262 0.105321 -0.00728771)
(1.1222 0.302903 -0.0187001)
(-0.197785 0.812333 -0.0212973)
(-0.153402 1.14157 -0.0144277)
(2.98596 3.13287e-06 0.00102822)
(2.96964 1.96581e-05 0.00165633)
(2.95058 3.74578e-05 0.00142586)
(2.9141 0.000130849 0.0010554)
(2.83982 0.000373526 0.000479209)
(2.67044 0.000952348 -0.000427779)
(2.19035 0.00236698 -0.00212337)
(0.430047 0.00689051 -0.00627568)
(-0.831947 0.0192793 -0.0066245)
(-0.559411 0.0727255 -0.00603565)
(2.98597 1.11398e-05 0.00102839)
(2.96965 7.00824e-05 0.0016561)
(2.95062 9.88924e-05 0.00142294)
(2.91421 0.000372917 0.00105375)
(2.8401 0.0011277 0.000478727)
(2.67108 0.00295764 -0.000426861)
(2.19206 0.00748709 -0.00212354)
(0.431858 0.0222526 -0.00627951)
(-0.829825 0.065694 -0.00663)
(-0.52129 0.168173 -0.00596625)
(2.98598 2.35468e-05 0.00102892)
(2.96967 0.000148408 0.00165567)
(2.95069 0.000152144 0.00141656)
(2.91445 0.000606677 0.00104976)
(2.84069 0.00193798 0.000477528)
(2.67249 0.00521322 -0.000424272)
(2.19612 0.0135422 -0.00212096)
(0.443118 0.0420314 -0.00626825)
(-0.815192 0.132069 -0.00660264)
(-0.485555 0.29175 -0.00575565)
(2.98602 4.24907e-05 0.00103013)
(2.9697 0.000267792 0.00165504)
(2.95078 0.000243177 0.00140592)
(2.91483 0.000908774 0.00104235)
(2.84163 0.00291405 0.0004746)
(2.6748 0.0078831 -0.000421353)
(2.20328 0.0208055 -0.00210872)
(0.470626 0.0661448 -0.0062205)
(-0.783502 0.209564 -0.0065393)
(-0.453197 0.416496 -0.00550414)
(2.98607 7.23867e-05 0.00103235)
(2.96974 0.000457222 0.00165425)
(2.95092 0.000389852 0.00138927)
(2.91537 0.00129774 0.00103051)
(2.84302 0.00409863 0.000469486)
(2.67826 0.0111 -0.000418171)
(2.21427 0.0295121 -0.00208626)
(0.513999 0.0939292 -0.00614428)
(-0.737326 0.289128 -0.00647243)
(-0.416621 0.534225 -0.0052423)
(2.98617 0.00011935 0.00103622)
(2.96981 0.00075553 0.0016533)
(2.95109 0.000560362 0.0013634)
(2.9161 0.00170088 0.0010122)
(2.84492 0.00542809 0.00046185)
(2.6831 0.014896 -0.000412478)
(2.22979 0.0399222 -0.00205121)
(0.572228 0.125897 -0.00603545)
(-0.679667 0.370893 -0.00644392)
(-0.377078 0.650448 -0.00499791)
(2.98633 0.000185942 0.00104222)
(2.9699 0.0011792 0.00165153)
(2.95127 0.000696819 0.00132432)
(2.91705 0.00200504 0.000984499)
(2.84747 0.0067843 0.000449989)
(2.68964 0.0192511 -0.000405706)
(2.25048 0.0523224 -0.00200688)
(0.646088 0.163077 -0.00590721)
(-0.610226 0.460339 -0.00642667)
(-0.334057 0.770466 -0.00473096)
(2.98656 0.000263023 0.00105025)
(2.96999 0.00167113 0.00164616)
(2.95141 0.000779509 0.00128393)
(2.91822 0.00224431 0.000954875)
(2.85078 0.00826618 0.000435182)
(2.69826 0.024327 -0.00040146)
(2.27725 0.0668975 -0.00195836)
(0.739566 0.205124 -0.00574893)
(-0.528196 0.558877 -0.00642651)
(-0.292752 0.896336 -0.00437406)
(2.98688 0.000333977 0.0010583)
(2.97009 0.002123 0.00163578)
(2.95152 0.000814545 0.00123411)
(2.91966 0.00252017 0.000919522)
(2.85498 0.0100355 0.000416841)
(2.70923 0.0302757 -0.000401233)
(2.31036 0.0837901 -0.00191804)
(0.851912 0.252861 -0.00567696)
(-0.431518 0.668379 -0.00678725)
(-0.250513 1.02722 -0.00347163)
(2.98727 0.000386656 0.00106684)
(2.97017 0.00246266 0.00162175)
(2.95162 0.000918174 0.00117345)
(2.92144 0.00310838 0.00087718)
(2.86022 0.0125265 0.000396057)
(2.72295 0.037796 -0.00040024)
(2.35169 0.104168 -0.00187779)
(0.992378 0.307576 -0.00561653)
(-0.317656 0.813659 -0.00671498)
(-0.198016 1.18338 -0.0038637)
(2.98596 3.11511e-06 -0.00102824)
(2.96964 1.95377e-05 -0.0016565)
(2.95058 3.71586e-05 -0.0014263)
(2.91409 0.000130237 -0.00105639)
(2.83982 0.000372367 -0.000481206)
(2.67043 0.000950177 0.000423786)
(2.1903 0.00236272 0.00211472)
(0.429894 0.00688204 0.0062529)
(-0.832194 0.0192476 0.00659548)
(-0.55921 0.0726778 0.00599001)
(2.98597 1.10824e-05 -0.00102841)
(2.96965 6.9678e-05 -0.0016563)
(2.95062 9.80111e-05 -0.00142342)
(2.91421 0.000371262 -0.00105481)
(2.84009 0.0011248 -0.000480862)
(2.67107 0.00295269 0.000422612)
(2.19201 0.00747865 0.00211436)
(0.431708 0.0222395 0.00625564)
(-0.83007 0.0656499 0.00659962)
(-0.521149 0.168142 0.0059208)
(2.98598 2.34403e-05 -0.00102895)
(2.96967 0.00014765 -0.00165594)
(2.95069 0.000150452 -0.00141713)
(2.91445 0.000603886 -0.00105094)
(2.84068 0.00193392 -0.00047984)
(2.67247 0.00520787 0.000419775)
(2.19608 0.0135364 0.00211146)
(0.442961 0.0420313 0.00624409)
(-0.815443 0.132008 0.00656977)
(-0.485496 0.291665 0.00571189)
(2.98602 4.23216e-05 -0.00103018)
(2.9697 0.000266609 -0.00165544)
(2.95078 0.000240477 -0.00140666)
(2.91482 0.000904693 -0.00104369)
(2.84163 0.00290903 -0.000477056)
(2.67479 0.00787833 0.000416804)
(2.20324 0.0208053 0.00209953)
(0.470453 0.0661633 0.00619797)
(-0.78378 0.209493 0.00650192)
(-0.453204 0.416327 0.0054559)
(2.98607 7.21407e-05 -0.00103244)
(2.96974 0.000455553 -0.00165484)
(2.95092 0.00038629 -0.00139026)
(2.91536 0.00129274 -0.00103206)
(2.84301 0.00409326 -0.000472052)
(2.67825 0.0110967 0.00041373)
(2.21425 0.0295183 0.00207789)
(0.513794 0.0939572 0.00612472)
(-0.737645 0.28902 0.0064289)
(-0.416735 0.533928 0.00518533)
(2.98617 0.000119029 -0.00103637)
(2.96981 0.000753399 -0.00165416)
(2.95109 0.000556491 -0.00136468)
(2.9161 0.00169573 -0.00101395)
(2.84492 0.0054228 -0.000464426)
(2.68309 0.0148927 0.000408425)
(2.22977 0.0399262 0.00204432)
(0.571958 0.125901 0.00601934)
(-0.680062 0.370728 0.00638975)
(-0.377184 0.650096 0.00492889)
(2.98632 0.000185598 -0.00104245)
(2.9699 0.00117686 -0.0016527)
(2.95127 0.000693754 -0.00132581)
(2.91705 0.00200087 -0.000986384)
(2.84746 0.006779 -0.000452561)
(2.68963 0.0192433 0.000401914)
(2.25045 0.0523051 0.00200075)
(0.64573 0.162972 0.00589064)
(-0.610684 0.459946 0.00635563)
(-0.334669 0.770756 0.0046428)
(2.98656 0.000262734 -0.00105056)
(2.96999 0.00166927 -0.00164766)
(2.95141 0.000777605 -0.00128536)
(2.91821 0.00224129 -0.00095669)
(2.85077 0.00826039 -0.000437751)
(2.69825 0.0243143 0.000397342)
(2.27717 0.0668579 0.00195064)
(0.738841 0.204765 0.00571855)
(-0.528366 0.555222 0.00631765)
(-0.293028 0.899708 0.00440428)
(2.98688 0.00033384 -0.00105868)
(2.97008 0.0021223 -0.00163743)
(2.95152 0.000813657 -0.00123553)
(2.91965 0.00251845 -0.000921485)
(2.85497 0.0100315 -0.000419873)
(2.70921 0.0302659 0.000396013)
(2.31018 0.0837622 0.00190629)
(0.847798 0.252726 0.0056001)
(-0.430945 0.66792 0.00617778)
(-0.233752 1.05363 0.00398382)
(2.98726 0.000386728 -0.00106723)
(2.97017 0.00246327 -0.00162336)
(2.95161 0.00091872 -0.00117489)
(2.92143 0.00310928 -0.000879157)
(2.86021 0.0125284 -0.00039911)
(2.72293 0.0377994 0.000394967)
(2.35157 0.104178 0.00186681)
(0.990031 0.307771 0.0055734)
(-0.319092 0.814528 0.00652851)
(-0.182222 1.20284 0.00381961)
(2.97611 1.63433e-06 -0.00241488)
(2.95963 2.0773e-05 -0.002562)
(2.94428 6.78905e-05 -0.00201946)
(2.91347 0.00017618 -0.00108266)
(2.84728 0.000424226 0.000504949)
(2.69208 0.000993712 0.00314519)
(2.24628 0.00240454 0.00818939)
(0.562699 0.00708537 0.0208742)
(-0.692649 0.0200555 0.0218622)
(-0.453202 0.0591356 0.0205035)
(2.97612 4.43433e-06 -0.00241472)
(2.95965 7.0907e-05 -0.00256145)
(2.94434 0.000194591 -0.0020161)
(2.91359 0.000522109 -0.00108045)
(2.84756 0.00129704 0.000505396)
(2.69273 0.00309 0.00314238)
(2.24801 0.00756351 0.00818171)
(0.564795 0.0224083 0.0208828)
(-0.693378 0.0651748 0.0218867)
(-0.430815 0.149031 0.020166)
(2.97614 6.43079e-06 -0.00241455)
(2.95969 0.000143464 -0.00256061)
(2.94443 0.000323593 -0.00200669)
(2.91384 0.000890895 -0.00107489)
(2.84814 0.0022736 0.000505487)
(2.69412 0.0054939 0.00313323)
(2.25201 0.0136177 0.00815605)
(0.575947 0.0413818 0.020837)
(-0.681036 0.129818 0.021799)
(-0.401989 0.266508 0.0195001)
(2.97617 8.34857e-06 -0.00241461)
(2.95976 0.000250029 -0.00255974)
(2.94458 0.000509575 -0.00198871)
(2.91423 0.00136858 -0.00106413)
(2.84907 0.00347397 0.000506483)
(2.69638 0.00838954 0.00311924)
(2.25895 0.0208977 0.00810486)
(0.602563 0.064435 0.0206795)
(-0.651596 0.205387 0.021589)
(-0.373965 0.386826 0.0187838)
(2.97622 1.18035e-05 -0.00241513)
(2.95986 0.000415855 -0.0025591)
(2.9448 0.000792503 -0.00196058)
(2.91481 0.00200597 -0.00104666)
(2.85043 0.00496648 0.000509578)
(2.69975 0.0118944 0.00310062)
(2.26958 0.0296403 0.00802546)
(0.644975 0.0911929 0.0204231)
(-0.607544 0.284097 0.0213436)
(-0.342267 0.501126 0.0180156)
(2.97631 2.18766e-05 -0.00241649)
(2.96002 0.000686959 -0.0025593)
(2.94511 0.00117585 -0.00191696)
(2.91559 0.00278913 -0.00101883)
(2.8523 0.00675994 0.000516339)
(2.70446 0.0161195 0.00307645)
(2.28444 0.0402045 0.00791368)
(0.701016 0.122291 0.02013)
(-0.552526 0.36606 0.0211281)
(-0.308339 0.614432 0.0173126)
(2.97646 5.00451e-05 -0.00241863)
(2.96025 0.00112127 -0.00256023)
(2.9455 0.00148613 -0.00184851)
(2.91662 0.00339786 -0.000975183)
(2.85482 0.00852252 0.000528936)
(2.71089 0.0209071 0.00304656)
(2.30442 0.0528246 0.00776934)
(0.772768 0.158665 0.0197864)
(-0.48595 0.455531 0.0209515)
(-0.271763 0.731524 0.0165006)
(2.9767 0.000117578 -0.00241932)
(2.96049 0.00170955 -0.00255884)
(2.94586 0.00179916 -0.00177632)
(2.91788 0.00397133 -0.000921757)
(2.85808 0.0104448 0.000552761)
(2.71918 0.0265187 0.00302194)
(2.32959 0.0679536 0.00760605)
(0.862093 0.201073 0.019344)
(-0.406841 0.553372 0.0207885)
(-0.234334 0.85592 0.0156958)
(2.97705 0.000196495 -0.0024106)
(2.96079 0.00228171 -0.00254918)
(2.94623 0.0021909 -0.0016842)
(2.91944 0.00476149 -0.000853205)
(2.86228 0.0128209 0.000584522)
(2.72992 0.0331207 0.0029982)
(2.36149 0.0856368 0.00743873)
(0.971325 0.250881 0.0189768)
(-0.318396 0.668032 0.0209112)
(-0.198036 0.983424 0.014211)
(2.97748 0.000249544 -0.00239706)
(2.96114 0.00272228 -0.00253475)
(2.94666 0.00262212 -0.00156981)
(2.92136 0.00581096 -0.000769143)
(2.86751 0.0157625 0.0006227)
(2.7435 0.040815 0.0029745)
(2.40239 0.10536 0.00727596)
(1.1188 0.303186 0.018689)
(-0.204989 0.812645 0.0212153)
(-0.15644 1.13332 0.0143974)
(2.97271 5.99925e-06 -0.000733227)
(2.96456 2.86928e-05 0.00225462)
(2.9578 8.10257e-05 0.00342543)
(2.93782 0.000193398 0.00512809)
(2.88775 0.000435897 0.00766242)
(2.75935 0.000980468 0.0117669)
(2.36642 0.00235222 0.0202444)
(0.78233 0.00733099 0.0443573)
(-0.471069 0.0246851 0.0457274)
(-0.322448 0.0416645 0.0448453)
(2.97272 1.83879e-05 -0.00073206)
(2.96459 9.30542e-05 0.00225517)
(2.95785 0.000254795 0.00342585)
(2.93793 0.000598879 0.00512776)
(2.88798 0.00134351 0.00765984)
(2.7599 0.00302316 0.0117585)
(2.36809 0.00724625 0.0202197)
(0.786441 0.0222508 0.0443586)
(-0.467934 0.0666832 0.0457682)
(-0.28945 0.116626 0.0434623)
(2.97273 3.21596e-05 -0.000729395)
(2.96464 0.000176851 0.00225584)
(2.95796 0.000466568 0.00342895)
(2.93817 0.00107312 0.0051279)
(2.88849 0.00238752 0.00765345)
(2.76109 0.00536906 0.011738)
(2.37179 0.0128925 0.0201466)
(0.798173 0.0395306 0.0442587)
(-0.45819 0.126764 0.0455522)
(-0.272115 0.224848 0.0423486)
(2.97277 4.86792e-05 -0.000724736)
(2.96473 0.000291855 0.00225603)
(2.95814 0.000747344 0.0034365)
(2.93855 0.00167856 0.00512954)
(2.88933 0.00368365 0.0076437)
(2.76307 0.00823689 0.0117051)
(2.37792 0.0197757 0.0200271)
(0.82251 0.0605657 0.0440164)
(-0.433522 0.197616 0.0449638)
(-0.253682 0.34062 0.0411546)
(2.97282 7.08857e-05 -0.00071751)
(2.96486 0.000460454 0.00225494)
(2.95841 0.00113877 0.00344801)
(2.93911 0.00247685 0.00513298)
(2.89056 0.00532199 0.00763094)
(2.76603 0.0117831 0.0116578)
(2.38724 0.0282281 0.0198497)
(0.86121 0.0856421 0.0436234)
(-0.395179 0.272977 0.0442871)
(-0.231807 0.45101 0.039932)
(2.97291 0.000109002 -0.00070682)
(2.96507 0.000728534 0.00225084)
(2.9588 0.00169871 0.00346543)
(2.9399 0.00352659 0.00514073)
(2.89228 0.00737673 0.00761781)
(2.7702 0.0161605 0.0115985)
(2.40035 0.0386078 0.0196174)
(0.914322 0.115386 0.0430823)
(-0.344524 0.353836 0.043581)
(-0.206138 0.561297 0.0387623)
(2.97304 0.000197291 -0.000691143)
(2.96538 0.00118634 0.0022412)
(2.95933 0.00220148 0.00349471)
(2.94096 0.00448475 0.00515695)
(2.89463 0.00956904 0.00760476)
(2.77597 0.0213377 0.0115213)
(2.41825 0.0513389 0.0193093)
(0.984347 0.150387 0.0423747)
(-0.281212 0.443386 0.042917)
(-0.175372 0.675694 0.0374282)
(2.97327 0.000422771 -0.000665027)
(2.96572 0.00194979 0.00222438)
(2.95985 0.00286919 0.0035542)
(2.94222 0.00561136 0.00519239)
(2.89754 0.0121503 0.00759912)
(2.78321 0.0275717 0.0114364)
(2.44022 0.0669314 0.0189757)
(1.06881 0.193354 0.0414571)
(-0.205695 0.544924 0.0421799)
(-0.140853 0.798107 0.0362245)
(2.97364 0.000680116 -0.000610417)
(2.96614 0.00274347 0.00221359)
(2.96041 0.00374249 0.00364364)
(2.94375 0.00706642 0.00523854)
(2.90127 0.0152306 0.00758591)
(2.79268 0.0348078 0.0113211)
(2.46918 0.0854008 0.0185557)
(1.17896 0.24571 0.0404618)
(-0.115669 0.665604 0.0418074)
(-0.103062 0.935108 0.0347037)
(2.97411 0.000861987 -0.000540926)
(2.96665 0.00336036 0.00220297)
(2.96107 0.0045841 0.0037615)
(2.94564 0.00863363 0.0052989)
(2.90596 0.0185749 0.00757072)
(2.80491 0.04244 0.0111915)
(2.50744 0.103938 0.0181036)
(1.33134 0.29455 0.0394219)
(-0.00146551 0.80892 0.0415836)
(-0.0627001 1.0897 0.0338497)
(3.00384 1.39054e-05 0.0133069)
(3.01107 3.62117e-05 0.0199204)
(3.01097 8.70723e-05 0.0219401)
(3.00231 0.000198107 0.0240607)
(2.96773 0.000430819 0.0276899)
(2.86347 0.000917657 0.0341469)
(2.50666 0.00226098 0.048489)
(0.741066 0.0080435 0.102347)
(-0.508385 0.0302973 0.0995371)
(0.435346 -0.0813278 0.0906481)
(3.00385 4.4971e-05 0.0133078)
(3.01109 0.000115305 0.0199195)
(3.01101 0.000274868 0.0219397)
(3.00239 0.000620616 0.0240562)
(2.96792 0.00134039 0.0276782)
(2.86404 0.0028562 0.0341156)
(2.50886 0.00675961 0.0483842)
(0.760553 0.023452 0.101541)
(-0.519038 0.0710112 0.100335)
(-0.0487116 0.0417367 0.0939394)
(3.00387 8.42774e-05 0.0133101)
(3.01115 0.000212659 0.0199174)
(3.01108 0.000502258 0.0219399)
(3.00257 0.00112473 0.0240488)
(2.96834 0.00241377 0.027656)
(2.86502 0.00515308 0.0340669)
(2.512 0.0119596 0.0482335)
(0.774178 0.0407237 0.101238)
(-0.509616 0.123058 0.100121)
(-0.0779292 0.163848 0.093033)
(3.0039 0.000134991 0.0133142)
(3.01125 0.000337491 0.0199131)
(3.0112 0.000791848 0.021941)
(3.00287 0.00176074 0.0240385)
(2.96902 0.00375387 0.0276231)
(2.86665 0.00798928 0.0339925)
(2.51711 0.0184656 0.0480138)
(0.790137 0.0624688 0.100898)
(-0.492069 0.185818 0.0991522)
(-0.0798428 0.283711 0.0914025)
(3.00394 0.000202945 0.0133209)
(3.0114 0.000504644 0.0199054)
(3.01139 0.00117645 0.0219428)
(3.0033 0.00259267 0.0240245)
(2.97002 0.00547602 0.0275774)
(2.86911 0.0115847 0.0338855)
(2.52485 0.0266841 0.0476848)
(0.81258 0.0892477 0.100382)
(-0.466121 0.258674 0.0977361)
(-0.0722672 0.399527 0.089563)
(3.004 0.000301521 0.013331)
(3.01161 0.000745332 0.0198916)
(3.01164 0.00171172 0.021946)
(3.00391 0.00370275 0.0240078)
(2.97144 0.00769249 0.0275193)
(2.87267 0.0161103 0.0337414)
(2.53596 0.0369015 0.0472446)
(0.852904 0.121652 0.0997239)
(-0.427633 0.341242 0.0963323)
(-0.0568741 0.516743 0.0873707)
(3.0041 0.000482476 0.0133449)
(3.01192 0.00114796 0.0198683)
(3.012 0.00246608 0.0219516)
(3.00474 0.00510895 0.0239897)
(2.97337 0.0104295 0.0274456)
(2.87747 0.0217875 0.0335505)
(2.55095 0.050173 0.0466523)
(0.898959 0.161254 0.0989123)
(-0.381225 0.436118 0.0946777)
(-0.0399143 0.642655 0.0850661)
(3.00429 0.000910702 0.0133625)
(3.01233 0.00198935 0.019831)
(3.01252 0.00369414 0.0219945)
(3.00585 0.0069285 0.0239809)
(2.97593 0.0136139 0.02735)
(2.88447 0.0282809 0.0332724)
(2.5719 0.0658501 0.0458983)
(1.00131 0.208836 0.0977163)
(-0.306135 0.545648 0.0930604)
(-0.0207411 0.780449 0.0822656)
(3.0047 0.001391 0.0133835)
(3.01292 0.00292471 0.0197829)
(3.0132 0.00506096 0.0220538)
(3.0072 0.00894473 0.0239626)
(2.97915 0.0171382 0.0272048)
(2.8934 0.0356579 0.0328817)
(2.59969 0.084752 0.0448146)
(1.12203 0.269649 0.0952838)
(-0.211494 0.680521 0.0913393)
(-0.00455832 0.935846 0.079612)
(3.00524 0.00174661 0.0134098)
(3.01366 0.00365468 0.0197264)
(3.01406 0.0062877 0.0221356)
(3.00887 0.0110119 0.0239446)
(2.98327 0.0209165 0.0270206)
(2.90524 0.0433679 0.0323783)
(2.63852 0.102368 0.0433984)
(1.33798 0.316399 0.0913453)
(-0.0724047 0.832745 0.0894293)
(0.0100831 1.11074 0.0767576)
(3.09245 1.15644e-05 0.0762108)
(3.11476 1.96096e-05 0.0831132)
(3.11831 6.72715e-05 0.0850843)
(3.11381 0.000129113 0.0865171)
(3.09298 0.000240154 0.0911631)
(2.99776 0.000518779 0.104316)
(2.55107 0.0016979 0.160967)
(1.40666 0.000426053 0.296518)
(0.134059 0.0211749 0.321651)
(0.154675 0.0374757 0.313979)
(3.09246 3.84068e-05 0.0762141)
(3.11477 6.28987e-05 0.0831047)
(3.11834 0.000220852 0.0850847)
(3.11385 0.000427607 0.0865061)
(3.09308 0.000808719 0.0911411)
(2.99807 0.00180073 0.104227)
(2.55158 0.00590894 0.161067)
(1.38851 0.0109514 0.298341)
(0.157092 0.0517918 0.321194)
(0.17252 0.0814343 0.307862)
(3.09247 7.38404e-05 0.076222)
(3.1148 0.000115511 0.0830852)
(3.11841 0.000415557 0.0850876)