/*--------------------------------*- C++ -*----------------------------------*\
  =========                 |
  \\      /  F ield         | OpenFOAM: The Open Source CFD Toolbox
   \\    /   O peration     | Website:  https://openfoam.org
    \\  /    A nd           | Version:  6.0
     \\/     M anipulation  |
\*---------------------------------------------------------------------------*/
FoamFile
{
    version     2.0;
    format      ascii;
    class       volVectorField;
    location    "2.000106";
    object      U;
}
// * * * * * * * * * * * * * * * * * * * * * * * * * * * * * * * * * * * * * //

dimensions      [0 1 -1 0 0 0 0];

internalField   nonuniform List<vector> 
192000
(
(3 1.48068e-16 0)
(3 6.36447e-16 0)
(3 1.0426e-15 0)
(3 6.24236e-16 0)
(3 1.50228e-15 0)
(3 2.18641e-15 0)
(3 -3.09986e-16 0)
(3 -7.69145e-15 0)
(3 -3.63709e-15 0)
(3 2.38096e-15 0)
(3 -5.42168e-16 0)
(3 1.81687e-18 0)
(3 -4.02399e-16 0)
(3 3.96537e-15 0)
(3 3.21004e-15 0)
(3 2.51632e-15 0)
(3 1.17085e-15 0)
(3 -4.55899e-16 0)
(3 -3.11393e-16 0)
(3 6.78241e-16 0)
(2.94311 0.000247165 0)
(1.02034 0.00416703 0)
(0.72365 0.00610145 0)
(0.683944 0.00602204 0)
(0.646842 0.00563982 0)
(0.611918 0.00536535 0)
(0.57852 0.00516869 0)
(0.545566 0.00505741 0)
(0.5111 0.00518065 0)
(0.473852 0.00552162 0)
(0.434458 0.00602654 0)
(0.394736 0.00659747 0)
(0.356133 0.00679663 0)
(0.318379 0.00637837 0)
(0.278895 0.00600293 0)
(0.234678 0.00640985 0)
(0.184752 0.00753428 0)
(0.1314 0.00870618 0)
(0.0775214 0.0089497 0)
(0.0255784 0.00834938 0)
(3 -2.80045e-16 0)
(3 2.05978e-15 0)
(3 2.00716e-15 0)
(3 7.24286e-16 0)
(3 6.01611e-16 0)
(3 3.89385e-15 0)
(3 3.63604e-15 0)
(3 3.03537e-16 0)
(3 1.70586e-15 0)
(3 2.56622e-16 0)
(3 -8.9197e-16 0)
(3 -1.57319e-15 0)
(3 8.00731e-16 0)
(3 -2.24816e-15 0)
(3 7.239e-16 0)
(3 1.28919e-15 0)
(3 -2.59916e-15 0)
(3 -2.91158e-15 0)
(3 2.72829e-16 0)
(3 -7.545e-16 0)
(2.94149 0.00116172 0)
(1.01708 0.0147947 0)
(0.716669 0.0170771 0)
(0.677757 0.014742 0)
(0.642546 0.0145398 0)
(0.609146 0.0149035 0)
(0.576386 0.0153047 0)
(0.543398 0.0155881 0)
(0.508705 0.0159904 0)
(0.471396 0.0165992 0)
(0.432201 0.0174659 0)
(0.392699 0.0188714 0)
(0.353985 0.0201567 0)
(0.315881 0.0203609 0)
(0.276445 0.0199135 0)
(0.233216 0.0204236 0)
(0.184563 0.0226569 0)
(0.132264 0.025395 0)
(0.0785618 0.0264201 0)
(0.0262936 0.0253964 0)
(3 -1.53831e-15 0)
(3 -8.78489e-16 0)
(3 3.17387e-16 0)
(3 1.09804e-15 0)
(3 1.42135e-15 0)
(3 -3.47596e-15 0)
(3 -2.70279e-16 0)
(3 -5.80726e-16 0)
(3 -1.26679e-15 0)
(3 -1.97958e-15 0)
(3 1.61764e-15 0)
(3 8.29407e-17 0)
(3 2.81411e-15 0)
(3 5.00322e-16 0)
(3 -2.82049e-16 0)
(3 -2.21722e-15 0)
(3 1.11966e-15 0)
(3 1.10466e-15 0)
(3 2.26893e-15 0)
(3 1.11954e-15 0)
(2.93825 0.00369545 0)
(1.01437 0.0280076 0)
(0.709816 0.0280009 0)
(0.673733 0.0241923 0)
(0.640832 0.0237614 0)
(0.608954 0.0241858 0)
(0.576535 0.0250091 0)
(0.542875 0.0259395 0)
(0.507229 0.0269942 0)
(0.469316 0.0281533 0)
(0.429963 0.029367 0)
(0.39037 0.0308832 0)
(0.351074 0.0320252 0)
(0.312025 0.0324487 0)
(0.272142 0.0330372 0)
(0.229616 0.034744 0)
(0.182972 0.0385241 0)
(0.132209 0.0426321 0)
(0.0793033 0.0438101 0)
(0.0268104 0.0424309 0)
(3 2.22631e-15 0)
(3 -2.44036e-15 0)
(3 -1.19915e-15 0)
(3 7.36834e-16 0)
(3 1.26333e-15 0)
(3 5.18745e-15 0)
(3 -1.00609e-15 0)
(3 -4.93964e-16 0)
(3 -3.08169e-15 0)
(3 2.10864e-15 0)
(3 9.56082e-17 0)
(3 6.48125e-15 0)
(3 1.59662e-15 0)
(3 3.30584e-15 0)
(3 2.52399e-16 0)
(3 2.77739e-16 0)
(3 1.96629e-15 0)
(3 4.0486e-16 0)
(3 2.34414e-15 0)
(3 1.8967e-15 0)
(2.93691 0.00892304 0)
(1.01497 0.0436505 0)
(0.708506 0.0397067 0)
(0.676 0.0333336 0)
(0.644328 0.032165 0)
(0.612501 0.032697 0)
(0.579263 0.0341573 0)
(0.544519 0.036176 0)
(0.507968 0.0383785 0)
(0.469416 0.0403168 0)
(0.429595 0.0417225 0)
(0.389353 0.0428711 0)
(0.348951 0.0433731 0)
(0.30855 0.0439025 0)
(0.267758 0.045924 0)
(0.22563 0.0497472 0)
(0.180603 0.0550535 0)
(0.131194 0.0599012 0)
(0.0793205 0.0609337 0)
(0.0270366 0.0595084 0)
(3 9.5907e-16 0)
(3 -7.48606e-16 0)
(3 1.86297e-15 0)
(3 1.6076e-15 0)
(3 2.63509e-15 0)
(3 2.17516e-15 0)
(3 3.44077e-15 0)
(3 -3.0437e-15 0)
(3 -2.9517e-15 0)
(3 5.29468e-16 0)
(3 8.5166e-16 0)
(3 2.17881e-15 0)
(3 4.37611e-15 0)
(3 2.0004e-16 0)
(3 -4.3162e-16 0)
(3 -2.47988e-15 0)
(3 -2.831e-15 0)
(3 -1.15173e-15 0)
(3 3.23006e-15 0)
(3 6.03277e-15 0)
(2.94193 0.0156189 0)
(1.02201 0.0599646 0)
(0.714758 0.049905 0)
(0.683588 0.0409033 0)
(0.650872 0.0398183 0)
(0.61698 0.0412608 0)
(0.581178 0.0438087 0)
(0.544653 0.046681 0)
(0.507607 0.0499231 0)
(0.469436 0.0528448 0)
(0.429993 0.0543525 0)
(0.389407 0.0547887 0)
(0.347767 0.0546765 0)
(0.305682 0.055273 0)
(0.263662 0.058708 0)
(0.221394 0.0651779 0)
(0.177294 0.0722106 0)
(0.129423 0.0769987 0)
(0.0788835 0.0778177 0)
(0.0272708 0.0766948 0)
(3 5.06625e-16 0)
(3 -7.62122e-17 0)
(3 5.10464e-16 0)
(3 1.07186e-15 0)
(3 1.96764e-15 0)
(3 -1.72337e-15 0)
(3 7.29507e-16 0)
(3 -2.96375e-15 0)
(3 2.10118e-15 0)
(3 1.77726e-16 0)
(3 2.0108e-15 0)
(3 1.41534e-15 0)
(3 1.4212e-15 0)
(3 -2.08966e-16 0)
(3 -1.25071e-15 0)
(3 5.60895e-16 0)
(3 -1.58364e-15 0)
(3 1.54052e-15 0)
(3 1.62148e-15 0)
(3 3.76339e-15 0)
(2.95384 0.0209672 0)
(1.03313 0.0728187 0)
(0.723941 0.0578128 0)
(0.691947 0.0493131 0)
(0.656483 0.0491128 0)
(0.619956 0.0511066 0)
(0.582715 0.0540219 0)
(0.545686 0.0574608 0)
(0.508466 0.0617564 0)
(0.470223 0.0655697 0)
(0.430773 0.067068 0)
(0.389976 0.0670852 0)
(0.347594 0.0665939 0)
(0.304272 0.0676801 0)
(0.260945 0.0726744 0)
(0.217834 0.080811 0)
(0.173702 0.0888628 0)
(0.126793 0.093715 0)
(0.0776725 0.0945555 0)
(0.0272241 0.0941243 0)
(3 -4.96058e-16 0)
(3 9.91181e-16 0)
(3 6.43549e-16 0)
(3 2.63992e-15 0)
(3 3.17192e-16 0)
(3 1.86954e-16 0)
(3 1.55298e-15 0)
(3 3.7868e-15 0)
(3 -1.01014e-15 0)
(3 -3.43594e-15 0)
(3 7.20997e-16 0)
(3 1.39903e-16 0)
(3 -1.12953e-15 0)
(3 -1.77824e-15 0)
(3 -2.48994e-15 0)
(3 -4.84282e-16 0)
(3 8.44048e-17 0)
(3 -2.03618e-15 0)
(3 1.48778e-15 0)
(3 -1.39919e-16 0)
(2.96704 0.0197014 0)
(1.04253 0.0840643 0)
(0.730374 0.0663494 0)
(0.698663 0.0584211 0)
(0.66116 0.0591943 0)
(0.622491 0.0617231 0)
(0.583793 0.0647933 0)
(0.546225 0.0685947 0)
(0.509132 0.0737189 0)
(0.471205 0.0783925 0)
(0.432077 0.0801477 0)
(0.391439 0.0799163 0)
(0.348647 0.0795297 0)
(0.304217 0.0814063 0)
(0.259358 0.0874657 0)
(0.21468 0.0962941 0)
(0.169836 0.104538 0)
(0.123488 0.109646 0)
(0.0759443 0.110991 0)
(0.0268992 0.111772 0)
(3 -2.3685e-16 0)
(3 1.51212e-15 0)
(3 -1.19202e-15 0)
(3 3.23932e-15 0)
(3 -1.27517e-15 0)
(3 3.34734e-16 0)
(3 -2.0592e-15 0)
(3 7.02815e-16 0)
(3 -8.57284e-16 0)
(3 -9.8956e-16 0)
(3 1.37593e-15 0)
(3 1.50948e-15 0)
(3 -6.94675e-16 0)
(3 -1.71339e-15 0)
(3 -2.76996e-15 0)
(3 -3.34017e-16 0)
(3 -4.15067e-16 0)
(3 2.09069e-16 0)
(3 9.72826e-16 0)
(3 6.35065e-16 0)
(2.97453 0.0152176 0)
(1.04978 0.0949871 0)
(0.736139 0.0739547 0)
(0.702991 0.0683062 0)
(0.662993 0.0704038 0)
(0.622983 0.0731289 0)
(0.584233 0.0760203 0)
(0.547121 0.0799027 0)
(0.510487 0.0855278 0)
(0.472829 0.0909286 0)
(0.433603 0.093199 0)
(0.39263 0.0934434 0)
(0.349258 0.0937596 0)
(0.303854 0.0964807 0)
(0.257632 0.103061 0)
(0.211397 0.111558 0)
(0.165518 0.119353 0)
(0.119723 0.124798 0)
(0.0735724 0.127072 0)
(0.0262568 0.129413 0)
(3 9.72715e-16 0)
(3 -1.06113e-15 0)
(3 -6.37611e-16 0)
(3 -2.14269e-15 0)
(3 6.12224e-16 0)
(3 -9.18455e-16 0)
(3 1.91471e-15 0)
(3 -5.98424e-16 0)
(3 -4.89827e-16 0)
(3 3.12861e-15 0)
(3 2.69002e-15 0)
(3 1.73863e-16 0)
(3 4.31367e-17 0)
(3 -2.37103e-15 0)
(3 5.32836e-16 0)
(3 1.39283e-15 0)
(3 1.96486e-15 0)
(3 9.12589e-17 0)
(3 -2.2137e-16 0)
(3 1.76795e-15 0)
(2.98073 0.012234 0)
(1.06501 0.103172 0)
(0.740184 0.0814036 0)
(0.704695 0.0791668 0)
(0.663395 0.0821316 0)
(0.623502 0.0847393 0)
(0.585201 0.0872604 0)
(0.548198 0.0911078 0)
(0.511506 0.0972096 0)
(0.473803 0.103284 0)
(0.434505 0.106246 0)
(0.393384 0.107492 0)
(0.349742 0.109015 0)
(0.303629 0.11253 0)
(0.256098 0.119131 0)
(0.208355 0.126736 0)
(0.161664 0.133776 0)
(0.116423 0.139588 0)
(0.0714679 0.142886 0)
(0.0256069 0.146736 0)
(3 -5.79307e-16 0)
(3 1.95346e-16 0)
(3 -5.60161e-16 0)
(3 -2.42072e-16 0)
(3 -2.03663e-16 0)
(3 -4.88792e-16 0)
(3 2.17878e-15 0)
(3 1.42929e-15 0)
(3 -8.41994e-16 0)
(3 -1.46892e-15 0)
(3 7.7689e-16 0)
(3 -1.83408e-15 0)
(3 -5.74572e-16 0)
(3 -9.31461e-16 0)
(3 1.21981e-15 0)
(3 -1.43684e-15 0)
(3 1.60667e-16 0)
(3 -5.59745e-15 0)
(3 -1.03714e-15 0)
(3 9.09633e-16 0)
(2.99247 0.00802231 0)
(1.08267 0.109504 0)
(0.741454 0.0897963 0)
(0.704276 0.0905185 0)
(0.663397 0.0940376 0)
(0.624232 0.0963673 0)
(0.586208 0.0985417 0)
(0.549094 0.102273 0)
(0.512278 0.108645 0)
(0.474574 0.115308 0)
(0.435306 0.119092 0)
(0.394243 0.121621 0)
(0.350458 0.124605 0)
(0.303763 0.128974 0)
(0.255049 0.13534 0)
(0.20604 0.141903 0)
(0.158915 0.148364 0)
(0.114197 0.154471 0)
(0.0701266 0.158437 0)
(0.0251306 0.163523 0)
(3 -1.89968e-15 0)
(3 -8.91495e-16 0)
(3 -6.57519e-16 0)
(3 -1.5547e-15 0)
(3 -2.35773e-16 0)
(3 2.28766e-16 0)
(3 -3.7767e-15 0)
(3 1.72394e-15 0)
(3 2.08677e-15 0)
(3 1.97184e-15 0)
(3 1.02022e-16 0)
(3 -7.28898e-16 0)
(3 9.45188e-16 0)
(3 1.26129e-15 0)
(3 -6.14471e-16 0)
(3 2.27393e-17 0)
(3 1.32119e-15 0)
(3 -1.54525e-15 0)
(3 3.67921e-17 0)
(3 2.78675e-15 0)
(3.00064 0.00159765 0)
(1.0984 0.118319 0)
(0.740525 0.0981342 0)
(0.703769 0.101724 0)
(0.663955 0.105806 0)
(0.625141 0.107968 0)
(0.587147 0.109762 0)
(0.549915 0.11323 0)
(0.512991 0.119748 0)
(0.475261 0.12702 0)
(0.435998 0.131718 0)
(0.395027 0.135577 0)
(0.35127 0.13995 0)
(0.304228 0.145099 0)
(0.254754 0.151246 0)
(0.205068 0.157306 0)
(0.157854 0.163497 0)
(0.113486 0.169634 0)
(0.0697471 0.173761 0)
(0.0250248 0.179785 0)
(3 1.26034e-15 0)
(3 6.93371e-16 0)
(3 1.14412e-15 0)
(3 2.1241e-15 0)
(3 5.98431e-16 0)
(3 -1.36205e-17 0)
(3 -7.70737e-16 0)
(3 -7.49083e-16 0)
(3 2.23737e-15 0)
(3 4.60718e-16 0)
(3 1.76761e-15 0)
(3 3.24844e-15 0)
(3 3.50911e-15 0)
(3 -1.63425e-15 0)
(3 -1.5627e-15 0)
(3 -9.314e-16 0)
(3 1.05543e-15 0)
(3 1.75592e-15 0)
(3 2.35387e-15 0)
(3 -1.26856e-15 0)
(3.00014 7.42704e-05 0)
(1.12065 0.12803 0)
(0.74139 0.106266 0)
(0.704099 0.112597 0)
(0.664658 0.117388 0)
(0.625917 0.119549 0)
(0.587972 0.120936 0)
(0.550696 0.124038 0)
(0.513712 0.130649 0)
(0.475987 0.138573 0)
(0.43672 0.144209 0)
(0.395805 0.149263 0)
(0.352096 0.154865 0)
(0.304931 0.160705 0)
(0.255259 0.166982 0)
(0.205478 0.173044 0)
(0.15828 0.179128 0)
(0.113725 0.185057 0)
(0.069742 0.188957 0)
(0.0250546 0.195803 0)
(3 9.87439e-16 0)
(3 -2.48851e-16 0)
(3 1.94675e-15 0)
(3 2.00665e-15 0)
(3 -9.92314e-16 0)
(3 2.10334e-15 0)
(3 3.40839e-15 0)
(3 1.02651e-15 0)
(3 -1.56752e-16 0)
(3 -3.98126e-16 0)
(3 6.12411e-16 0)
(3 2.68901e-15 0)
(3 2.32793e-15 0)
(3 3.65444e-15 0)
(3 -4.98745e-17 0)
(3 4.43093e-16 0)
(3 -1.90791e-16 0)
(3 5.31376e-15 0)
(3 -2.17908e-17 0)
(3 -2.03681e-15 0)
(3 1.15419e-06 0)
(1.14823 0.137558 0)
(0.743157 0.114218 0)
(0.704592 0.123252 0)
(0.665461 0.128821 0)
(0.626767 0.131052 0)
(0.588787 0.132112 0)
(0.551402 0.134867 0)
(0.514404 0.141619 0)
(0.476792 0.150276 0)
(0.437587 0.156794 0)
(0.39678 0.162813 0)
(0.353258 0.169453 0)
(0.306293 0.176067 0)
(0.256855 0.18288 0)
(0.207239 0.189145 0)
(0.159899 0.195061 0)
(0.114687 0.200648 0)
(0.0700162 0.204197 0)
(0.0251505 0.211914 0)
(3 -1.04662e-16 0)
(3 -7.48685e-16 0)
(3 -6.82598e-16 0)
(3 -7.86859e-16 0)
(3 -7.29467e-16 0)
(3 -2.10778e-15 0)
(3 3.36845e-16 0)
(3 3.31461e-15 0)
(3 -3.19645e-15 0)
(3 -2.68075e-15 0)
(3 -2.33746e-15 0)
(3 1.31913e-15 0)
(3 2.64856e-15 0)
(3 1.91303e-16 0)
(3 -1.56188e-15 0)
(3 -5.46145e-16 0)
(3 -1.13808e-15 0)
(3 2.36162e-15 0)
(3 1.5722e-15 0)
(3 4.25604e-16 0)
(3 2.90673e-09 0)
(1.17911 0.147485 0)
(0.745209 0.122589 0)
(0.705227 0.133851 0)
(0.666387 0.140096 0)
(0.627577 0.142478 0)
(0.589427 0.143326 0)
(0.551956 0.145869 0)
(0.515125 0.152943 0)
(0.477831 0.162419 0)
(0.438858 0.169683 0)
(0.398356 0.176402 0)
(0.355316 0.18393 0)
(0.308931 0.191503 0)
(0.260044 0.199029 0)
(0.210664 0.205453 0)
(0.162886 0.211022 0)
(0.116566 0.216249 0)
(0.070756 0.219654 0)
(0.0253808 0.228425 0)
(3 2.84175e-16 0)
(3 5.48686e-16 0)
(3 2.74456e-16 0)
(3 -8.78807e-16 0)
(3 -8.59198e-16 0)
(3 -1.27038e-15 0)
(3 -2.71175e-15 0)
(3 2.33033e-15 0)
(3 2.7764e-16 0)
(3 -2.62863e-15 0)
(3 -3.12391e-15 0)
(3 1.02865e-15 0)
(3 2.04623e-15 0)
(3 4.55328e-15 0)
(3 1.54648e-15 0)
(3 -4.0154e-16 0)
(3 2.08625e-15 0)
(3 2.99121e-15 0)
(3 3.30047e-15 0)
(3 -1.16112e-15 0)
(3 1.12646e-12 0)
(1.21326 0.15773 0)
(0.74759 0.13132 0)
(0.705945 0.14455 0)
(0.667321 0.151322 0)
(0.628288 0.153814 0)
(0.589919 0.154512 0)
(0.552466 0.157081 0)
(0.51599 0.164729 0)
(0.479161 0.175066 0)
(0.440559 0.182914 0)
(0.400556 0.190095 0)
(0.358279 0.198414 0)
(0.312742 0.207043 0)
(0.26449 0.215348 0)
(0.215174 0.221876 0)
(0.166583 0.226977 0)
(0.118823 0.231954 0)
(0.071657 0.235537 0)
(0.0256461 0.24548 0)
(3 5.25037e-16 0)
(3 -7.10167e-16 0)
(3 -2.26467e-15 0)
(3 -1.73288e-15 0)
(3 4.15181e-16 0)
(3 5.00344e-17 0)
(3 -2.49558e-15 0)
(3 -3.43931e-15 0)
(3 5.25889e-15 0)
(3 1.14807e-15 0)
(3 2.23376e-15 0)
(3 2.66031e-15 0)
(3 3.4128e-15 0)
(3 5.54122e-15 0)
(3 3.44866e-15 0)
(3 3.20379e-15 0)
(3 3.04268e-15 0)
(3 4.78951e-15 0)
(3 4.63003e-15 0)
(3 1.93124e-15 0)
(3 9.76819e-16 0)
(1.25119 0.168306 0)
(0.750429 0.140558 0)
(0.706696 0.155406 0)
(0.668169 0.162512 0)
(0.628852 0.164988 0)
(0.590322 0.165602 0)
(0.553059 0.168457 0)
(0.517086 0.176834 0)
(0.480799 0.188009 0)
(0.442611 0.196332 0)
(0.403127 0.20383 0)
(0.36165 0.212871 0)
(0.317013 0.222566 0)
(0.269401 0.231733 0)
(0.220091 0.238409 0)
(0.170659 0.24309 0)
(0.121535 0.248028 0)
(0.0729248 0.251992 0)
(0.0259992 0.263026 0)
(3 -3.93197e-16 0)
(3 -1.389e-15 0)
(3 -2.37684e-15 0)
(3 -1.06803e-15 0)
(3 -4.32942e-16 0)
(3 4.61118e-16 0)
(3 8.76787e-16 0)
(3 -2.42011e-15 0)
(3 -1.3527e-15 0)
(3 -7.19108e-16 0)
(3 3.11172e-15 0)
(3 -3.56153e-15 0)
(3 2.06639e-15 0)
(3 -2.93293e-15 0)
(3 2.48025e-15 0)
(3 -4.96482e-17 0)
(3 4.75922e-15 0)
(3 -7.95014e-17 0)
(3 3.08203e-15 0)
(3 2.71501e-15 0)
(3 3.28901e-15 0)
(1.29346 0.17909 0)
(0.753863 0.150374 0)
(0.707377 0.166339 0)
(0.668783 0.173552 0)
(0.629228 0.175947 0)
(0.590729 0.176611 0)
(0.553843 0.179889 0)
(0.518448 0.188952 0)
(0.482695 0.200891 0)
(0.444826 0.209679 0)
(0.405677 0.217453 0)
(0.364884 0.22712 0)
(0.321235 0.237796 0)
(0.274466 0.247878 0)
(0.22531 0.254934 0)
(0.175202 0.259613 0)
(0.12482 0.264829 0)
(0.0746711 0.269087 0)
(0.0264824 0.280928 0)
(3 7.19363e-17 0)
(3 6.49104e-16 0)
(3 -7.5359e-16 0)
(3 -1.78729e-16 0)
(3 -2.81183e-16 0)
(3 2.48598e-15 0)
(3 9.76529e-16 0)
(3 2.45907e-15 0)
(3 -3.94448e-15 0)
(3 -1.81797e-15 0)
(3 -1.8727e-15 0)
(3 4.82509e-16 0)
(3 -2.6986e-15 0)
(3 3.27842e-15 0)
(3 2.2301e-15 0)
(3 1.48616e-15 0)
(3 3.83024e-15 0)
(3 3.49489e-15 0)
(3 3.24929e-15 0)
(3 2.39304e-15 0)
(3 1.75929e-15 0)
(1.34054 0.189874 0)
(0.75786 0.16073 0)
(0.70789 0.177179 0)
(0.669121 0.184368 0)
(0.629484 0.186809 0)
(0.591262 0.18764 0)
(0.554889 0.191233 0)
(0.520087 0.200766 0)
(0.484865 0.213373 0)
(0.447248 0.222678 0)
(0.408257 0.230725 0)
(0.367972 0.24092 0)
(0.325286 0.252553 0)
(0.279447 0.263732 0)
(0.230564 0.271642 0)
(0.179954 0.27696 0)
(0.128411 0.282668 0)
(0.0767017 0.286793 0)
(0.0270459 0.298998 0)
(3 -2.86133e-16 0)
(3 -5.87376e-16 0)
(3 -1.15201e-15 0)
(3 -1.57824e-15 0)
(3 3.15244e-16 0)
(3 4.36266e-16 0)
(3 1.87093e-16 0)
(3 3.80057e-15 0)
(3 -8.98962e-16 0)
(3 -3.01849e-16 0)
(3 -5.17318e-16 0)
(3 2.16045e-16 0)
(3 4.73938e-16 0)
(3 -1.99254e-16 0)
(3 -2.48595e-15 0)
(3 8.44489e-17 0)
(3 2.99014e-15 0)
(3 4.45449e-15 0)
(3 4.70432e-15 0)
(3 3.02632e-15 0)
(3 -3.84738e-16 0)
(1.39283 0.200509 0)
(0.762298 0.171567 0)
(0.708179 0.187903 0)
(0.669235 0.195127 0)
(0.629744 0.197824 0)
(0.592016 0.198757 0)
(0.556244 0.202318 0)
(0.522061 0.211997 0)
(0.487486 0.225133 0)
(0.450249 0.234979 0)
(0.411452 0.243297 0)
(0.371663 0.25399 0)
(0.329986 0.266654 0)
(0.285179 0.279191 0)
(0.236721 0.28849 0)
(0.185715 0.294984 0)
(0.132878 0.301352 0)
(0.0793737 0.304977 0)
(0.0278493 0.317174 0)
(3 6.11035e-16 0)
(3 -1.07706e-15 0)
(3 6.6679e-16 0)
(3 8.21117e-16 0)
(3 2.73778e-15 0)
(3 3.79914e-16 0)
(3 4.93724e-15 0)
(3 2.4516e-15 0)
(3 -1.2316e-15 0)
(3 2.38892e-15 0)
(3 -2.2736e-15 0)
(3 -2.35749e-15 0)
(3 -3.265e-16 0)
(3 -3.8278e-15 0)
(3 -3.42801e-15 0)
(3 -1.74701e-15 0)
(3 9.04345e-16 0)
(3 2.72613e-15 0)
(3 6.35943e-16 0)
(3 2.56585e-15 0)
(3 3.57821e-15 0)
(1.45063 0.211002 0)
(0.767083 0.182964 0)
(0.708252 0.198782 0)
(0.669245 0.206133 0)
(0.630143 0.209123 0)
(0.593063 0.209886 0)
(0.557892 0.212991 0)
(0.524232 0.222495 0)
(0.490218 0.236033 0)
(0.453226 0.246489 0)
(0.414347 0.25522 0)
(0.37468 0.266633 0)
(0.333697 0.280632 0)
(0.289809 0.294895 0)
(0.241919 0.306067 0)
(0.190681 0.313928 0)
(0.136687 0.320847 0)
(0.0815076 0.323666 0)
(0.0284175 0.335533 0)
(3 2.6931e-16 0)
(3 3.20233e-16 0)
(3 3.38815e-15 0)
(3 3.08989e-15 0)
(3 -3.87108e-16 0)
(3 -4.38807e-16 0)
(3 3.15051e-15 0)
(3 -3.37966e-15 0)
(3 1.39352e-15 0)
(3 1.29237e-15 0)
(3 3.51948e-15 0)
(3 6.81632e-16 0)
(3 -7.80141e-16 0)
(3 -2.0702e-15 0)
(3 5.84825e-16 0)
(3 -1.93742e-16 0)
(3 -4.09902e-16 0)
(3 5.15624e-15 0)
(3 4.89013e-15 0)
(3 5.27809e-15 0)
(3 7.47577e-16 0)
(1.51413 0.221503 0)
(0.772203 0.195194 0)
(0.708213 0.210153 0)
(0.669434 0.217505 0)
(0.630979 0.220594 0)
(0.594559 0.220905 0)
(0.559737 0.223269 0)
(0.526147 0.232423 0)
(0.492222 0.246359 0)
(0.455064 0.257607 0)
(0.415786 0.266988 0)
(0.376068 0.279322 0)
(0.335891 0.294759 0)
(0.293548 0.310796 0)
(0.24717 0.323896 0)
(0.196191 0.333088 0)
(0.141553 0.340434 0)
(0.0843143 0.342617 0)
(0.0294555 0.354337 0)
(3 1.36056e-16 0)
(3 1.36058e-15 0)
(3 1.55857e-15 0)
(3 2.85348e-15 0)
(3 -1.71114e-15 0)
(3 -2.62196e-15 0)
(3 -1.98182e-15 0)
(3 8.73278e-16 0)
(3 5.97257e-15 0)
(3 2.35102e-15 0)
(3 3.46108e-15 0)
(3 2.01313e-15 0)
(3 -2.14353e-15 0)
(3 1.96448e-15 0)
(3 9.74188e-16 0)
(3 2.00546e-15 0)
(3 1.73249e-15 0)
(3 4.80618e-15 0)
(3 3.86799e-15 0)
(3 1.75868e-17 0)
(3 -1.34304e-15 0)
(1.58363 0.232222 0)
(0.777858 0.208569 0)
(0.708369 0.222092 0)
(0.670227 0.229023 0)
(0.632631 0.231945 0)
(0.596745 0.23171 0)
(0.561867 0.23335 0)
(0.527769 0.242235 0)
(0.493369 0.256663 0)
(0.455855 0.268882 0)
(0.41643 0.279103 0)
(0.377138 0.292336 0)
(0.338242 0.309002 0)
(0.297837 0.326642 0)
(0.253037 0.341532 0)
(0.201963 0.352223 0)
(0.146096 0.360198 0)
(0.0866548 0.362122 0)
(0.0302261 0.374097 0)
(3 5.51858e-16 0)
(3 1.77299e-15 0)
(3 2.36828e-16 0)
(3 3.45763e-16 0)
(3 -2.80451e-16 0)
(3 -1.92551e-16 0)
(3 -1.06201e-15 0)
(3 1.54949e-15 0)
(3 3.62695e-17 0)
(3 1.03323e-15 0)
(3 4.08603e-15 0)
(3 3.11621e-15 0)
(3 -8.30092e-16 0)
(3 -1.49421e-15 0)
(3 -2.5675e-15 0)
(3 1.78787e-16 0)
(3 1.94395e-15 0)
(3 2.93299e-15 0)
(3 1.75585e-16 0)
(3 2.93091e-16 0)
(3 2.82131e-15 0)
(1.65996 0.243269 0)
(0.784646 0.223218 0)
(0.709256 0.234332 0)
(0.671917 0.24035 0)
(0.634941 0.243025 0)
(0.598989 0.242452 0)
(0.563441 0.243631 0)
(0.528521 0.252424 0)
(0.49381 0.267477 0)
(0.45647 0.280817 0)
(0.41755 0.2919 0)
(0.379179 0.305778 0)
(0.341599 0.323324 0)
(0.302763 0.342426 0)
(0.258975 0.358861 0)
(0.207887 0.370922 0)
(0.150871 0.379914 0)
(0.0897477 0.382314 0)
(0.0314946 0.395103 0)
(3 5.1501e-16 0)
(3 2.25971e-15 0)
(3 -4.29381e-15 0)
(3 -4.85476e-16 0)
(3 -3.18282e-15 0)
(3 1.88752e-15 0)
(3 2.89978e-16 0)
(3 1.25534e-15 0)
(3 -2.42064e-15 0)
(3 2.81981e-15 0)
(3 2.90187e-15 0)
(3 2.54575e-15 0)
(3 4.61517e-16 0)
(3 -2.96558e-15 0)
(3 9.07109e-16 0)
(3 6.80335e-16 0)
(3 9.2137e-16 0)
(3 2.25085e-17 0)
(3 3.10731e-15 0)
(3 3.02953e-15 0)
(3 -7.93679e-15 0)
(1.74469 0.25451 0)
(0.793615 0.238983 0)
(0.711453 0.246392 0)
(0.674657 0.2512 0)
(0.637878 0.253826 0)
(0.601452 0.253308 0)
(0.565022 0.254322 0)
(0.529346 0.263223 0)
(0.494542 0.278994 0)
(0.457874 0.293447 0)
(0.420112 0.305273 0)
(0.38302 0.319586 0)
(0.346505 0.337743 0)
(0.308654 0.357955 0)
(0.265021 0.375609 0)
(0.214092 0.388872 0)
(0.155713 0.399724 0)
(0.0930325 0.403743 0)
(0.0326593 0.417659 0)
(3 2.48928e-15 0)
(3 -4.2932e-15 0)
(3 -3.43035e-16 0)
(3 8.28011e-16 0)
(3 1.29998e-15 0)
(3 -6.42326e-16 0)
(3 -1.45856e-15 0)
(3 -8.27646e-16 0)
(3 -9.99135e-18 0)
(3 2.31833e-15 0)
(3 1.18026e-15 0)
(3 2.24294e-15 0)
(3 2.07814e-16 0)
(3 2.47876e-16 0)
(3 1.91674e-15 0)
(3 2.46591e-15 0)
(3 1.06151e-15 0)
(3 -9.53448e-16 0)
(3 1.93867e-16 0)
(3 1.61561e-15 0)
(3 -5.10644e-15 0)
(1.83962 0.264834 0)
(0.805748 0.255374 0)
(0.715407 0.258074 0)
(0.678324 0.26156 0)
(0.640911 0.264543 0)
(0.603504 0.264472 0)
(0.566096 0.265561 0)
(0.529764 0.274582 0)
(0.495557 0.29095 0)
(0.460746 0.306335 0)
(0.425059 0.318727 0)
(0.389462 0.33345 0)
(0.353503 0.352078 0)
(0.315648 0.37279 0)
(0.271619 0.391441 0)
(0.220489 0.406362 0)
(0.161366 0.419923 0)
(0.0973569 0.426578 0)
(0.0343355 0.441699 0)
(3 -1.05543e-16 0)
(3 2.26518e-16 0)
(3 1.90143e-15 0)
(3 8.34271e-16 0)
(3 -1.53738e-16 0)
(3 -1.29522e-15 0)
(3 -1.23332e-15 0)
(3 1.61805e-15 0)
(3 3.2595e-15 0)
(3 1.06843e-15 0)
(3 -9.69556e-16 0)
(3 1.23649e-15 0)
(3 1.17009e-15 0)
(3 1.68438e-15 0)
(3 1.1451e-15 0)
(3 1.32314e-15 0)
(3 7.39612e-16 0)
(3 -1.02481e-17 0)
(3 7.25646e-16 0)
(3 -1.22641e-15 0)
(3 1.31043e-15 0)
(1.94507 0.273036 0)
(0.821101 0.271572 0)
(0.721042 0.268903 0)
(0.683001 0.271605 0)
(0.644287 0.275486 0)
(0.605135 0.276246 0)
(0.566276 0.277288 0)
(0.530046 0.286082 0)
(0.498053 0.302705 0)
(0.46611 0.318658 0)
(0.432675 0.331702 0)
(0.398182 0.347135 0)
(0.361914 0.366174 0)
(0.322686 0.386914 0)
(0.278067 0.406572 0)
(0.226368 0.424252 0)
(0.166927 0.441452 0)
(0.101535 0.450992 0)
(0.0356184 0.467051 0)
(3 2.89179e-16 0)
(3 2.92607e-16 0)
(3 -7.46487e-17 0)
(3 1.04944e-15 0)
(3 1.90029e-16 0)
(3 1.87749e-16 0)
(3 2.25822e-17 0)
(3 6.13796e-16 0)
(3 9.72601e-16 0)
(3 6.5089e-16 0)
(3 -7.8883e-16 0)
(3 -1.76604e-15 0)
(3 -4.93342e-16 0)
(3 -1.66122e-16 0)
(3 2.60346e-16 0)
(3 6.2013e-16 0)
(3 2.44276e-15 0)
(3 -9.57741e-16 0)
(3 2.966e-15 0)
(3 1.21866e-15 0)
(3 -1.26557e-15 0)
(2.05812 0.277309 0)
(0.837573 0.2878 0)
(0.723839 0.280294 0)
(0.684582 0.282277 0)
(0.644804 0.287229 0)
(0.604674 0.288532 0)
(0.566432 0.28915 0)
(0.532449 0.297266 0)
(0.503341 0.313617 0)
(0.473893 0.330191 0)
(0.442151 0.344318 0)
(0.408207 0.360444 0)
(0.371005 0.379426 0)
(0.329961 0.400119 0)
(0.284645 0.421477 0)
(0.232774 0.443076 0)
(0.173525 0.464462 0)
(0.106675 0.476545 0)
(0.0373615 0.493244 0)
(3 -1.02371e-16 0)
(3 1.8595e-15 0)
(3 3.07254e-15 0)
(3 -8.79377e-17 0)
(3 2.85203e-16 0)
(3 1.18964e-15 0)
(3 -6.25519e-17 0)
(3 1.21921e-15 0)
(3 1.57068e-15 0)
(3 4.7417e-16 0)
(3 2.41266e-16 0)
(3 -1.19274e-15 0)
(3 -6.89794e-16 0)
(3 2.20389e-16 0)
(3 -1.14508e-15 0)
(3 1.99499e-15 0)
(3 1.30127e-15 0)
(3 6.19549e-16 0)
(3 -4.33506e-15 0)
(3 1.61496e-15 0)
(3 -7.51429e-16 0)
(2.17296 0.27539 0)
(0.853964 0.30481 0)
(0.726275 0.292464 0)
(0.684438 0.293921 0)
(0.643539 0.299241 0)
(0.604808 0.300747 0)
(0.569665 0.300387 0)
(0.538587 0.307276 0)
(0.511707 0.323426 0)
(0.483785 0.341026 0)
(0.452865 0.356277 0)
(0.418633 0.372763 0)
(0.379794 0.391562 0)
(0.33696 0.412972 0)
(0.290765 0.437357 0)
(0.23871 0.463691 0)
(0.17928 0.489265 0)
(0.110703 0.503316 0)
(0.0382412 0.520134 0)
(3 -1.25722e-15 0)
(3 4.44358e-15 0)
(3 1.39889e-15 0)
(3 -4.11529e-16 0)
(3 -3.31741e-17 0)
(3 1.42338e-15 0)
(3 6.02078e-16 0)
(3 1.54454e-15 0)
(3 -4.9453e-16 0)
(3 7.2879e-16 0)
(3 -2.02417e-16 0)
(3 -1.81387e-15 0)
(3 -2.86904e-15 0)
(3 8.78099e-16 0)
(3 -1.36656e-15 0)
(3 3.09921e-15 0)
(3 2.4865e-16 0)
(3 2.74814e-15 0)
(3 -5.53835e-16 0)
(3 1.24034e-15 0)
(3 -3.19966e-16 0)
(2.2838 0.271499 0)
(0.864802 0.324673 0)
(0.719843 0.303878 0)
(0.679941 0.305224 0)
(0.642672 0.310984 0)
(0.608109 0.312207 0)
(0.576439 0.310339 0)
(0.547658 0.316321 0)
(0.52226 0.332695 0)
(0.494837 0.351495 0)
(0.463366 0.367744 0)
(0.427712 0.38445 0)
(0.387425 0.403482 0)
(0.343365 0.426489 0)
(0.297121 0.454787 0)
(0.24505 0.485869 0)
(0.185529 0.515118 0)
(0.115244 0.530815 0)
(0.0397466 0.547575 0)
(3 4.61631e-16 0)
(3 -1.13842e-15 0)
(3 1.19907e-15 0)
(3 1.83046e-16 0)
(3 -1.225e-16 0)
(3 -3.13452e-16 0)
(3 1.85591e-15 0)
(3 1.83929e-15 0)
(3 4.28731e-16 0)
(3 2.77768e-15 0)
(3 -8.39073e-16 0)
(3 -1.38048e-15 0)
(3 -1.05456e-15 0)
(3 6.193e-17 0)
(3 3.16694e-15 0)
(3 2.24834e-15 0)
(3 2.77489e-15 0)
(3 2.86306e-15 0)
(3 -1.2953e-16 0)
(3 -1.97123e-16 0)
(3 3.50009e-15 0)
(2.39284 0.2764 0)
(0.877301 0.349011 0)
(0.716265 0.31768 0)
(0.680114 0.3173 0)
(0.646187 0.322352 0)
(0.615034 0.322543 0)
(0.585812 0.319425 0)
(0.558603 0.324626 0)
(0.534019 0.341231 0)
(0.506324 0.360999 0)
(0.473142 0.378247 0)
(0.435973 0.395633 0)
(0.394284 0.416029 0)
(0.349714 0.441664 0)
(0.303416 0.473996 0)
(0.250982 0.509269 0)
(0.190783 0.541867 0)
(0.118365 0.559278 0)
(0.0403903 0.576132 0)
(3 1.27938e-15 0)
(3 -3.71786e-16 0)
(3 -1.24713e-15 0)
(3 -4.1639e-16 0)
(3 1.42319e-15 0)
(3 7.05999e-16 0)
(3 1.4903e-15 0)
(3 2.08076e-15 0)
(3 4.14307e-15 0)
(3 2.65223e-15 0)
(3 4.62995e-15 0)
(3 -4.82247e-16 0)
(3 1.10573e-15 0)
(3 2.36306e-17 0)
(3 2.82439e-16 0)
(3 -4.23978e-16 0)
(3 4.37193e-16 0)
(3 5.76554e-16 0)
(3 -2.86957e-15 0)
(3 -1.80546e-16 0)
(3 -2.20229e-16 0)
(2.52572 0.27964 0)
(0.907193 0.376858 0)
(0.72729 0.332415 0)
(0.691559 0.32905 0)
(0.657233 0.332066 0)
(0.625856 0.332193 0)
(0.596666 0.328473 0)
(0.569321 0.332958 0)
(0.544662 0.349561 0)
(0.515953 0.370087 0)
(0.481311 0.388464 0)
(0.442453 0.407494 0)
(0.400136 0.430293 0)
(0.355703 0.459191 0)
(0.309149 0.494627 0)
(0.257352 0.533 0)
(0.196855 0.568831 0)
(0.122655 0.5885 0)
(0.0423558 0.606322 0)
(3 8.53048e-16 0)
(3 -1.21364e-15 0)
(3 -1.81549e-15 0)
(3 -1.38236e-16 0)
(3 1.40906e-15 0)
(3 -6.7249e-16 0)
(3 2.91692e-16 0)
(3 3.83049e-15 0)
(3 -4.22429e-15 0)
(3 -4.95849e-15 0)
(3 -3.46016e-15 0)
(3 1.0441e-15 0)
(3 9.45207e-19 0)
(3 1.20447e-15 0)
(3 1.34328e-15 0)
(3 9.56818e-16 0)
(3 5.22441e-16 0)
(3 1.44295e-15 0)
(3 2.49742e-15 0)
(3 -8.33178e-16 0)
(3 -2.84961e-15 0)
(2.72134 0.267319 0)
(0.972116 0.391886 0)
(0.767132 0.337245 0)
(0.72313 0.338353 0)
(0.678625 0.344116 0)
(0.641388 0.342875 0)
(0.608565 0.338429 0)
(0.57862 0.341618 0)
(0.552786 0.357828 0)
(0.523157 0.379147 0)
(0.487654 0.398911 0)
(0.447727 0.420317 0)
(0.405422 0.446478 0)
(0.361544 0.478366 0)
(0.315436 0.515757 0)
(0.264562 0.556323 0)
(0.20357 0.595741 0)
(0.126961 0.619153 0)
(0.0436742 0.639279 0)
(3 -5.37361e-16 0)
(3 -4.28636e-16 0)
(3 9.53538e-16 0)
(3 5.1564e-16 0)
(3 -4.26982e-16 0)
(3 1.93885e-15 0)
(3 2.8891e-16 0)
(3 2.20428e-15 0)
(3 2.68985e-15 0)
(3 -4.1459e-15 0)
(3 -4.13491e-15 0)
(3 1.93726e-15 0)
(3 1.90211e-15 0)
(3 2.09074e-15 0)
(3 5.83716e-16 0)
(3 1.76064e-15 0)
(3 1.3468e-15 0)
(3 3.23975e-15 0)
(3 7.93107e-16 0)
(3 -1.41189e-15 0)
(3 -1.36683e-15 0)
(2.94225 0.185385 0)
(1.0686 0.410943 0)
(0.836627 0.35176 0)
(0.77665 0.356007 0)
(0.71428 0.358558 0)
(0.664141 0.356431 0)
(0.62243 0.35077 0)
(0.586208 0.351933 0)
(0.556304 0.367045 0)
(0.525729 0.388977 0)
(0.490297 0.410428 0)
(0.45113 0.434612 0)
(0.410135 0.464204 0)
(0.367281 0.498183 0)
(0.322737 0.536495 0)
(0.272967 0.578957 0)
(0.212657 0.622479 0)
(0.134172 0.65155 0)
(0.0470028 0.675484 0)
(3 -4.32428e-16 0)
(3 1.66575e-15 0)
(3 4.18773e-15 0)
(3 -5.07707e-16 0)
(3 -8.29983e-16 0)
(3 -3.0886e-15 0)
(3 -1.00502e-15 0)
(3 3.35908e-16 0)
(3 2.81494e-15 0)
(3 -1.63201e-15 0)
(3 -1.04599e-15 0)
(3 2.9539e-16 0)
(3 3.42517e-15 0)
(3 2.31366e-15 0)
(3 3.23136e-15 0)
(3 7.8277e-16 0)
(3 4.02159e-15 0)
(3 -5.27424e-16 0)
(3 -1.42517e-15 0)
(3 3.0764e-16 0)
(3 -1.32008e-15 0)
(3.04708 0.0696442 0)
(1.15195 0.384498 0)
(0.883997 0.36934 0)
(0.830159 0.380096 0)
(0.758183 0.379911 0)
(0.694877 0.3745 0)
(0.641305 0.366257 0)
(0.595831 0.364147 0)
(0.559329 0.376965 0)
(0.527064 0.399246 0)
(0.491688 0.422956 0)
(0.454398 0.450247 0)
(0.415589 0.482362 0)
(0.374713 0.517322 0)
(0.332161 0.555789 0)
(0.283765 0.600232 0)
(0.224178 0.649554 0)
(0.142815 0.68708 0)
(0.0495671 0.716018 0)
(3 1.18092e-15 0)
(3 8.34119e-16 0)
(3 -6.57889e-16 0)
(3 -1.76293e-15 0)
(3 -5.05839e-16 0)
(3 -1.77924e-16 0)
(3 1.19396e-15 0)
(3 6.28185e-16 0)
(3 3.26818e-15 0)
(3 8.916e-16 0)
(3 -7.232e-16 0)
(3 7.99082e-16 0)
(3 3.08692e-15 0)
(3 1.40935e-15 0)
(3 4.88196e-15 0)
(3 2.5809e-15 0)
(3 5.41779e-16 0)
(3 3.82e-15 0)
(3 6.99883e-16 0)
(3 1.88058e-15 0)
(3 2.18446e-15 0)
(3.00439 0.0219418 0)
(1.17413 0.354673 0)
(0.89102 0.379854 0)
(0.861201 0.39798 0)
(0.798325 0.40243 0)
(0.73229 0.394723 0)
(0.667472 0.385372 0)
(0.610536 0.379072 0)
(0.565037 0.388803 0)
(0.529393 0.411072 0)
(0.494083 0.436819 0)
(0.459001 0.466704 0)
(0.422481 0.500284 0)
(0.384298 0.534938 0)
(0.343108 0.573501 0)
(0.296579 0.620851 0)
(0.239332 0.677615 0)
(0.156245 0.72576 0)
(0.0549849 0.761063 0)
(3 2.67737e-16 0)
(3 2.9307e-16 0)
(3 -2.97131e-16 0)
(3 1.58143e-15 0)
(3 -1.04375e-16 0)
(3 3.55889e-15 0)
(3 3.36501e-15 0)
(3 9.88551e-16 0)
(3 3.38502e-15 0)
(3 -5.30382e-16 0)
(3 5.86375e-15 0)
(3 3.4607e-15 0)
(3 3.39911e-15 0)
(3 1.21744e-15 0)
(3 2.36829e-15 0)
(3 1.79491e-15 0)
(3 -3.88015e-16 0)
(3 -2.60744e-16 0)
(3 2.98972e-15 0)
(3 2.1788e-15 0)
(3 9.96613e-16 0)
(2.99184 0.0115244 0)
(1.17673 0.337452 0)
(0.876589 0.390078 0)
(0.864123 0.412973 0)
(0.823414 0.417717 0)
(0.767185 0.417019 0)
(0.700084 0.407245 0)
(0.632342 0.3977 0)
(0.576356 0.403262 0)
(0.535086 0.424912 0)
(0.49907 0.451812 0)
(0.465563 0.483056 0)
(0.431615 0.517176 0)
(0.395869 0.550796 0)
(0.356617 0.589201 0)
(0.31324 0.640473 0)
(0.25847 0.707344 0)
(0.171682 0.770035 0)
(0.0594991 0.813014 0)
(3 -1.20206e-15 0)
(3 1.20741e-15 0)
(3 -3.52959e-16 0)
(3 5.02601e-16 0)
(3 3.55459e-16 0)
(3 5.47657e-17 0)
(3 6.20572e-16 0)
(3 1.72322e-15 0)
(3 3.66745e-16 0)
(3 3.33642e-15 0)
(3 2.40486e-15 0)
(3 1.70214e-15 0)
(3 3.97163e-16 0)
(3 2.85473e-16 0)
(3 -4.50484e-16 0)
(3 1.11905e-15 0)
(3 -3.99458e-16 0)
(3 -4.87397e-16 0)
(3 -1.24221e-15 0)