/*--------------------------------*- C++ -*----------------------------------*\
  =========                 |
  \\      /  F ield         | OpenFOAM: The Open Source CFD Toolbox
   \\    /   O peration     | Website:  https://openfoam.org
    \\  /    A nd           | Version:  6.0
     \\/     M anipulation  |
\*---------------------------------------------------------------------------*/
FoamFile
{
    version     2.0;
    format      ascii;
    class       volVectorField;
    location    "1.000785";
    object      U;
}
// * * * * * * * * * * * * * * * * * * * * * * * * * * * * * * * * * * * * * //

dimensions      [0 1 -1 0 0 0 0];

internalField   nonuniform List<vector> 
3000
(
(3 3.66954e-17 0)
(3 1.58132e-16 0)
(3 6.50765e-17 0)
(3 2.70099e-16 0)
(3 1.4888e-16 0)
(1.84999 0.0125569 0)
(0.692015 0.0220897 0)
(0.488522 0.029132 0)
(0.312086 0.0304715 0)
(0.125493 0.0365404 0)
(3 -2.13588e-16 0)
(3 2.45048e-16 0)
(3 5.54469e-16 0)
(3 1.59562e-16 0)
(3 -7.97117e-16 0)
(1.83612 0.041585 0)
(0.67163 0.0707719 0)
(0.465296 0.0831755 0)
(0.295234 0.0902222 0)
(0.118324 0.110218 0)
(3 2.93938e-17 0)
(3 -3.43117e-16 0)
(3 7.32689e-17 0)
(3 8.96155e-17 0)
(3 -1.33864e-16 0)
(1.83422 0.0825768 0)
(0.652428 0.122724 0)
(0.440601 0.136508 0)
(0.275065 0.146084 0)
(0.112791 0.179036 0)
(3 1.96875e-16 0)
(3 -9.19144e-16 0)
(3 -1.19014e-15 0)
(3 7.17193e-16 0)
(3 9.84208e-16 0)
(1.8638 0.137762 0)
(0.646902 0.182451 0)
(0.42815 0.191158 0)
(0.264158 0.202414 0)
(0.105155 0.244879 0)
(3 -1.88451e-16 0)
(3 -9.39968e-16 0)
(3 -1.71265e-15 0)
(3 -6.69498e-16 0)
(3 -5.54997e-16 0)
(1.93315 0.19555 0)
(0.66169 0.247056 0)
(0.436105 0.245556 0)
(0.274103 0.259019 0)
(0.11539 0.311637 0)
(3 1.63706e-16 0)
(3 -1.07293e-16 0)
(3 -6.58132e-16 0)
(3 -6.77679e-16 0)
(3 -1.00237e-15 0)
(2.0366 0.249584 0)
(0.690557 0.313 0)
(0.456119 0.298123 0)
(0.291539 0.319415 0)
(0.116961 0.385701 0)
(3 -2.2619e-16 0)
(3 1.3482e-16 0)
(3 5.83277e-16 0)
(3 1.94584e-16 0)
(3 -2.80468e-16 0)
(2.17504 0.30052 0)
(0.733351 0.380003 0)
(0.489123 0.349255 0)
(0.332113 0.379157 0)
(0.148359 0.465911 0)
(3 -2.46959e-16 0)
(3 -2.62878e-16 0)
(3 1.37386e-16 0)
(3 -4.39528e-16 0)
(3 -1.85765e-16 0)
(2.37324 0.339574 0)
(0.803357 0.44601 0)
(0.541528 0.39792 0)
(0.382531 0.451208 0)
(0.155475 0.572724 0)
(3 -3.11409e-16 0)
(3 1.50951e-16 0)
(3 4.28688e-16 0)
(3 2.55345e-16 0)
(3 1.25962e-16 0)
(2.65136 0.333252 0)
(0.91422 0.495654 0)
(0.622693 0.446695 0)
(0.474978 0.51874 0)
(0.222102 0.683078 0)
(3 -6.3544e-16 0)
(3 -2.23769e-16 0)
(3 4.57543e-16 0)
(3 1.45873e-15 0)
(3 1.14557e-15 0)
(2.92325 0.238809 0)
(1.03936 0.536082 0)
(0.723352 0.47788 0)
(0.581691 0.592916 0)
(0.313369 0.880635 0)
(3 1.68414e-16 0)
(3 2.21314e-16 0)
(3 -6.74354e-17 0)
(3 3.05759e-16 0)
(3 -3.22751e-16 0)
(1.84999 0.0125569 0)
(0.692015 0.0220897 0)
(0.488522 0.029132 0)
(0.312086 0.0304715 0)
(0.125493 0.0365404 0)
(3 8.79901e-17 0)
(3 2.86834e-16 0)
(3 3.06332e-16 0)
(3 1.47562e-16 0)
(3 3.18327e-16 0)
(1.83612 0.041585 0)
(0.67163 0.0707719 0)
(0.465296 0.0831755 0)
(0.295234 0.0902222 0)
(0.118324 0.110218 0)
(3 -7.1652e-17 0)
(3 1.8873e-16 0)
(3 2.69664e-16 0)
(3 1.63393e-16 0)
(3 8.60505e-16 0)
(1.83422 0.0825768 0)
(0.652428 0.122724 0)
(0.440601 0.136508 0)
(0.275065 0.146084 0)
(0.112791 0.179036 0)
(3 1.8662e-16 0)
(3 6.07855e-17 0)
(3 -2.78738e-16 0)
(3 4.0148e-17 0)
(3 3.54031e-17 0)
(1.8638 0.137762 0)
(0.646902 0.182451 0)
(0.42815 0.191158 0)
(0.264158 0.202414 0)
(0.105155 0.244879 0)
(3 1.08725e-17 0)
(3 -6.12409e-16 0)
(3 -1.26644e-15 0)
(3 -1.22863e-15 0)
(3 -8.72676e-17 0)
(1.93315 0.19555 0)
(0.66169 0.247056 0)
(0.436105 0.245556 0)
(0.274103 0.259019 0)
(0.11539 0.311637 0)
(3 5.07454e-17 0)
(3 -1.57301e-16 0)
(3 -4.85169e-17 0)
(3 -2.31127e-16 0)
(3 -9.45172e-16 0)
(2.0366 0.249584 0)
(0.690557 0.313 0)
(0.456119 0.298123 0)
(0.291539 0.319415 0)
(0.116961 0.385701 0)
(3 4.23642e-17 0)
(3 1.97445e-16 0)
(3 7.6551e-16 0)
(3 5.38941e-16 0)
(3 -5.51702e-16 0)
(2.17504 0.30052 0)
(0.733351 0.380003 0)
(0.489123 0.349255 0)
(0.332113 0.379157 0)
(0.148359 0.465911 0)
(3 -2.01079e-16 0)
(3 1.97977e-16 0)
(3 3.16295e-17 0)
(3 -8.42564e-17 0)
(3 2.21405e-16 0)
(2.37324 0.339574 0)
(0.803357 0.44601 0)
(0.541528 0.39792 0)
(0.382531 0.451208 0)
(0.155475 0.572724 0)
(3 -3.4977e-17 0)
(3 1.84468e-16 0)
(3 9.09603e-18 0)
(3 1.28947e-16 0)
(3 3.17905e-16 0)
(2.65136 0.333252 0)
(0.91422 0.495654 0)
(0.622693 0.446695 0)
(0.474978 0.51874 0)
(0.222102 0.683078 0)
(3 -1.80935e-18 0)
(3 -2.14469e-16 0)
(3 5.03817e-17 0)
(3 1.62139e-16 0)
(3 4.05337e-16 0)
(2.92325 0.238809 0)
(1.03936 0.536082 0)
(0.723352 0.47788 0)
(0.581691 0.592916 0)
(0.313369 0.880635 0)
(3 2.65008e-16 0)
(3 1.47589e-16 0)
(3 -1.23246e-16 0)
(3 1.16128e-16 0)
(3 -1.59607e-17 0)
(1.84999 0.0125569 0)
(0.692015 0.0220897 0)
(0.488522 0.029132 0)
(0.312086 0.0304715 0)
(0.125493 0.0365404 0)
(3 2.60249e-16 0)
(3 4.48466e-16 0)
(3 1.79287e-16 0)
(3 1.41144e-16 0)
(3 4.49478e-16 0)
(1.83612 0.041585 0)
(0.67163 0.0707719 0)
(0.465296 0.0831755 0)
(0.295234 0.0902222 0)
(0.118324 0.110218 0)
(3 -7.33075e-18 0)
(3 7.43671e-16 0)
(3 6.16179e-16 0)
(3 3.51705e-16 0)
(3 -1.22998e-17 0)
(1.83422 0.0825768 0)
(0.652428 0.122724 0)
(0.440601 0.136508 0)
(0.275065 0.146084 0)
(0.112791 0.179036 0)
(3 1.50805e-16 0)
(3 3.28822e-16 0)
(3 1.90175e-16 0)
(3 1.78492e-17 0)
(3 -2.65069e-16 0)
(1.8638 0.137762 0)
(0.646902 0.182451 0)
(0.42815 0.191158 0)
(0.264158 0.202414 0)
(0.105155 0.244879 0)
(3 2.70175e-17 0)
(3 -2.78315e-16 0)
(3 -1.13865e-15 0)
(3 -9.55411e-16 0)
(3 -1.78746e-16 0)
(1.93315 0.19555 0)
(0.66169 0.247056 0)
(0.436105 0.245556 0)
(0.274103 0.259019 0)
(0.11539 0.311637 0)
(3 1.46034e-18 0)
(3 -4.68977e-16 0)
(3 -4.31818e-16 0)
(3 -3.34671e-16 0)
(3 -6.02238e-16 0)
(2.0366 0.249584 0)
(0.690557 0.313 0)
(0.456119 0.298123 0)
(0.291539 0.319415 0)
(0.116961 0.385701 0)
(3 -2.57069e-17 0)
(3 -3.15703e-16 0)
(3 6.05586e-16 0)
(3 2.57341e-16 0)
(3 -5.57263e-16 0)
(2.17504 0.30052 0)
(0.733351 0.380003 0)
(0.489123 0.349255 0)
(0.332113 0.379157 0)
(0.148359 0.465911 0)
(3 -3.02062e-16 0)
(3 -8.22767e-17 0)
(3 4.80768e-17 0)
(3 6.3873e-17 0)
(3 1.78769e-16 0)
(2.37324 0.339574 0)
(0.803357 0.44601 0)
(0.541528 0.39792 0)
(0.382531 0.451208 0)
(0.155475 0.572724 0)
(3 1.39075e-16 0)
(3 4.50923e-16 0)
(3 2.72847e-16 0)
(3 -1.70266e-17 0)
(3 6.59251e-16 0)
(2.65136 0.333252 0)
(0.91422 0.495654 0)
(0.622693 0.446695 0)
(0.474978 0.51874 0)
(0.222102 0.683078 0)
(3 1.80668e-16 0)
(3 2.22349e-16 0)
(3 1.94841e-16 0)
(3 1.70868e-16 0)
(3 1.65761e-16 0)
(2.92325 0.238809 0)
(1.03936 0.536082 0)
(0.723352 0.47788 0)
(0.581691 0.592916 0)
(0.313369 0.880635 0)
(3 1.35709e-16 0)
(3 3.89432e-16 0)
(3 -4.27917e-17 0)
(3 1.03852e-16 0)
(3 4.60052e-17 0)
(1.84999 0.0125569 0)
(0.692015 0.0220897 0)
(0.488522 0.029132 0)
(0.312086 0.0304715 0)
(0.125493 0.0365404 0)
(3 1.37143e-16 0)
(3 5.29352e-16 0)
(3 9.04795e-17 0)
(3 6.98978e-17 0)
(3 -2.6564e-16 0)
(1.83612 0.041585 0)
(0.67163 0.0707719 0)
(0.465296 0.0831755 0)
(0.295234 0.0902222 0)
(0.118324 0.110218 0)
(3 1.65402e-16 0)
(3 5.00334e-16 0)
(3 3.28321e-16 0)
(3 1.48539e-16 0)
(3 -2.76407e-16 0)
(1.83422 0.0825768 0)
(0.652428 0.122724 0)
(0.440601 0.136508 0)
(0.275065 0.146084 0)
(0.112791 0.179036 0)
(3 3.77585e-16 0)
(3 5.59379e-16 0)
(3 5.26871e-17 0)
(3 -2.85883e-16 0)
(3 -3.15069e-16 0)
(1.8638 0.137762 0)
(0.646902 0.182451 0)
(0.42815 0.191158 0)
(0.264158 0.202414 0)
(0.105155 0.244879 0)
(3 5.23397e-17 0)
(3 -2.56315e-16 0)
(3 -5.64603e-16 0)
(3 -4.03631e-16 0)
(3 -2.53326e-16 0)
(1.93315 0.19555 0)
(0.66169 0.247056 0)
(0.436105 0.245556 0)
(0.274103 0.259019 0)
(0.11539 0.311637 0)
(3 -2.30065e-17 0)
(3 -7.8336e-16 0)
(3 -4.43572e-16 0)
(3 -2.89542e-16 0)
(3 -4.32656e-16 0)
(2.0366 0.249584 0)
(0.690557 0.313 0)
(0.456119 0.298123 0)
(0.291539 0.319415 0)
(0.116961 0.385701 0)
(3 -1.93883e-16 0)
(3 -3.90313e-17 0)
(3 1.93659e-16 0)
(3 1.42254e-16 0)
(3 -4.60778e-16 0)
(2.17504 0.30052 0)
(0.733351 0.380003 0)
(0.489123 0.349255 0)
(0.332113 0.379157 0)
(0.148359 0.465911 0)
(3 -1.27088e-16 0)
(3 1.15255e-16 0)
(3 2.40723e-16 0)
(3 2.97607e-16 0)
(3 1.70733e-16 0)
(2.37324 0.339574 0)
(0.803357 0.44601 0)
(0.541528 0.39792 0)
(0.382531 0.451208 0)
(0.155475 0.572724 0)
(3 3.33028e-16 0)
(3 4.57842e-16 0)
(3 3.78747e-16 0)
(3 2.63151e-16 0)
(3 6.33603e-16 0)
(2.65136 0.333252 0)
(0.91422 0.495654 0)
(0.622693 0.446695 0)
(0.474978 0.51874 0)
(0.222102 0.683078 0)
(3 1.35714e-16 0)
(3 3.58159e-16 0)
(3 2.97786e-16 0)
(3 5.20474e-17 0)
(3 -7.63917e-17 0)
(2.92325 0.238809 0)
(1.03936 0.536082 0)
(0.723352 0.47788 0)
(0.581691 0.592916 0)
(0.313369 0.880635 0)
(3 1.01365e-16 0)
(3 1.76519e-16 0)
(3 1.45769e-16 0)
(3 -3.01024e-17 0)
(3 -4.731e-18 0)
(1.84999 0.0125569 0)
(0.692015 0.0220897 0)
(0.488522 0.029132 0)
(0.312086 0.0304715 0)
(0.125493 0.0365404 0)
(3 4.48466e-17 0)
(3 2.65501e-16 0)
(3 2.72198e-16 0)
(3 -1.21819e-16 0)
(3 -7.16074e-16 0)
(1.83612 0.041585 0)
(0.67163 0.0707719 0)
(0.465296 0.0831755 0)
(0.295234 0.0902222 0)
(0.118324 0.110218 0)
(3 1.80678e-16 0)
(3 2.19657e-16 0)
(3 1.96908e-16 0)
(3 -2.63448e-17 0)
(3 -1.73993e-16 0)
(1.83422 0.0825768 0)
(0.652428 0.122724 0)
(0.440601 0.136508 0)
(0.275065 0.146084 0)
(0.112791 0.179036 0)
(3 3.24904e-16 0)
(3 3.8137e-16 0)
(3 -6.18539e-17 0)
(3 -1.41737e-16 0)
(3 -2.26088e-16 0)
(1.8638 0.137762 0)
(0.646902 0.182451 0)
(0.42815 0.191158 0)
(0.264158 0.202414 0)
(0.105155 0.244879 0)
(3 3.0306e-17 0)
(3 -2.57889e-16 0)
(3 -5.6302e-16 0)
(3 -3.64024e-16 0)
(3 -7.91088e-16 0)
(1.93315 0.19555 0)
(0.66169 0.247056 0)
(0.436105 0.245556 0)
(0.274103 0.259019 0)
(0.11539 0.311637 0)
(3 -1.90689e-17 0)
(3 -3.11076e-16 0)
(3 -1.68505e-16 0)
(3 -2.10757e-16 0)
(3 5.22222e-17 0)
(2.0366 0.249584 0)
(0.690557 0.313 0)
(0.456119 0.298123 0)
(0.291539 0.319415 0)
(0.116961 0.385701 0)
(3 -9.87697e-17 0)
(3 -1.18998e-16 0)
(3 9.44125e-17 0)
(3 3.30597e-16 0)
(3 -2.47145e-16 0)
(2.17504 0.30052 0)
(0.733351 0.380003 0)
(0.489123 0.349255 0)
(0.332113 0.379157 0)
(0.148359 0.465911 0)
(3 3.82327e-17 0)
(3 2.16669e-16 0)
(3 1.51992e-16 0)
(3 6.34323e-16 0)
(3 4.14689e-16 0)
(2.37324 0.339574 0)
(0.803357 0.44601 0)
(0.541528 0.39792 0)
(0.382531 0.451208 0)
(0.155475 0.572724 0)
(3 5.46801e-16 0)
(3 4.02088e-16 0)
(3 5.32887e-16 0)
(3 5.34747e-16 0)
(3 2.24059e-16 0)
(2.65136 0.333252 0)
(0.91422 0.495654 0)
(0.622693 0.446695 0)
(0.474978 0.51874 0)
(0.222102 0.683078 0)
(3 -1.10921e-16 0)
(3 9.23577e-17 0)
(3 3.26854e-16 0)
(3 -2.14687e-16 0)
(3 -2.92144e-16 0)
(2.92325 0.238809 0)
(1.03936 0.536082 0)
(0.723352 0.47788 0)
(0.581691 0.592916 0)
(0.313369 0.880635 0)
(3 -4.10535e-17 0)
(3 1.07813e-16 0)
(3 2.53773e-16 0)
(3 5.87501e-17 0)
(3 -1.79349e-16 0)
(1.84999 0.0125569 0)
(0.692015 0.0220897 0)
(0.488522 0.029132 0)
(0.312086 0.0304715 0)
(0.125493 0.0365404 0)
(3 5.94539e-17 0)
(3 1.94181e-16 0)
(3 2.59674e-16 0)
(3 7.62865e-17 0)
(3 -8.03016e-16 0)
(1.83612 0.041585 0)
(0.67163 0.0707719 0)
(0.465296 0.0831755 0)
(0.295234 0.0902222 0)
(0.118324 0.110218 0)
(3 7.97271e-17 0)
(3 1.96064e-16 0)
(3 9.25985e-17 0)
(3 -1.91477e-16 0)
(3 -1.51386e-16 0)
(1.83422 0.0825768 0)
(0.652428 0.122724 0)
(0.440601 0.136508 0)
(0.275065 0.146084 0)
(0.112791 0.179036 0)
(3 1.71518e-16 0)
(3 3.03371e-16 0)
(3 5.84463e-17 0)
(3 -2.77575e-17 0)
(3 1.05597e-16 0)
(1.8638 0.137762 0)
(0.646902 0.182451 0)
(0.42815 0.191158 0)
(0.264158 0.202414 0)
(0.105155 0.244879 0)
(3 1.95804e-16 0)
(3 -2.39322e-16 0)
(3 -6.24971e-16 0)
(3 -1.9663e-16 0)
(3 -2.53563e-16 0)
(1.93315 0.19555 0)
(0.66169 0.247056 0)
(0.436105 0.245556 0)
(0.274103 0.259019 0)
(0.11539 0.311637 0)
(3 4.00351e-18 0)
(3 -2.15871e-16 0)
(3 -3.17086e-16 0)
(3 1.1587e-16 0)
(3 4.64484e-16 0)
(2.0366 0.249584 0)
(0.690557 0.313 0)
(0.456119 0.298123 0)
(0.291539 0.319415 0)
(0.116961 0.385701 0)
(3 -5.53326e-18 0)
(3 -3.44684e-17 0)
(3 -9.85948e-17 0)
(3 5.54769e-16 0)
(3 -3.40048e-16 0)
(2.17504 0.30052 0)
(0.733351 0.380003 0)
(0.489123 0.349255 0)
(0.332113 0.379157 0)
(0.148359 0.465911 0)
(3 1.23095e-17 0)
(3 1.72323e-17 0)
(3 3.1003e-16 0)
(3 5.17471e-16 0)
(3 7.05036e-17 0)
(2.37324 0.339574 0)
(0.803357 0.44601 0)
(0.541528 0.39792 0)
(0.382531 0.451208 0)
(0.155475 0.572724 0)
(3 3.54861e-16 0)
(3 5.05431e-16 0)
(3 6.24546e-16 0)
(3 5.16234e-16 0)
(3 1.65949e-16 0)
(2.65136 0.333252 0)
(0.91422 0.495654 0)
(0.622693 0.446695 0)
(0.474978 0.51874 0)
(0.222102 0.683078 0)
(3 -1.19501e-16 0)
(3 8.2156e-17 0)
(3 2.87066e-16 0)
(3 -1.93117e-17 0)
(3 -2.2854e-16 0)
(2.92325 0.238809 0)
(1.03936 0.536082 0)
(0.723352 0.47788 0)
(0.581691 0.592916 0)
(0.313369 0.880635 0)
(3 -1.07639e-16 0)
(3 1.66782e-16 0)
(3 3.20614e-16 0)
(3 2.22294e-16 0)
(3 -1.93838e-16 0)
(1.84999 0.0125569 0)
(0.692015 0.0220897 0)
(0.488522 0.029132 0)
(0.312086 0.0304715 0)
(0.125493 0.0365404 0)
(3 -6.17668e-17 0)
(3 9.26983e-17 0)
(3 4.76656e-17 0)
(3 1.52938e-16 0)
(3 -6.87393e-16 0)
(1.83612 0.041585 0)
(0.67163 0.0707719 0)
(0.465296 0.0831755 0)
(0.295234 0.0902222 0)
(0.118324 0.110218 0)
(3 7.53224e-17 0)
(3 1.19519e-16 0)
(3 -1.09843e-16 0)
(3 2.15003e-17 0)
(3 -2.24127e-16 0)
(1.83422 0.0825768 0)
(0.652428 0.122724 0)
(0.440601 0.136508 0)
(0.275065 0.146084 0)
(0.112791 0.179036 0)
(3 4.08742e-16 0)
(3 3.56651e-16 0)
(3 4.98034e-16 0)
(3 8.41174e-17 0)
(3 4.81043e-16 0)
(1.8638 0.137762 0)
(0.646902 0.182451 0)
(0.42815 0.191158 0)
(0.264158 0.202414 0)
(0.105155 0.244879 0)
(3 -2.16999e-17 0)
(3 -1.24742e-16 0)
(3 -2.0161e-16 0)
(3 1.22448e-16 0)
(3 5.38287e-16 0)
(1.93315 0.19555 0)
(0.66169 0.247056 0)
(0.436105 0.245556 0)
(0.274103 0.259019 0)
(0.11539 0.311637 0)
(3 -6.86843e-17 0)
(3 -3.33789e-16 0)
(3 -4.71438e-16 0)
(3 9.95104e-17 0)
(3 4.46825e-16 0)
(2.0366 0.249584 0)
(0.690557 0.313 0)
(0.456119 0.298123 0)
(0.291539 0.319415 0)
(0.116961 0.385701 0)
(3 -9.17185e-17 0)
(3 -2.20557e-18 0)
(3 -8.54592e-17 0)
(3 3.6016e-16 0)
(3 -1.24317e-16 0)
(2.17504 0.30052 0)
(0.733351 0.380003 0)
(0.489123 0.349255 0)
(0.332113 0.379157 0)
(0.148359 0.465911 0)
(3 -5.34526e-17 0)
(3 1.11564e-16 0)
(3 6.04965e-17 0)
(3 2.72673e-16 0)
(3 -2.92981e-16 0)
(2.37324 0.339574 0)
(0.803357 0.44601 0)
(0.541528 0.39792 0)
(0.382531 0.451208 0)
(0.155475 0.572724 0)
(3 2.86008e-16 0)
(3 2.32716e-16 0)
(3 4.2368e-16 0)
(3 5.50282e-16 0)
(3 2.6441e-16 0)
(2.65136 0.333252 0)
(0.91422 0.495654 0)
(0.622693 0.446695 0)
(0.474978 0.51874 0)
(0.222102 0.683078 0)
(3 2.34918e-17 0)
(3 2.07411e-16 0)
(3 2.41765e-16 0)
(3 3.11466e-16 0)
(3 -1.44736e-16 0)
(2.92325 0.238809 0)
(1.03936 0.536082 0)
(0.723352 0.47788 0)
(0.581691 0.592916 0)
(0.313369 0.880635 0)
(3 -1.47181e-16 0)
(3 1.56506e-16 0)
(3 3.97144e-17 0)
(3 5.20489e-17 0)
(3 -3.6349e-16 0)
(1.84999 0.0125569 0)
(0.692015 0.0220897 0)
(0.488522 0.029132 0)
(0.312086 0.0304715 0)
(0.125493 0.0365404 0)
(3 -1.28664e-16 0)
(3 1.25673e-16 0)
(3 -1.07406e-16 0)
(3 6.26238e-17 0)
(3 -3.12308e-16 0)
(1.83612 0.041585 0)
(0.67163 0.0707719 0)
(0.465296 0.0831755 0)
(0.295234 0.0902222 0)
(0.118324 0.110218 0)
(3 3.17984e-16 0)
(3 1.55231e-16 0)
(3 3.50247e-16 0)
(3 2.7249e-16 0)
(3 3.15048e-16 0)
(1.83422 0.0825768 0)
(0.652428 0.122724 0)
(0.440601 0.136508 0)
(0.275065 0.146084 0)
(0.112791 0.179036 0)
(3 2.99065e-16 0)
(3 3.82042e-16 0)
(3 1.02246e-15 0)
(3 6.31552e-16 0)
(3 3.18066e-16 0)
(1.8638 0.137762 0)
(0.646902 0.182451 0)
(0.42815 0.191158 0)
(0.264158 0.202414 0)
(0.105155 0.244879 0)
(3 -2.22694e-16 0)
(3 -3.63448e-16 0)
(3 -1.2995e-16 0)
(3 1.08795e-16 0)
(3 6.81129e-16 0)
(1.93315 0.19555 0)
(0.66169 0.247056 0)
(0.436105 0.245556 0)
(0.274103 0.259019 0)
(0.11539 0.311637 0)
(3 -1.92463e-16 0)
(3 -2.10659e-16 0)
(3 -6.35171e-16 0)
(3 -2.21863e-16 0)
(3 6.73507e-16 0)
(2.0366 0.249584 0)
(0.690557 0.313 0)
(0.456119 0.298123 0)
(0.291539 0.319415 0)
(0.116961 0.385701 0)
(3 -6.44911e-17 0)
(3 -8.27586e-17 0)
(3 -2.62973e-16 0)
(3 2.08966e-16 0)
(3 -3.16129e-16 0)
(2.17504 0.30052 0)
(0.733351 0.380003 0)
(0.489123 0.349255 0)
(0.332113 0.379157 0)
(0.148359 0.465911 0)
(3 -1.01873e-17 0)
(3 1.00532e-16 0)
(3 4.50492e-17 0)
(3 3.19394e-18 0)
(3 -7.84613e-16 0)
(2.37324 0.339574 0)
(0.803357 0.44601 0)
(0.541528 0.39792 0)
(0.382531 0.451208 0)
(0.155475 0.572724 0)
(3 1.70035e-16 0)
(3 1.41747e-16 0)
(3 6.62401e-16 0)
(3 6.22197e-16 0)
(3 5.23616e-16 0)
(2.65136 0.333252 0)
(0.91422 0.495654 0)
(0.622693 0.446695 0)
(0.474978 0.51874 0)
(0.222102 0.683078 0)
(3 1.39448e-16 0)
(3 -1.12931e-16 0)
(3 1.36312e-16 0)
(3 6.16035e-16 0)
(3 6.69593e-16 0)
(2.92325 0.238809 0)
(1.03936 0.536082 0)
(0.723352 0.47788 0)
(0.581691 0.592916 0)
(0.313369 0.880635 0)
(3 5.03836e-17 0)
(3 3.85266e-17 0)
(3 -2.1513e-16 0)
(3 -1.75077e-17 0)
(3 -1.07189e-16 0)
(1.84999 0.0125569 0)
(0.692015 0.0220897 0)
(0.488522 0.029132 0)
(0.312086 0.0304715 0)
(0.125493 0.0365404 0)
(3 7.21987e-17 0)
(3 6.49813e-17 0)
(3 -1.08683e-16 0)
(3 -2.86131e-16 0)
(3 -2.53134e-16 0)
(1.83612 0.041585 0)
(0.67163 0.0707719 0)
(0.465296 0.0831755 0)
(0.295234 0.0902222 0)
(0.118324 0.110218 0)
(3 2.07352e-16 0)
(3 4.84256e-17 0)
(3 6.28013e-16 0)
(3 1.23241e-16 0)
(3 1.2453e-17 0)
(1.83422 0.0825768 0)
(0.652428 0.122724 0)
(0.440601 0.136508 0)
(0.275065 0.146084 0)
(0.112791 0.179036 0)
(3 7.32192e-17 0)
(3 5.14873e-17 0)
(3 5.74641e-16 0)
(3 8.81419e-16 0)
(3 8.95842e-16 0)
(1.8638 0.137762 0)
(0.646902 0.182451 0)
(0.42815 0.191158 0)
(0.264158 0.202414 0)
(0.105155 0.244879 0)
(3 -2.53423e-16 0)
(3 -2.60336e-16 0)
(3 -1.32947e-16 0)
(3 1.90296e-16 0)
(3 7.36347e-16 0)
(1.93315 0.19555 0)
(0.66169 0.247056 0)
(0.436105 0.245556 0)
(0.274103 0.259019 0)
(0.11539 0.311637 0)
(3 -7.32471e-17 0)
(3 9.86665e-18 0)
(3 -9.9342e-17 0)
(3 3.84122e-16 0)
(3 4.63978e-16 0)
(2.0366 0.249584 0)
(0.690557 0.313 0)
(0.456119 0.298123 0)
(0.291539 0.319415 0)
(0.116961 0.385701 0)
(3 1.47899e-16 0)
(3 -2.23404e-17 0)
(3 -2.95516e-17 0)
(3 -2.62601e-17 0)
(3 -4.26467e-16 0)
(2.17504 0.30052 0)
(0.733351 0.380003 0)
(0.489123 0.349255 0)
(0.332113 0.379157 0)
(0.148359 0.465911 0)
(3 -9.03782e-17 0)
(3 1.22545e-16 0)
(3 -5.39796e-17 0)
(3 -3.48565e-17 0)
(3 -5.60993e-16 0)
(2.37324 0.339574 0)
(0.803357 0.44601 0)
(0.541528 0.39792 0)
(0.382531 0.451208 0)
(0.155475 0.572724 0)
(3 9.0191e-17 0)
(3 1.17479e-16 0)
(3 6.8029e-16 0)
(3 1.33116e-15 0)
(3 3.99645e-16 0)
(2.65136 0.333252 0)
(0.91422 0.495654 0)
(0.622693 0.446695 0)
(0.474978 0.51874 0)
(0.222102 0.683078 0)
(3 1.96931e-16 0)
(3 -2.62154e-16 0)
(3 1.93332e-16 0)
(3 3.40618e-16 0)
(3 2.32727e-16 0)
(2.92325 0.238809 0)
(1.03936 0.536082 0)
(0.723352 0.47788 0)
(0.581691 0.592916 0)
(0.313369 0.880635 0)
(3 4.69793e-17 0)
(3 4.93905e-17 0)
(3 -4.63913e-16 0)
(3 -5.99533e-16 0)
(3 3.0367e-16 0)
(1.84999 0.0125569 0)
(0.692015 0.0220897 0)
(0.488522 0.029132 0)
(0.312086 0.0304715 0)
(0.125493 0.0365404 0)
(3 6.79257e-17 0)
(3 -2.9158e-16 0)
(3 5.99428e-16 0)
(3 -1.03633e-16 0)
(3 2.94371e-16 0)
(1.83612 0.041585 0)
(0.67163 0.0707719 0)
(0.465296 0.0831755 0)
(0.295234 0.0902222 0)
(0.118324 0.110218 0)
(3 2.43665e-16 0)
(3 -1.28744e-16 0)
(3 7.86967e-16 0)
(3 5.91219e-16 0)
(3 -1.67307e-17 0)
(1.83422 0.0825768 0)
(0.652428 0.122724 0)
(0.440601 0.136508 0)
(0.275065 0.146084 0)
(0.112791 0.179036 0)
(3 -9.17476e-17 0)
(3 -2.51498e-16 0)
(3 -3.60433e-16 0)
(3 4.98001e-16 0)
(3 1.02963e-15 0)
(1.8638 0.137762 0)
(0.646902 0.182451 0)
(0.42815 0.191158 0)
(0.264158 0.202414 0)
(0.105155 0.244879 0)
(3 -3.08476e-16 0)
(3 -5.43434e-16 0)
(3 -1.67304e-16 0)
(3 1.10064e-15 0)
(3 1.36715e-15 0)
(1.93315 0.19555 0)
(0.66169 0.247056 0)
(0.436105 0.245556 0)
(0.274103 0.259019 0)
(0.11539 0.311637 0)
(3 -6.03297e-16 0)
(3 3.7369e-16 0)
(3 2.82176e-16 0)
(3 6.79193e-16 0)
(3 5.73802e-16 0)
(2.0366 0.249584 0)
(0.690557 0.313 0)
(0.456119 0.298123 0)
(0.291539 0.319415 0)
(0.116961 0.385701 0)
(3 2.4049e-16 0)
(3 -3.98014e-17 0)
(3 3.23965e-16 0)
(3 8.27466e-16 0)
(3 8.08272e-16 0)
(2.17504 0.30052 0)
(0.733351 0.380003 0)
(0.489123 0.349255 0)
(0.332113 0.379157 0)
(0.148359 0.465911 0)
(3 6.70098e-16 0)
(3 -1.97472e-16 0)
(3 1.50752e-16 0)
(3 5.25059e-16 0)
(3 5.65688e-16 0)
(2.37324 0.339574 0)
(0.803357 0.44601 0)
(0.541528 0.39792 0)
(0.382531 0.451208 0)
(0.155475 0.572724 0)
(3 1.89301e-16 0)
(3 2.70729e-16 0)
(3 -1.19289e-16 0)
(3 3.05571e-16 0)
(3 1.20959e-15 0)
(2.65136 0.333252 0)
(0.91422 0.495654 0)
(0.622693 0.446695 0)
(0.474978 0.51874 0)
(0.222102 0.683078 0)
(3 -1.66564e-17 0)
(3 1.35181e-15 0)
(3 1.04036e-15 0)
(3 1.21762e-15 0)
(3 1.07365e-15 0)
(2.92325 0.238809 0)
(1.03936 0.536082 0)
(0.723352 0.47788 0)
(0.581691 0.592916 0)
(0.313369 0.880635 0)
(3 8.43662e-17 0)
(3 6.12751e-16 0)
(3 1.14756e-15 0)
(3 1.60952e-15 0)
(3 6.17425e-16 0)
(3.0378 0.0212381 0)
(1.36243 0.601937 0)
(0.828611 0.630517 0)
(0.763932 0.732936 0)
(0.814638 0.997345 0)
(3 -2.47622e-17 0)
(3 -3.31475e-16 0)
(3 -2.31317e-16 0)
(3 -1.19587e-16 0)
(3 -3.71155e-16 0)
(3.00056 0.000168038 0)
(2.33168 0.449418 0)
(1.10893 0.773417 0)
(0.988976 0.834694 0)
(1.19184 0.893736 0)
(3 -1.23955e-16 0)
(3 -6.91846e-17 0)
(3 -5.55591e-16 0)
(3 -5.67388e-16 0)
(3 -5.82429e-16 0)
(3 1.72065e-07 0)
(3.026 0.0490403 0)
(1.77632 0.738782 0)
(1.19182 0.901091 0)
(1.37598 0.902959 0)
(3 1.77769e-16 0)
(3 1.53977e-16 0)
(3 3.73197e-17 0)
(3 -2.39491e-16 0)
(3 -1.73304e-15 0)
(3 7.3492e-12 0)
(3.00168 0.00121785 0)
(2.87039 0.236822 0)
(1.69584 0.866713 0)
(1.462 0.941344 0)
(3 1.68383e-16 0)
(3 -7.77845e-16 0)
(3 -4.02397e-16 0)
(3 -5.68211e-16 0)
(3 4.43629e-16 0)
(3 -3.70647e-14 0)
(3 1.49447e-06 0)
(3.00489 0.0125676 0)
(2.71431 0.388106 0)
(1.75199 0.895332 0)
(3 -1.69573e-17 0)
(3 9.49629e-18 0)
(3 -1.67656e-16 0)
(3 -1.18503e-17 0)
(3 2.09833e-16 0)
(3 -5.37159e-14 0)
(3 1.55542e-10 0)
(3.00002 8.81432e-05 0)
(3.00716 0.0233837 0)
(2.47748 0.549101 0)
(3 5.36001e-16 0)
(3 3.72614e-17 0)
(3 -4.11768e-17 0)
(3 -3.72294e-16 0)
(3 7.54688e-16 0)
(3 -1.59453e-14 0)
(3 -2.45287e-14 0)
(3 3.73178e-08 0)
(3.00007 0.000348034 0)
(3.00278 0.0492139 0)
(3 -2.37687e-17 0)
(3 2.53357e-16 0)
(3 1.23868e-16 0)
(3 -8.417e-17 0)
(3 -2.23813e-16 0)
(3 -1.75329e-15 0)
(3 -1.16352e-14 0)
(3 3.10247e-12 0)
(3 3.59956e-07 0)
(3.00113 0.000514353 0)
(3 2.82657e-16 0)
(3 3.8756e-16 0)
(3 3.78594e-16 0)
(3 8.50265e-16 0)
(3 4.33456e-17 0)
(3 -1.94372e-16 0)
(3 -2.12875e-15 0)
(3 -7.45906e-16 0)
(3 4.77789e-11 0)
(3 7.3774e-07 0)
(3 1.36042e-17 0)
(3 3.56378e-17 0)
(3 -9.70526e-18 0)
(3 7.86149e-16 0)
(3 5.90544e-16 0)
(3 4.22174e-16 0)
(3 -2.36229e-16 0)
(3 -8.69441e-17 0)
(3 3.48728e-15 0)
(3 6.4594e-11 0)
(3 -1.54726e-16 0)
(3 -2.63506e-16 0)
(3 -1.68738e-16 0)
(3 1.19298e-17 0)
(3 1.3034e-16 0)
(3.0378 0.0212381 0)
(1.36243 0.601937 0)
(0.828611 0.630517 0)
(0.763932 0.732936 0)
(0.814638 0.997345 0)
(3 -3.37744e-17 0)
(3 -1.69437e-16 0)
(3 -1.84805e-16 0)
(3 -1.48452e-17 0)
(3 -2.14323e-16 0)
(3.00056 0.000168038 0)
(2.33168 0.449418 0)
(1.10893 0.773417 0)
(0.988976 0.834694 0)
(1.19184 0.893736 0)
(3 2.33861e-16 0)
(3 7.00369e-16 0)
(3 5.05831e-16 0)
(3 -4.26277e-17 0)
(3 -5.36393e-16 0)
(3 1.72065e-07 0)
(3.026 0.0490403 0)
(1.77632 0.738782 0)
(1.19182 0.901091 0)
(1.37598 0.902959 0)
(3 5.26142e-17 0)
(3 1.36189e-16 0)
(3 1.33057e-16 0)
(3 -6.76118e-17 0)
(3 -2.05544e-16 0)
(3 7.34942e-12 0)
(3.00168 0.00121785 0)
(2.87039 0.236822 0)
(1.69584 0.866713 0)
(1.462 0.941344 0)
(3 -1.18004e-16 0)
(3 -5.9553e-16 0)
(3 -4.94233e-16 0)
(3 -1.95214e-17 0)
(3 3.42727e-16 0)
(3 -3.67815e-14 0)
(3 1.49447e-06 0)
(3.00489 0.0125676 0)
(2.71431 0.388106 0)
(1.75199 0.895332 0)
(3 -9.78782e-17 0)
(3 -3.82782e-16 0)
(3 -4.77476e-16 0)
(3 -3.76662e-16 0)
(3 8.26721e-17 0)
(3 -5.3372e-14 0)
(3 1.55542e-10 0)
(3.00002 8.81432e-05 0)
(3.00716 0.0233837 0)
(2.47748 0.549101 0)
(3 7.57154e-17 0)
(3 2.84361e-17 0)
(3 -4.70067e-17 0)
(3 -1.56794e-16 0)
(3 5.52066e-17 0)
(3 -1.41102e-14 0)
(3 -2.16352e-14 0)
(3 3.73178e-08 0)
(3.00007 0.000348034 0)
(3.00278 0.0492139 0)
(3 1.14097e-17 0)
(3 1.72518e-16 0)
(3 4.08782e-16 0)
(3 2.70808e-16 0)
(3 4.83619e-17 0)
(3 -1.32346e-15 0)
(3 -1.0242e-14 0)
(3 3.10317e-12 0)
(3 3.59956e-07 0)
(3.00113 0.000514353 0)
(3 -4.17661e-17 0)
(3 1.52768e-16 0)
(3 2.20392e-16 0)
(3 2.59534e-16 0)
(3 4.60586e-16 0)
(3 6.17916e-16 0)
(3 -4.32244e-16 0)
(3 -3.53761e-16 0)
(3 4.7777e-11 0)
(3 7.3774e-07 0)
(3 3.83534e-17 0)
(3 4.98171e-17 0)
(3 1.47222e-17 0)
(3 3.46387e-16 0)
(3 4.23202e-16 0)
(3 5.583e-16 0)
(3 6.25577e-16 0)
(3 1.46396e-16 0)
(3 2.47868e-15 0)
(3 6.45926e-11 0)
(3 -1.83499e-16 0)
(3 -4.3547e-16 0)
(3 -3.1722e-16 0)
(3 4.92621e-17 0)
(3 5.55979e-18 0)
(3.0378 0.0212381 0)
(1.36243 0.601937 0)
(0.828611 0.630517 0)
(0.763932 0.732936 0)
(0.814638 0.997345 0)
(3 1.31665e-17 0)
(3 -1.08467e-16 0)
(3 -9.10153e-17 0)
(3 -9.61757e-18 0)
(3 -8.86247e-17 0)
(3.00056 0.000168038 0)
(2.33168 0.449418 0)
(1.10893 0.773417 0)
(0.988976 0.834694 0)
(1.19184 0.893736 0)
(3 2.71572e-16 0)
(3 8.41226e-16 0)
(3 5.72263e-16 0)
(3 1.0467e-16 0)
(3 -6.40903e-16 0)
(3 1.72065e-07 0)
(3.026 0.0490403 0)
(1.77632 0.738782 0)
(1.19182 0.901091 0)
(1.37598 0.902959 0)
(3 -2.37155e-17 0)
(3 1.28072e-16 0)
(3 7.01818e-17 0)
(3 -6.22163e-17 0)
(3 -2.00748e-16 0)
(3 7.34947e-12 0)
(3.00168 0.00121785 0)
(2.87039 0.236822 0)
(1.69584 0.866713 0)
(1.462 0.941344 0)
(3 -1.45668e-16 0)
(3 -4.92244e-16 0)
(3 -5.007e-16 0)
(3 -1.05755e-16 0)
(3 3.69286e-16 0)
(3 -3.68385e-14 0)
(3 1.49447e-06 0)
(3.00489 0.0125676 0)
(2.71431 0.388106 0)
(1.75199 0.895332 0)
(3 -4.82098e-17 0)
(3 -2.45813e-16 0)
(3 -3.10662e-16 0)
(3 -3.76772e-16 0)
(3 6.42582e-17 0)
(3 -5.32862e-14 0)
(3 1.55541e-10 0)
(3.00002 8.81432e-05 0)
(3.00716 0.0233837 0)
(2.47748 0.549101 0)
(3 5.18522e-17 0)
(3 1.91366e-17 0)
(3 5.44199e-17 0)
(3 -1.37959e-17 0)
(3 1.58771e-17 0)
(3 -1.41959e-14 0)
(3 -2.16713e-14 0)
(3 3.73178e-08 0)
(3.00007 0.000348034 0)
(3.00278 0.0492139 0)
(3 9.82531e-18 0)
(3 1.26118e-16 0)
(3 2.86918e-16 0)
(3 3.4362e-16 0)
(3 1.07112e-16 0)
(3 -1.03097e-15 0)
(3 -1.03244e-14 0)
(3 3.10304e-12 0)
(3 3.59956e-07 0)
(3.00113 0.000514353 0)
(3 -4.55072e-17 0)
(3 4.08642e-17 0)
(3 1.59477e-16 0)
(3 2.23661e-16 0)
(3 4.59531e-16 0)
(3 6.08584e-16 0)
(3 -4.37744e-16 0)
(3 -2.70644e-16 0)
(3 4.77775e-11 0)
(3 7.3774e-07 0)
(3 1.18839e-17 0)
(3 4.84351e-17 0)
(3 -1.73768e-17 0)
(3 2.6733e-16 0)
(3 4.01867e-16 0)
(3 5.0244e-16 0)
(3 5.86497e-16 0)
(3 2.3656e-16 0)
(3 2.55964e-15 0)
(3 6.45926e-11 0)
(3 -2.34332e-16 0)
(3 -3.1392e-16 0)
(3 -1.95259e-16 0)
(3 4.56942e-17 0)
(3 -1.24684e-17 0)
(3.0378 0.0212381 0)
(1.36243 0.601937 0)
(0.828611 0.630517 0)
(0.763932 0.732936 0)
(0.814638 0.997345 0)
(3 3.93161e-18 0)
(3 -1.89321e-16 0)
(3 -2.75172e-17 0)
(3 1.47497e-16 0)
(3 -2.52296e-17 0)
(3.00056 0.000168038 0)
(2.33168 0.449418 0)
(1.10893 0.773417 0)
(0.988976 0.834694 0)
(1.19184 0.893736 0)
(3 1.67408e-16 0)
(3 4.26627e-16 0)
(3 2.53348e-16 0)
(3 1.66423e-17 0)
(3 -6.35538e-16 0)
(3 1.72065e-07 0)
(3.026 0.0490403 0)
(1.77632 0.738782 0)
(1.19182 0.901091 0)
(1.37598 0.902959 0)
(3 -1.48324e-17 0)
(3 1.04255e-16 0)
(3 -6.65051e-18 0)
(3 -2.30428e-16 0)
(3 -2.33907e-16 0)
(3 7.3495e-12 0)
(3.00168 0.00121785 0)
(2.87039 0.236822 0)
(1.69584 0.866713 0)
(1.462 0.941344 0)
(3 -6.59328e-17 0)
(3 -2.50867e-16 0)
(3 -4.1688e-16 0)
(3 -1.59375e-16 0)
(3 1.53608e-16 0)
(3 -3.68519e-14 0)
(3 1.49447e-06 0)
(3.00489 0.0125676 0)
(2.71431 0.388106 0)
(1.75199 0.895332 0)
(3 1.76192e-17 0)
(3 -2.74391e-17 0)
(3 -1.80281e-16 0)
(3 -6.7981e-17 0)
(3 1.09338e-16 0)
(3 -5.34946e-14 0)
(3 1.55542e-10 0)
(3.00002 8.81432e-05 0)
(3.00716 0.0233837 0)
(2.47748 0.549101 0)
(3 5.56341e-17 0)
(3 6.89399e-17 0)
(3 1.34623e-16 0)
(3 9.44477e-17 0)
(3 1.98481e-16 0)
(3 -1.40644e-14 0)
(3 -2.15334e-14 0)
(3 3.73178e-08 0)
(3.00007 0.000348034 0)
(3.00278 0.0492139 0)
(3 -3.6484e-17 0)
(3 1.4074e-17 0)
(3 1.10661e-16 0)
(3 1.08648e-16 0)
(3 9.63009e-17 0)
(3 -9.12149e-16 0)
(3 -1.02266e-14 0)
(3 3.10323e-12 0)
(3 3.59956e-07 0)
(3.00113 0.000514353 0)
(3 -3.62432e-17 0)
(3 7.25532e-18 0)
(3 1.86548e-16 0)
(3 2.8531e-16 0)
(3 3.63909e-16 0)
(3 4.70659e-16 0)
(3 -5.88463e-16 0)
(3 -1.93614e-16 0)
(3 4.77775e-11 0)
(3 7.3774e-07 0)
(3 1.41785e-17 0)
(3 1.72481e-17 0)
(3 4.42853e-17 0)
(3 3.00898e-16 0)
(3 4.2121e-16 0)
(3 4.41143e-16 0)
(3 4.85006e-16 0)
(3 2.08825e-16 0)
(3 2.4098e-15 0)
(3 6.45926e-11 0)
(3 -1.94939e-16 0)
(3 -1.01081e-16 0)
(3 -1.21663e-16 0)
(3 -7.25282e-17 0)
(3 -1.15753e-16 0)
(3.0378 0.0212381 0)
(1.36243 0.601937 0)
(0.828611 0.630517 0)
(0.763932 0.732936 0)
(0.814638 0.997345 0)
(3 -7.15798e-17 0)
(3 -1.91744e-16 0)
(3 5.27486e-17 0)
(3 1.94737e-16 0)
(3 3.83996e-17 0)
(3.00056 0.000168038 0)
(2.33168 0.449418 0)
(1.10893 0.773417 0)
(0.988976 0.834694 0)
(1.19184 0.893736 0)
(3 6.32323e-17 0)
(3 8.33688e-17 0)
(3 -3.03342e-17 0)
(3 -1.7914e-16 0)
(3 -4.60533e-16 0)
(3 1.72065e-07 0)
(3.026 0.0490403 0)
(1.77632 0.738782 0)
(1.19182 0.901091 0)
(1.37598 0.902959 0)
(3 3.44497e-17 0)
(3 1.32814e-16 0)
(3 -8.67587e-17 0)
(3 -2.29876e-16 0)
(3 -2.93355e-16 0)
(3 7.34948e-12 0)
(3.00168 0.00121785 0)
(2.87039 0.236822 0)
(1.69584 0.866713 0)
(1.462 0.941344 0)
(3 -4.72792e-18 0)
(3 -1.20306e-16 0)
(3 -3.35582e-16 0)
(3 -1.77479e-16 0)
(3 1.97927e-16 0)
(3 -3.68417e-14 0)
(3 1.49447e-06 0)
(3.00489 0.0125676 0)
(2.71431 0.388106 0)
(1.75199 0.895332 0)
(3 1.03359e-16 0)
(3 5.8011e-17 0)
(3 1.71352e-17 0)
(3 1.00877e-16 0)
(3 1.06328e-16 0)
(3 -5.3659e-14 0)
(3 1.55542e-10 0)
(3.00002 8.81432e-05 0)
(3.00716 0.0233837 0)
(2.47748 0.549101 0)
(3 3.46113e-17 0)
(3 7.45014e-17 0)
(3 2.32111e-16 0)
(3 2.49837e-16 0)
(3 1.81269e-16 0)
(3 -1.36509e-14 0)
(3 -2.15671e-14 0)
(3 3.73178e-08 0)
(3.00007 0.000348034 0)
(3.00278 0.0492139 0)
(3 -7.93585e-17 0)
(3 -3.99735e-17 0)
(3 -9.44802e-18 0)
(3 -1.67619e-16 0)
(3 2.19862e-17 0)
(3 -9.7931e-16 0)
(3 -1.00583e-14 0)
(3 3.10325e-12 0)
(3 3.59956e-07 0)
(3.00113 0.000514353 0)
(3 -1.56336e-17 0)
(3 3.10216e-17 0)
(3 1.38677e-16 0)
(3 1.60687e-16 0)