/*--------------------------------*- C++ -*----------------------------------*\
  =========                 |
  \\      /  F ield         | OpenFOAM: The Open Source CFD Toolbox
   \\    /   O peration     | Website:  https://openfoam.org
    \\  /    A nd           | Version:  6.0
     \\/     M anipulation  |
\*---------------------------------------------------------------------------*/
FoamFile
{
    version     2.0;
    format      ascii;
    class       volScalarField;
    location    "1.00083";
    object      p;
}
// * * * * * * * * * * * * * * * * * * * * * * * * * * * * * * * * * * * * * //

dimensions      [1 -1 -2 0 0 0 0];

internalField   nonuniform List<scalar> 
2700
(
1
1
1
1
1
1
1
1
1
1
1
1
1
1
1
1
1.42245
7.89207
10.7573
10.9565
11.1245
11.2216
11.2542
11.5566
11.9673
12.0642
11.6835
11.2962
11.4812
12.0718
1
1
1
1
1
1
1
1
1
1
1
1
1
1
1
1
1.42765
7.87567
10.727
10.8738
11.1047
11.2793
11.3685
11.5824
11.9666
12.1816
12.0956
11.943
11.8518
12.0097
1
1
1
1
1
1
1
1
1
1
1
1
1
1
1
1
1.42339
7.83216
10.7138
10.804
10.998
11.2175
11.457
11.6412
11.7856
12.0354
12.3302
12.5104
12.3515
12.0064
1
1
1
1
1
1
1
1
1
1
1
1
1
1
1
1
1.41378
7.77805
10.6948
10.7289
10.8884
11.2454
11.6999
11.8152
11.6944
11.6807
12.0758
12.5805
12.534
12.3124
1
1
1
1
1
1
1
1
1
1
1
1
1
1
1
1
1.39751
7.71292
10.6772
10.679
10.8997
11.2746
11.7116
11.815
11.5697
11.4236
11.6629
12.0926
12.4938
12.626
1
1
1
1
1
1
1
1
1
1
1
1
1
1
1
1
1.37126
7.63171
10.6584
10.7078
10.9767
11.3028
11.5643
11.7334
11.6126
11.4107
11.4207
11.6861
12.2477
12.5888
1
1
1
1
1
1
1
1
1
1
1
1
1
1
1
1
1.33043
7.52995
10.62
10.7535
11.0426
11.2693
11.3679
11.5645
11.7554
11.7347
11.6845
11.7211
11.9963
12.2258
1
1
1
1
1
1
1
1
1
1
1
1
1
1
1
1
1.27865
7.397
10.6182
10.7464
11.0606
11.2487
11.2542
11.318
11.6393
12.124
12.3674
12.1956
11.8263
11.6003
1
1
1
1
1
1
1
1
1
1
1
1
1
1
1
1
1.22016
7.23662
10.6564
10.6562
10.9402
11.2937
11.3492
11.22
11.5499
12.2441
12.7075
12.5994
11.7104
11.1866
1
1
1
1
1
1
1
1
1
1
1
1
1
1
1
1
1.15622
7.0623
10.698
10.6211
10.7816
11.1841
11.4879
11.4262
11.5305
11.9356
12.4285
12.6593
11.7058
11.1151
1
1
1
1
1
1
1
1
1
1
1
1
1
1
1
1
1.08288
6.87084
10.7193
10.6895
10.9011
11.2171
11.4865
11.6821
11.6671
11.7581
11.8379
11.5993
11.7985
11.6896
1
1
1
1
1
1
1
1
1
1
1
1
1
1
1
1
1.01593
6.67227
10.6639
10.7946
10.9246
11.0399
11.3128
11.8047
11.9887
11.6926
11.1795
10.8373
11.5963
12.8478
1
1
1
1
1
1
1
1
1
1
1
1
1
1
1
1
1.00054
6.43083
10.6001
10.8085
10.9021
10.919
11.2075
11.7523
12.1582
11.7449
10.8015
10.6543
11.6812
13.2385
1
1
1
1
1
1
1
1
1
1
1
1
1
1
1
1
1
6.18024
10.5638
10.6441
10.7985
10.9876
11.3878
11.7681
11.8789
11.4304
11.0882
11.2524
12.2972
12.8781
1
1
1
1
1
1
1
1
1
1
1
1
1
1
1
1
1
5.90798
10.5415
10.4118
10.5752
11.1666
11.5794
11.5292
11.1905
11.0769
11.7752
12.6025
12.3819
11.9479
1
1
1
1
1
1
1
1
1
1
1
1
1
1
1
1
1
5.63731
10.4462
10.4903
10.8849
11.3112
11.4756
11.1968
10.6932
10.9928
12.3956
12.88
12.1967
11.0574
1
1
1
1
1
1
1
1
1
1
1
1
1
1
1
1
1
5.39926
10.4287
10.9386
11.0932
11.1319
10.9944
10.7507
10.8035
11.6805
12.3393
12.5237
11.4964
10.7466
1
1
1
1
1
1
1
1
1
1
1
1
1
1
1
1
1
5.19426
10.5454
11.0599
11.091
10.791
10.5681
10.6706
11.4393
12.1332
12.0566
11.8224
10.9628
10.7821
1
1
1
1
1
1
1
1
1
1
1
1
1
1
1
1
1
4.90133
10.5697
10.9192
10.6463
10.5074
10.3985
10.7861
12.0003
12.2031
11.6555
10.3834
10.8623
11.6072
1
1
1
1
1
1
1
1
1
1
1
1
1
1
1
1
1
4.50922
10.3867
10.4732
10.3387
10.4394
10.7544
11.7248
11.8616
11.8155
10.5701
10.2118
10.8387
12.4125
1
1
1
1
1
1
1
1
1
1
1
1
1
1
1
1
1
4.06695
9.95771
10.1236
10.1994
10.6625
11.7072
11.8031
11.6338
10.8267
10.1758
10.0286
10.9112
12.6582
1
1
1
1
1
1
1
1
1
1
1
1
1
1
1
1
1
3.66643
9.44593
10.0253
10.5704
11.4721
11.6883
11.7419
11.1201
10.3584
10.1706
10.542
11.6058
12.3806
1
1
1
1
1
1
1
1
1
1
1
1
1
1
1
1
1
3.35464
9.09732
10.4421
11.2362
11.4113
11.4228
11.0714
10.2269
10.3876
11.3359
12.0639
11.7326
10.6421
1
1
1
1
1
1
1
1
1
1
1
1
1
1
1
1
1
3.24311
9.32574
10.9853
11.1839
11.2831
10.8328
10.0936
9.93956
10.3161
12.1517
12.5214
11.4473
9.90411
1
1
1
1
1
1
1
1
1
1
1
1
1
1
1
1
1
3.00204
9.64799
11.1093
10.9768
10.5766
10.038
9.99906
10.0857
11.2308
11.9402
12.2752
10.6738
9.5576
1
1
1
1
1
1
1
1
1
1
1
1
1
1
1
1
1
2.53384
9.48509
11.1073
10.4529
9.79525
9.82213
10.1256
11.2753
11.8577
11.3773
11.2733
10.1493
9.21206
1
1
1
1
1
1
1
1
1
1
1
1
1
1
1
1
1
2.06404
8.88201
10.6879
9.64182
9.55598
9.81521
11.1069
12.0343
11.6498
10.6051
9.23959
9.97145
11.0709
1
1
1
1
1
1
1
1
1
1
1
1
1
1
1
1
1
1.6737
8.1496
9.91541
9.31765
9.60864
10.8188
11.8422
11.809
11.3763
9.40027
8.84656
9.8063
11.7751
1
1
1
1
1
1
1
1
1
1
1
1
1
1
1
1
1
1.40358
7.50939
9.71128
9.50768
10.8631
11.6554
11.6898
11.5979
10.4192
9.00132
8.54308
9.40892
11.5474
1
1
1
1
1
1
1
1
1
1
1
1
1
1
1
1
1
1.23326
7.36102
10.0105
10.8511
11.2773
11.3597
11.2262
10.5342
9.79495
9.06647
8.6266
9.24472
10.3591
1
1
1
1
1
1
1
1
1
1
1
1
1
1
1
1
1
1.01992
6.33186
10.4013
10.4437
10.4254
10.2436
9.919
9.60094
10.0391
10.7399
10.5157
8.93919
6.0942
1
1
1
1
1
1
1
1
1
1
1
1
1
1
1
1
1
1.00009
3.7452
9.46418
9.94591
9.91522
9.87312
9.93178
10.0984
9.94536
9.56396
8.95616
7.86458
6.06878
1
1
1
1
1
1
1
1
1
1
1
1
1
1
1
1
1
1
1.59934
7.84813
9.8636
9.86822
9.8645
9.8106
9.65424
9.31879
8.76088
8.10867
7.24594
6.10402
1
1
1
1
1
1
1
1
1
1
1
1
1
1
1
1
1
1
1.0215
5.26134
9.51895
9.62932
9.53723
9.38206
9.1522
8.85901
8.4851
7.92551
6.94426
5.96493
1
1
1
1
1
1
1
1
1
1
1
1
1
1
1
1
1
1
0.999994
2.18032
8.21554
9.38094
9.20133
9.08569
8.87898
8.57436
8.19336
7.58272
6.76596
5.90257
1
1
1
1
1
1
1
1
1
1
1
1
1
1
1
1
1
1
0.999999
1.06592
5.2343
9.00544
9.03621
8.83311
8.58435
8.28797
7.91293
7.37415
6.69097
5.98453
1
1
1
1
1
1
1
1
1
1
1
1
1
1
1
1
1
1
1
1.00023
1.75308
7.51027
8.94039
8.64703
8.38485
8.07388
7.71791
7.24431
6.66813
6.07858
1
1
1
1
1
1
1
1
1
1
1
1
1
1
1
1
1
1
1
1
1.02673
4.0234
8.24763
8.41124
8.1201
7.84529
7.49439
7.07272
6.60212
6.11078
1
1
1
1
1
1
1
1
1
1
1
1
1
1
1
1
1
1
1
1
1.00007
1.36475
5.8378
8.35309
8.07525
7.76383
7.38523
6.96945
6.55193
6.12618
1
1
1
1
1
1
1
1
1
1
1
1
1
1
1
1
1
1
1
1
1
1.00648
2.09516
6.79831
8.05391
7.6751
7.32978
6.95417
6.57332
6.17495
1
1
1
1
1
1
1
1
1
1
1
1
1
1
1
1
1
1
1
1
1
1.00002
1.05332
2.99818
7.19364
7.69867
7.30015
6.96256
6.59158
6.19238
1
1
1
1
1
1
1
1
1
1
1
1
1
1
1
1
1
1
1
1
1
1
1.00034
1.17115
3.91443
7.11899
7.39379
6.99815
6.64446
6.26433
1
1
1
1
1
1
1
1
1
1
1
1
1
1
1
1
1
1
1
1
1
1
1
1.00204
1.37754
4.47751
6.95778
7.06289
6.66206
6.32731
1
1
1
1
1
1
1
1
1
1
1
1
1
1
1
1
1
1
1
1
1
1
1
1
1.00775
1.59815
4.71012
6.74296
6.74649
6.4011
1
1
1
1
1
1
1
1
1
1
1
1
1
1
1
1
1
1
1
1
1
1
1
1
1.00002
1.01802
1.74287
4.72626
6.42071
6.50595
1
1
1
1
1
1
1
1
1
1
1
1
1
1
1
1
1
1
1
1
1
1
1
1
1
1.00008
1.02761
1.79753
4.48739
6.24246
1
1
1
1
1
1
1
1
1
1
1
1
1
1
1
1
1
1
1
1
1
1
1
1
1
1
1.00015
1.03262
1.72977
4.47984
1
1
1
1
1
1
1
1
1
1
1
1
1
1
1
1
1
1
1
1
1
1
1
1
1
1
1
1.00022
1.02735
1.83287
1
1
1
1
1
1
1
1
1
1
1
1
1
1
1
1
1
1
1
1
1
1
1
1
1
1
1
1
1.00017
1.03653
1
1
1
1
1
1
1
1
1
1
1
1
1
1
1
1
1
1
1
1
1
1
1
1
1
1
1
1
1
1.00011
1
1
1
1
1
1
1
1
1
1
1
1
1
1
1
1
1
1
1
1
1
1
1
1
1
1
1
1
1
1
1
1
1
1
1
1
1
1
1
1
1
1
1
1
1
1
1
1
1
1
1
1
1
1
1
1
1
1
1
1
1
1
1
1
1
1
1
1
1
1
1
1
1
1
1
1
1
1
1
1
1
1
1
1
1
1
1
1
1
1
1
1
1
1
1
1
1
1
1
1
1
1
1
1
1
1
1
1
1
1
1
1
1
1
1
1
1
1
1
1
1
1
1
1
1
1
1
1
1
1
1
1
1
1
1
1
1
1
1
1
1
1
1
1
1
1
1
1
1
1
1
1
1
1
1
1
1
1
1
1
1
1
1
1
1
1
1
1
1
1
1
1
1
1
1
1
1
1
1
1
1
1
1
1
1
1
1
1
1
1
1
1
1
1
1
1
1
1
1
1
1
1
1
1
1
1
1
1
1
1
1
1
1
1
1
1
1
1
1
1
1
1
1
1
1
1
1
1
1
1
1
1
1
1
1
1
1
1
1
1
1
1
1
1
1
1
1
1
1
1
1
1
1
1
1
1
1
1
1
1
1
1
1
1
1
1
1
1
1
1
1
1
1
1
1
1
1
1
1
1
1
1
1
1
1
1
1
1
1
1
1
1
1
1
1
1
1
1
1
1
0.904392
0.659183
0.811326
0.998346
1.08421
1.13659
1.13587
1.13229
1.11888
1.0948
1.07134
1.03348
0.980646
0.938816
0.912247
0.895198
0.873991
0.855186
0.839218
0.82888
0.82798
0.830292
0.833601
0.8421
0.856558
0.867228
0.871731
0.878072
0.886389
0.909486
2.38492
1.05741
0.854808
0.923904
1.02228
1.09893
1.10849
1.11696
1.11105
1.0936
1.07667
1.03748
0.985931
0.943855
0.909352
0.885927
0.86712
0.852557
0.842817
0.837316
0.837176
0.83494
0.836192
0.840555
0.84915
0.860832
0.874924
0.888252
0.89911
0.922222
3.08609
1.36878
0.880959
0.897847
0.979209
1.07836
1.08889
1.08959
1.0926
1.08455
1.07616
1.03924
0.991682
0.955147
0.921996
0.893152
0.86811
0.850969
0.841144
0.837857
0.841573
0.847752
0.85069
0.854211
0.857786
0.865794
0.877425
0.890978
0.903527
0.928211
3.60276
1.78167
1.17234
0.934295
0.932252
0.998757
1.06744
1.08432
1.08297
1.07762
1.06727
1.03609
0.994139
0.958629
0.924799
0.89418
0.868539
0.850844
0.841597
0.837503
0.836318
0.840668
0.845239
0.848158
0.851442
0.860346
0.870351
0.882719
0.896573
0.92042
4.03623
2.19648
1.49005
1.01455
0.949244
0.968729
1.05027
1.10259
1.10717
1.09111
1.06542
1.02794
0.987419
0.950875
0.917115
0.883526
0.857853
0.844691
0.839705
0.839857
0.841268
0.839812
0.842724
0.842144
0.843054
0.854437
0.867022
0.882314
0.898143
0.923063
4.33737
2.64588
1.78597
1.25446
1.01277
0.997569
1.02788
1.0647
1.08182
1.08396
1.06748
1.03172
0.992877
0.954753
0.92021
0.882466
0.853708
0.83945
0.834341
0.83571
0.838383
0.834586
0.835885
0.833297
0.835408
0.846077
0.857532
0.871521
0.88615
0.913103
4.57296
3.02989
2.07047
1.50234
1.09148
1.04404
1.02003
1.01655
1.03847
1.05162
1.04527
1.03174
1.00994
0.978554
0.943446
0.903927
0.867744
0.845057
0.834319
0.833102
0.832435
0.824129
0.823505
0.829224
0.842396
0.866352
0.881182
0.887826
0.890239
0.903245
4.75724
3.30763
2.33579
1.7264
1.27173
1.11893
1.02432
0.974114
0.989853
1.01049
1.01991
1.01384
0.997472
0.971368
0.939008
0.899969
0.864809
0.843755
0.835654
0.835906
0.834901
0.830495
0.841865
0.88236
0.955537
1.04808
1.08305
1.07699
1.03558
0.982481
4.91791
3.51607
2.56921
1.94158
1.47065
1.18824
1.05972
0.971535
0.949921
0.965934
0.989415
0.993808
0.98149
0.957927
0.927126
0.887051
0.852843
0.836814
0.832929
0.840515
0.854653
0.901672
1.02092
1.18125
1.32368
1.41817
1.45766
1.44808
1.41885
1.29602
5.0583
3.69291
2.77683
2.15546
1.66174
1.30869
1.15288
1.00578
0.931889
0.93449
0.960223
0.970302
0.957289
0.935801
0.907939
0.877011
0.847162
0.832343
0.835285
0.86635
0.985865
1.21984
1.4417
1.56854
1.60785
1.61534
1.63235
1.63731
1.65919
1.60041
5.15939
3.85551
2.96118
2.36192
1.85175
1.45393
1.23632
1.0546
0.926731
0.932048
0.947777
0.931495
0.916319
0.90456
0.892233
0.87381
0.848537
0.841509
0.887402
1.08397
1.40352
1.62058
1.69805
1.69704
1.66
1.63449
1.62876
1.63584
1.66057
1.65309
5.29503
4.01909
3.14975
2.55264
2.02294
1.59245
1.34422
1.15723
0.960141
0.942774
0.93493
0.88975
0.874138
0.876568
0.884166
0.879766
0.869538
0.925871
1.19813
1.58168
1.76707
1.76853
1.73145
1.68702
1.63127
1.59334
1.57211
1.5673
1.57672
1.5928
5.43454
4.20371
3.34641
2.73892
2.18795
1.71852
1.45364
1.26022
1.03372
0.958801
0.938382
0.885477
0.86558
0.869086
0.880168
0.890241
0.964508
1.29544
1.71696
1.90506
1.85452
1.77064
1.71076
1.63927
1.56579
1.52714
1.49568
1.48192
1.48613
1.52267
5.56754
4.41057
3.54289
2.90448
2.33954
1.84068
1.55886
1.36164
1.15145
1.00945
0.961841
0.897436
0.861824
0.86333
0.878561
0.954885
1.31912
1.78432
1.97739
1.92525
1.82449
1.71532
1.61888
1.54152
1.48631
1.4586
1.4358
1.42747
1.43878
1.47794
5.68336
4.63037
3.72982
3.03837
2.47349
1.96006
1.65251
1.46496
1.26499
1.07592
0.992229
0.917373
0.869992
0.865749
0.911974
1.24938
1.78089
1.99295
1.95845
1.87946
1.72239
1.60451
1.52
1.46579
1.42378
1.39743
1.38884
1.38785
1.38867
1.37851
5.85916
4.83937
3.88329
3.14951
2.60406
2.09674
1.76223
1.56948
1.36368
1.15157
1.04866
0.966454
0.902958
0.912536
1.15678
1.74429
1.978
1.97625
1.90386
1.76702
1.60072
1.50668
1.44793
1.40497
1.37652
1.35503
1.34872
1.34521
1.3444
1.32576
5.82796
5.04918
3.98807
3.23876
2.73504
2.23397
1.8697
1.66994
1.46491
1.25143
1.11618
1.0065
0.944444
1.09676
1.68131
2.00797
2.00943
1.92371
1.77898
1.63848
1.51467
1.43663
1.39721
1.37216
1.35061
1.31891
1.30905
1.3066
1.31144
1.29457
5.45527
5.05109
4.13302
3.35316
2.87554
2.39115
2.00357
1.77308
1.55923
1.34105
1.17215
1.07276
1.12604
1.60238
2.09487
2.08516
1.98144
1.80853
1.65859
1.53924
1.44858
1.39871
1.37447
1.35281
1.34284
1.31101
1.28523
1.26014
1.25034
1.23828
4.42211
4.80966
4.23608
3.50495
3.01313
2.54008
2.13576
1.87808
1.65678
1.42666
1.23577
1.22034
1.61394
2.20158
2.25841
2.11685
1.90222
1.70465
1.58255
1.4761
1.4154
1.37547
1.35133
1.34501
1.30045
1.24833
1.21878
1.21159
1.19518
1.16662
3.44486
4.81183
4.3892
3.70475
3.16146
2.68292
2.26859
1.98178
1.74696
1.48696
1.36972
1.64494
2.40611
2.55727
2.36335
2.08616
1.85258
1.64697
1.55047
1.47168
1.3874
1.32464
1.2787
1.26807
1.24018
1.18806
1.16595
1.15184
1.12171
1.10406
2.19867
4.64806
4.52398
3.91314
3.30555
2.82016
2.39667
2.08955
1.81003
1.57251
1.69582
2.51075
2.98002
2.74832
2.38625
2.07883
1.83688
1.67741
1.56726
1.47068
1.37101
1.27695
1.2198
1.20481
1.17311
1.12151
1.10088
1.078
1.04696
1.04761
1.35112
4.0491
4.54632
4.05653
3.4441
2.9515
2.51872
2.17761
1.87266
1.8402
2.58396
3.37708
3.20126
2.85921
2.44775
2.12023
1.87067
1.69644
1.56144
1.44427
1.34015
1.23528
1.17204
1.14001
1.09561
1.04908
1.03167
1.01713
0.99227
1.00499
1.02748
3.26517
4.37751
4.13385
3.6159
3.10407
2.65661
2.24154
2.05833
2.60461
3.64155
3.66276
3.29329
2.87411
2.49701
2.19166
1.92698
1.72595
1.5642
1.42565
1.30836
1.20207
1.145
1.09578
1.04156
1.0011
0.983214
0.976541
0.960316
0.978993
1.00044
2.23258
4.15411
4.23562
3.76829
3.23382
2.7153
2.34188
2.64683
3.93676
4.3198
3.95817
3.41698
2.90429
2.52355
2.24148
1.98629
1.77043
1.58723
1.43506
1.30216
1.19468
1.13135
1.07369
1.01583
0.978625
0.957319
0.9464
0.930778
0.944741
1
1.40818
3.6143
4.16071
3.85115
3.35838
2.76403
2.77265
4.04613
4.94213
4.54692
4.00492
3.43006
2.91752
2.54119
2.26018
2.01446
1.79523
1.60168
1.43119
1.30151
1.2026
1.13264
1.07009
1.01395
0.974938
0.949414
0.923724
0.89955
0.901901
1
1.06584
2.73793
4.00913
3.95664
3.46401
3.11693
4.09463
5.7137
5.41251
4.67696
3.95161
3.39285
2.93369
2.57817
2.29503
2.04194
1.81646
1.61869
1.44926
1.30844
1.24835
1.17713
1.10034
1.03925
0.995533
0.957764
0.910443
0.877602
0.869163
1
1.00507
1.77539
3.69415
3.91949
3.60432
4.28616
6.14135
6.22631
5.52138
4.70296
4.00271
3.51849
3.09443
2.66954
2.33166
2.08792
1.88589
1.69853
1.52074
1.35497
1.23133
1.14212
1.06771
1.01252
0.967027
0.92619
0.88878
0.859853
0.844557
1
1.0002
1.18917
3.04046
3.6212
4.37741
6.92179
7.48484
6.6463
5.58614
4.74431
4.06846
3.51576
3.04232
2.66009
2.34861
2.09957
1.87894
1.68045
1.50447
1.36285
1.2401
1.14232
1.06592
1.0107
0.964597
0.922792
0.883622
0.852551
0.83564
1
1
1.0228
2.04992
3.70951
6.59127
8.16216
7.79869
6.81407
5.69763
4.81805
4.11963
3.54001
3.09397
2.74165
2.44523
2.17921
1.93806
1.72444
1.54509
1.40315
1.28043
1.17907
1.10099
1.04021
0.98803
0.941436
0.898311
0.862194
0.841263
1
1
1.00139
1.34678
4.66535
9.17589
9.78753
8.12954
6.81738
5.74266
4.83932
4.09746
3.47913
2.99204
2.64267
2.35775
2.0975
1.86318
1.65265
1.4809
1.34287
1.22565
1.1295
1.05489
0.998369
0.949421
0.903459
0.861477
0.827927
0.810024
)
;

boundaryField
{
    inlet
    {
        type            fixedValue;
        value           uniform 1;
    }
    outlet
    {
        type            zeroGradient;
    }
    top
    {
        type            symmetryPlane;
    }
    bottom
    {
        type            symmetryPlane;
    }
    step
    {
        type            zeroGradient;
    }
    defaultFaces
    {
        type            empty;
    }
}


// ************************************************************************* //
