/*--------------------------------*- C++ -*----------------------------------*\
  =========                 |
  \\      /  F ield         | OpenFOAM: The Open Source CFD Toolbox
   \\    /   O peration     | Website:  https://openfoam.org
    \\  /    A nd           | Version:  6.0
     \\/     M anipulation  |
\*---------------------------------------------------------------------------*/
FoamFile
{
    version     2.0;
    format      ascii;
    class       volScalarField;
    location    "1.00083";
    object      rho;
}
// * * * * * * * * * * * * * * * * * * * * * * * * * * * * * * * * * * * * * //

dimensions      [1 -3 0 0 0 0 0];

internalField   nonuniform List<scalar> 
2700
(
1.39997
1.39997
1.39997
1.39997
1.39997
1.39997
1.39997
1.39997
1.39997
1.39997
1.39997
1.39997
1.39997
1.39997
1.39997
1.39997
1.63127
4.50485
5.52757
5.54162
5.56194
5.56795
5.56546
5.67122
5.81764
5.84313
5.67396
5.46437
5.44139
5.58934
1.39997
1.39997
1.39997
1.39997
1.39997
1.39997
1.39997
1.39997
1.39997
1.39997
1.39997
1.39997
1.39997
1.39997
1.39997
1.39997
1.63293
4.49529
5.51577
5.51109
5.55349
5.58727
5.60564
5.68109
5.81815
5.88394
5.81822
5.68718
5.56323
5.56948
1.39997
1.39997
1.39997
1.39997
1.39997
1.39997
1.39997
1.39997
1.39997
1.39997
1.39997
1.39997
1.39997
1.39997
1.39997
1.39997
1.62934
4.47376
5.50868
5.4849
5.51338
5.56347
5.63664
5.70265
5.75606
5.83495
5.89692
5.87705
5.7308
5.56865
1.39997
1.39997
1.39997
1.39997
1.39997
1.39997
1.39997
1.39997
1.39997
1.39997
1.39997
1.39997
1.39997
1.39997
1.39997
1.39997
1.62348
4.45036
5.49944
5.45719
5.47303
5.57213
5.72193
5.76367
5.72459
5.71289
5.8084
5.89863
5.7937
5.67101
1.39997
1.39997
1.39997
1.39997
1.39997
1.39997
1.39997
1.39997
1.39997
1.39997
1.39997
1.39997
1.39997
1.39997
1.39997
1.39997
1.61443
4.4265
5.49188
5.43876
5.4769
5.58258
5.72609
5.76404
5.68065
5.62204
5.66648
5.73383
5.78073
5.7763
1.39997
1.39997
1.39997
1.39997
1.39997
1.39997
1.39997
1.39997
1.39997
1.39997
1.39997
1.39997
1.39997
1.39997
1.39997
1.39997
1.60045
4.39962
5.48394
5.44928
5.50526
5.59285
5.67457
5.73594
5.69545
5.61701
5.58168
5.5961
5.69976
5.76464
1.39997
1.39997
1.39997
1.39997
1.39997
1.39997
1.39997
1.39997
1.39997
1.39997
1.39997
1.39997
1.39997
1.39997
1.39997
1.39997
1.57907
4.3669
5.46904
5.46522
5.52985
5.58192
5.60621
5.67653
5.74648
5.73046
5.67265
5.60944
5.61607
5.64509
1.39997
1.39997
1.39997
1.39997
1.39997
1.39997
1.39997
1.39997
1.39997
1.39997
1.39997
1.39997
1.39997
1.39997
1.39997
1.39997
1.55221
4.32349
5.46885
5.46123
5.53593
5.57549
5.56712
5.59033
5.70673
5.8642
5.90655
5.77204
5.55844
5.43754
1.39997
1.39997
1.39997
1.39997
1.39997
1.39997
1.39997
1.39997
1.39997
1.39997
1.39997
1.39997
1.39997
1.39997
1.39997
1.39997
1.52301
4.26962
5.48249
5.42718
5.49163
5.59213
5.60146
5.55679
5.67517
5.90478
6.02141
5.90926
5.52187
5.29918
1.39997
1.39997
1.39997
1.39997
1.39997
1.39997
1.39997
1.39997
1.39997
1.39997
1.39997
1.39997
1.39997
1.39997
1.39997
1.39997
1.49091
4.2087
5.49435
5.41323
5.43481
5.55378
5.65139
5.63015
5.66832
5.79827
5.9257
5.92997
5.52234
5.27582
1.39997
1.39997
1.39997
1.39997
1.39997
1.39997
1.39997
1.39997
1.39997
1.39997
1.39997
1.39997
1.39997
1.39997
1.39997
1.39997
1.45174
4.13507
5.49663
5.43647
5.47815
5.56685
5.6519
5.7215
5.71639
5.73645
5.72306
5.57162
5.5535
5.47022
1.39997
1.39997
1.39997
1.39997
1.39997
1.39997
1.39997
1.39997
1.39997
1.39997
1.39997
1.39997
1.39997
1.39997
1.39997
1.39997
1.41206
4.05119
5.47104
5.47269
5.4878
5.50591
5.59252
5.76587
5.82997
5.71357
5.49305
5.30785
5.48621
5.85407
1.39997
1.39997
1.39997
1.39997
1.39997
1.39997
1.39997
1.39997
1.39997
1.39997
1.39997
1.39997
1.39997
1.39997
1.39997
1.39997
1.40051
3.94654
5.44236
5.47617
5.48037
5.46444
5.55684
5.74898
5.89005
5.73134
5.36002
5.24477
5.51669
5.98577
1.39997
1.39997
1.39997
1.39997
1.39997
1.39997
1.39997
1.39997
1.39997
1.39997
1.39997
1.39997
1.39997
1.39997
1.39997
1.39997
1.39997
3.84102
5.4258
5.41367
5.44156
5.48953
5.62249
5.75616
5.79402
5.62307
5.46064
5.45238
5.72655
5.8709
1.39997
1.39997
1.39997
1.39997
1.39997
1.39997
1.39997
1.39997
1.39997
1.39997
1.39997
1.39997
1.39997
1.39997
1.39997
1.39997
1.39997
3.72761
5.41506
5.32749
5.35988
5.55429
5.6925
5.67445
5.55369
5.50069
5.69655
5.90854
5.76047
5.56438
1.39997
1.39997
1.39997
1.39997
1.39997
1.39997
1.39997
1.39997
1.39997
1.39997
1.39997
1.39997
1.39997
1.39997
1.39997
1.39997
1.39997
3.61559
5.37947
5.3532
5.47058
5.60677
5.65767
5.55797
5.37875
5.47343
5.90921
6.0037
5.7021
5.26607
1.39997
1.39997
1.39997
1.39997
1.39997
1.39997
1.39997
1.39997
1.39997
1.39997
1.39997
1.39997
1.39997
1.39997
1.39997
1.39997
1.39997
3.51639
5.37111
5.51204
5.5461
5.54358
5.48697
5.39959
5.41993
5.71537
5.89144
5.88805
5.46518
5.16161
1.39997
1.39997
1.39997
1.39997
1.39997
1.39997
1.39997
1.39997
1.39997
1.39997
1.39997
1.39997
1.39997
1.39997
1.39997
1.39997
1.39997
3.4287
5.41194
5.55231
5.54433
5.41973
5.33484
5.3726
5.64704
5.87445
5.8016
5.65366
5.2831
5.17705
1.39997
1.39997
1.39997
1.39997
1.39997
1.39997
1.39997
1.39997
1.39997
1.39997
1.39997
1.39997
1.39997
1.39997
1.39997
1.39997
1.39997
3.30336
5.42125
5.4976
5.37888
5.31649
5.27493
5.41865
5.84693
5.90327
5.66626
5.15057
5.24909
5.4581
1.39997
1.39997
1.39997
1.39997
1.39997
1.39997
1.39997
1.39997
1.39997
1.39997
1.39997
1.39997
1.39997
1.39997
1.39997
1.39997
1.39997
3.13295
5.3528
5.32974
5.26217
5.29104
5.40472
5.7522
5.80181
5.77406
5.28385
5.09392
5.24189
5.7286
1.39997
1.39997
1.39997
1.39997
1.39997
1.39997
1.39997
1.39997
1.39997
1.39997
1.39997
1.39997
1.39997
1.39997
1.39997
1.39997
1.39997
2.93813
5.18819
5.19494
5.20904
5.37383
5.74663
5.78327
5.72964
5.4268
5.14526
5.03207
5.27311
5.81563
1.39997
1.39997
1.39997
1.39997
1.39997
1.39997
1.39997
1.39997
1.39997
1.39997
1.39997
1.39997
1.39997
1.39997
1.39997
1.39997
1.39997
2.75022
4.98392
5.1557
5.34567
5.66797
5.74577
5.77038
5.55158
5.26292
5.14839
5.21591
5.51342
5.7364
1.39997
1.39997
1.39997
1.39997
1.39997
1.39997
1.39997
1.39997
1.39997
1.39997
1.39997
1.39997
1.39997
1.39997
1.39997
1.39997
1.39997
2.5966
4.83978
5.30945
5.59446
5.6549
5.66467
5.54465
5.23412
5.27699
5.55987
5.73904
5.56143
5.13866
1.39997
1.39997
1.39997
1.39997
1.39997
1.39997
1.39997
1.39997
1.39997
1.39997
1.39997
1.39997
1.39997
1.39997
1.39997
1.39997
1.39997
2.52408
4.92399
5.52229
5.59193
5.63131
5.46916
5.19679
5.1357
5.26094
5.85346
5.90125
5.46622
4.88749
1.39997
1.39997
1.39997
1.39997
1.39997
1.39997
1.39997
1.39997
1.39997
1.39997
1.39997
1.39997
1.39997
1.39997
1.39997
1.39997
1.39997
2.41586
5.07754
5.59685
5.55525
5.40637
5.19839
5.1712
5.19913
5.59283
5.7897
5.82764
5.20099
4.77099
1.39997
1.39997
1.39997
1.39997
1.39997
1.39997
1.39997
1.39997
1.39997
1.39997
1.39997
1.39997
1.39997
1.39997
1.39997
1.39997
1.39997
2.22585
5.10305
5.65458
5.40654
5.14393
5.13681
5.23674
5.63879
5.82347
5.60581
5.49358
5.01987
4.65931
1.39997
1.39997
1.39997
1.39997
1.39997
1.39997
1.39997
1.39997
1.39997
1.39997
1.39997
1.39997
1.39997
1.39997
1.39997
1.39997
1.39997
2.01917
4.98401
5.55482
5.13391
5.07888
5.15393
5.61311
5.9177
5.76433
5.33823
4.76667
4.95951
5.29709
1.39997
1.39997
1.39997
1.39997
1.39997
1.39997
1.39997
1.39997
1.39997
1.39997
1.39997
1.39997
1.39997
1.39997
1.39997
1.39997
1.39997
1.82529
4.72605
5.28309
5.02964
5.11758
5.55039
5.88896
5.86273
5.68169
4.90228
4.6305
4.90564
5.54279
1.39997
1.39997
1.39997
1.39997
1.39997
1.39997
1.39997
1.39997
1.39997
1.39997
1.39997
1.39997
1.39997
1.39997
1.39997
1.39997
1.39997
1.64941
4.43418
5.19559
5.10492
5.59504
5.85778
5.85845
5.80169
5.33756
4.75761
4.52555
4.7695
5.47718
1.39997
1.39997
1.39997
1.39997
1.39997
1.39997
1.39997
1.39997
1.39997
1.39997
1.39997
1.39997
1.39997
1.39997
1.39997
1.39997
1.39997
1.5471
4.33924
5.28193
5.58711
5.73724
5.75904
5.69228
5.40694
5.0991
4.77964
4.55855
4.71232
5.06261
1.39997
1.39997
1.39997
1.39997
1.39997
1.39997
1.39997
1.39997
1.39997
1.39997
1.39997
1.39997
1.39997
1.39997
1.39997
1.39997
1.39997
1.41535
3.89955
5.39202
5.40826
5.3998
5.32546
5.18776
5.04678
5.1785
5.38532
5.24467
4.58861
3.32507
1.39997
1.39997
1.39997
1.39997
1.39997
1.39997
1.39997
1.39997
1.39997
1.39997
1.39997
1.39997
1.39997
1.39997
1.39997
1.39997
1.39997
1.40005
2.81004
5.07499
5.23252
5.20751
5.17939
5.18367
5.22212
5.14045
4.95623
4.68328
4.21415
3.4017
1.39997
1.39997
1.39997
1.39997
1.39997
1.39997
1.39997
1.39997
1.39997
1.39997
1.39997
1.39997
1.39997
1.39997
1.39997
1.39997
1.39997
1.39997
1.77569
4.5843
5.25044
5.21449
5.18606
5.14129
5.05664
4.90256
4.66452
4.38731
4.01704
3.49655
1.39997
1.39997
1.39997
1.39997
1.39997
1.39997
1.39997
1.39997
1.39997
1.39997
1.39997
1.39997
1.39997
1.39997
1.39997
1.39997
1.39997
1.39997
1.4168
3.52088
5.18023
5.15608
5.08848
4.99972
4.88581
4.74745
4.57926
4.34011
3.93192
3.50788
1.39997
1.39997
1.39997
1.39997
1.39997
1.39997
1.39997
1.39997
1.39997
1.39997
1.39997
1.39997
1.39997
1.39997
1.39997
1.39997
1.39997
1.39997
1.39996
2.10471
4.81058
5.10974
5.01224
4.93279
4.8223
4.67342
4.50148
4.24284
3.90283
3.52996
1.39997
1.39997
1.39997
1.39997
1.39997
1.39997
1.39997
1.39997
1.39997
1.39997
1.39997
1.39997
1.39997
1.39997
1.39997
1.39997
1.39997
1.39997
1.39997
1.45095
3.5571
5.0287
4.98876
4.8835
4.75465
4.6109
4.44136
4.20948
3.91716
3.60561
1.39997
1.39997
1.39997
1.39997
1.39997
1.39997
1.39997
1.39997
1.39997
1.39997
1.39997
1.39997
1.39997
1.39997
1.39997
1.39997
1.39997
1.39997
1.39997
1.40016
1.88203
4.58167
5.00913
4.86911
4.7341
4.58331
4.41886
4.20874
3.95395
3.68708
1.39997
1.39997
1.39997
1.39997
1.39997
1.39997
1.39997
1.39997
1.39997
1.39997
1.39997
1.39997
1.39997
1.39997
1.39997
1.39997
1.39997
1.39997
1.39997
1.39997
1.42124
3.05274
4.83707
4.81056
4.67727
4.54653
4.38278
4.18938
3.97208
3.74015
1.39997
1.39997
1.39997
1.39997
1.39997
1.39997
1.39997
1.39997
1.39997
1.39997
1.39997
1.39997
1.39997
1.39997
1.39997
1.39997
1.39997
1.39997
1.39997
1.39997
1.40003
1.65559
3.89844
4.84449
4.71366
4.56766
4.39164
4.19574
3.99495
3.78566
1.39997
1.39997
1.39997
1.39997
1.39997
1.39997
1.39997
1.39997
1.39997
1.39997
1.39997
1.39997
1.39997
1.39997
1.39997
1.39997
1.39997
1.39997
1.39997
1.39997
1.39997
1.40533
2.09754
4.33838
4.76674
4.59216
4.42292
4.2361
4.04553
3.84465
1.39997
1.39997
1.39997
1.39997
1.39997
1.39997
1.39997
1.39997
1.39997
1.39997
1.39997
1.39997
1.39997
1.39997
1.39997
1.39997
1.39997
1.39997
1.39997
1.39997
1.39997
1.39998
1.44265
2.59775
4.54248
4.655
4.46861
4.29447
4.10283
3.89699
1.39997
1.39997
1.39997
1.39997
1.39997
1.39997
1.39997
1.39997
1.39997
1.39997
1.39997
1.39997
1.39997
1.39997
1.39997
1.39997
1.39997
1.39997
1.39997
1.39997
1.39997
1.39997
1.40028
1.5305
3.07838
4.52428
4.55323
4.36474
4.18282
3.98443
1.39997
1.39997
1.39997
1.39997
1.39997
1.39997
1.39997
1.39997
1.39997
1.39997
1.39997
1.39997
1.39997
1.39997
1.39997
1.39997
1.39997
1.39997
1.39997
1.39997
1.39997
1.39997
1.39997
1.40178
1.67139
3.37539
4.46818
4.44015
4.24524
4.07202
1.39997
1.39997
1.39997
1.39997
1.39997
1.39997
1.39997
1.39997
1.39997
1.39997
1.39997
1.39997
1.39997
1.39997
1.39997
1.39997
1.39997
1.39997
1.39997
1.39997
1.39997
1.39997
1.39997
1.39997
1.40661
1.81588
3.50955
4.39911
4.34255
4.16043
1.39997
1.39997
1.39997
1.39997
1.39997
1.39997
1.39997
1.39997
1.39997
1.39997
1.39997
1.39997
1.39997
1.39997
1.39997
1.39997
1.39997
1.39997
1.39997
1.39997
1.39997
1.39997
1.39997
1.39997
1.39999
1.41516
1.91115
3.54173
4.301
4.2662
1.39997
1.39997
1.39997
1.39997
1.39997
1.39997
1.39997
1.39997
1.39997
1.39997
1.39997
1.39997
1.39997
1.39997
1.39997
1.39997
1.39997
1.39997
1.39997
1.39997
1.39997
1.39997
1.39997
1.39997
1.39997
1.40005
1.42315
1.94972
3.47015
4.21987
1.39997
1.39997
1.39997
1.39997
1.39997
1.39997
1.39997
1.39997
1.39997
1.39997
1.39997
1.39997
1.39997
1.39997
1.39997
1.39997
1.39997
1.39997
1.39997
1.39997
1.39997
1.39997
1.39997
1.39997
1.39997
1.39997
1.40012
1.4274
1.9207
3.43057
1.39997
1.39997
1.39997
1.39997
1.39997
1.39997
1.39997
1.39997
1.39997
1.39997
1.39997
1.39997
1.39997
1.39997
1.39997
1.39997
1.39997
1.39997
1.39997
1.39997
1.39997
1.39997
1.39997
1.39997
1.39997
1.39997
1.39997
1.40018
1.42324
1.967
1.39997
1.39997
1.39997
1.39997
1.39997
1.39997
1.39997
1.39997
1.39997
1.39997
1.39997
1.39997
1.39997
1.39997
1.39997
1.39997
1.39997
1.39997
1.39997
1.39997
1.39997
1.39997
1.39997
1.39997
1.39997
1.39997
1.39997
1.39997
1.40013
1.43027
1.39997
1.39997
1.39997
1.39997
1.39997
1.39997
1.39997
1.39997
1.39997
1.39997
1.39997
1.39997
1.39997
1.39997
1.39997
1.39997
1.39997
1.39997
1.39997
1.39997
1.39997
1.39997
1.39997
1.39997
1.39997
1.39997
1.39997
1.39997
1.39997
1.40006
1.39997
1.39997
1.39997
1.39997
1.39997
1.39997
1.39997
1.39997
1.39997
1.39997
1.39997
1.39997
1.39997
1.39997
1.39997
1.39997
1.39997
1.39997
1.39997
1.39997
1.39997
1.39997
1.39997
1.39997
1.39997
1.39997
1.39997
1.39997
1.39997
1.39997
1.39997
1.39997
1.39997
1.39997
1.39997
1.39997
1.39997
1.39997
1.39997
1.39997
1.39997
1.39997
1.39997
1.39997
1.39997
1.39997
1.39997
1.39997
1.39997
1.39997
1.39997
1.39997
1.39997
1.39997
1.39997
1.39997
1.39997
1.39997
1.39997
1.39997
1.39997
1.39997
1.39997
1.39997
1.39997
1.39997
1.39997
1.39997
1.39997
1.39997
1.39997
1.39997
1.39997
1.39997
1.39997
1.39997
1.39997
1.39997
1.39997
1.39997
1.39997
1.39997
1.39997
1.39997
1.39997
1.39997
1.39997
1.39997
1.39997
1.39997
1.39997
1.39997
1.39997
1.39997
1.39997
1.39997
1.39997
1.39997
1.39997
1.39997
1.39997
1.39997
1.39997
1.39997
1.39997
1.39997
1.39997
1.39997
1.39997
1.39997
1.39997
1.39997
1.39997
1.39997
1.39997
1.39997
1.39997
1.39997
1.39997
1.39997
1.39997
1.39997
1.39997
1.39997
1.39997
1.39997
1.39997
1.39997
1.39997
1.39997
1.39997
1.39997
1.39997
1.39997
1.39997
1.39997
1.39997
1.39997
1.39997
1.39997
1.39997
1.39997
1.39997
1.39997
1.39997
1.39997
1.39997
1.39997
1.39997
1.39997
1.39997
1.39997
1.39997
1.39997
1.39997
1.39997
1.39997
1.39997
1.39997
1.39997
1.39997
1.39997
1.39997
1.39997
1.39997
1.39997
1.39997
1.39997
1.39997
1.39997
1.39997
1.39997
1.39997
1.39997
1.39997
1.39997
1.39997
1.39997
1.39997
1.39997
1.39997
1.39997
1.39997
1.39997
1.39997
1.39997
1.39997
1.39997
1.39997
1.39997
1.39997
1.39997
1.39997
1.39997
1.39997
1.39997
1.39997
1.39997
1.39997
1.39997
1.39997
1.39997
1.39997
1.39997
1.39997
1.39997
1.39997
1.39997
1.39997
1.39997
1.39997
1.39997
1.39997
1.39997
1.39997
1.39997
1.39997
1.39997
1.39997
1.39997
1.39997
1.39997
1.39997
1.39997
1.39997
1.39997
1.39997
1.39997
1.39997
1.39997
1.39997
1.39997
1.39997
1.39997
1.39997
1.39997
1.39997
1.39997
1.39997
1.39997
1.39997
1.39997
1.39997
1.39997
1.39997
1.39997
1.39997
1.39997
1.39997
1.39997
1.39997
1.39997
1.39997
1.39997
1.39997
1.39997
1.39997
1.39997
1.39997
1.39997
1.39997
1.39997
1.39997
1.39997
1.39997
1.39997
1.39997
1.39997
1.39997
1.39997
1.39997
1.39997
1.39997
1.39997
1.39997
1.39997
1.39997
1.39997
1.39997
1.39997
1.39997
1.39997
1.39997
1.39997
1.39997
1.39997
1.39997
1.39997
1.39997
1.39997
1.39997
1.39997
1.39997
1.39997
1.39997
1.39997
1.39997
1.39997
1.39997
1.39997
0.758931
0.520294
0.598712
0.709521
0.78392
0.822681
0.814551
0.792993
0.779465
0.768091
0.763495
0.75464
0.731601
0.702057
0.679018
0.660266
0.642379
0.628516
0.616638
0.60641
0.599594
0.598502
0.601185
0.610062
0.625081
0.635572
0.63922
0.643959
0.650941
0.68294
1.58551
0.808724
0.666989
0.705436
0.776935
0.833727
0.829249
0.809994
0.795698
0.78663
0.783567
0.772543
0.749127
0.718831
0.690543
0.667642
0.649734
0.637315
0.628219
0.619322
0.610879
0.606259
0.607561
0.613799
0.625677
0.636405
0.645583
0.653575
0.661759
0.693007
2.06308
1.08161
0.739829
0.748727
0.811474
0.887656
0.884458
0.857408
0.840147
0.833729
0.831338
0.817676
0.79391
0.765256
0.736213
0.708111
0.684021
0.667895
0.656807
0.646351
0.635575
0.631026
0.632307
0.637054
0.645576
0.654319
0.662421
0.669453
0.677524
0.70806
2.40581
1.39888
0.982783
0.817089
0.841629
0.897752
0.943387
0.928861
0.907192
0.898953
0.892603
0.878033
0.85467
0.825948
0.795325
0.764714
0.737872
0.718762
0.705361
0.691204
0.672788
0.661115
0.661355
0.664672
0.671257
0.680022
0.687039
0.692257
0.699453
0.728087
2.67616
1.69618
1.24354
0.907044
0.888876
0.916685
0.979755
0.996924
0.981364
0.966914
0.950159
0.929738
0.905204
0.876629
0.846188
0.814292
0.787299
0.769966
0.757577
0.744269
0.725249
0.705859
0.702211
0.702386
0.705274
0.714429
0.722715
0.72917
0.73713
0.766565
2.85907
1.98409
1.46619
1.10515
0.948738
0.964041
0.990125
1.0064
1.00236
1.00113
0.991364
0.971049
0.94672
0.917839
0.888679
0.856107
0.8275
0.80982
0.79752
0.785705
0.769361
0.749022
0.741824
0.739606
0.7418
0.749702
0.756714
0.763551
0.772436
0.805616
2.99552
2.20758
1.65562
1.29595
1.02166
1.01417
1.0014
0.990778
0.995879
1.00414
1.00144
0.995342
0.981887
0.957974
0.929651
0.897926
0.865254
0.841722
0.826615
0.814914
0.800357
0.781289
0.772985
0.774373
0.781344
0.795884
0.804291
0.80885
0.813365
0.845267
3.10055
2.3601
1.81674
1.45143
1.16426
1.07635
1.01537
0.968355
0.975014
0.990231
1.00109
0.99907
0.988427
0.967861
0.941701
0.911431
0.880491
0.858603
0.846484
0.83772
0.827266
0.814303
0.814835
0.837562
0.882123
0.93781
0.961137
0.959153
0.938146
0.937579
3.19553
2.47475
1.95407
1.59172
1.30805
1.13101
1.04656
0.973232
0.952566
0.966344
0.990167
0.996231
0.987916
0.968927
0.943616
0.912737
0.883407
0.866125
0.858235
0.856751
0.859211
0.884309
0.955688
1.05383
1.14274
1.20315
1.23692
1.2358
1.22647
1.18814
3.28814
2.57919
2.0792
1.72882
1.44064
1.22005
1.11643
1.00255
0.943792
0.948848
0.975139
0.987008
0.97789
0.960205
0.937324
0.913246
0.889002
0.872959
0.870511
0.887586
0.963439
1.11116
1.25013
1.33175
1.35678
1.36776
1.38815
1.40317
1.43548
1.4546
3.36819
2.6837
2.19747
1.86399
1.57052
1.32355
1.17678
1.04157
0.943939
0.951392
0.970926
0.965199
0.953034
0.942635
0.932351
0.918234
0.898629
0.888682
0.918115
1.04733
1.25201
1.3926
1.44444
1.44736
1.42804
1.42159
1.43064
1.45269
1.49518
1.56458
3.47648
2.79814
2.32328
1.99205
1.68772
1.42083
1.25309
1.11868
0.971064
0.965614
0.968065
0.940935
0.926802
0.927766
0.933185
0.930705
0.922225
0.960822
1.14193
1.38735
1.51027
1.51657
1.49716
1.4737
1.44606
1.4368
1.44132
1.46122
1.50048
1.59632
3.59588
2.93021
2.45849
2.1195
1.80042
1.50873
1.3307
1.19648
1.03317
0.984447
0.976674
0.941915
0.926186
0.928354
0.938164
0.946929
1.00189
1.22517
1.4953
1.61744
1.59044
1.54335
1.51288
1.47612
1.44188
1.43671
1.43892
1.45663
1.49521
1.6084
3.71411
3.08058
2.60017
2.23885
1.90627
1.59516
1.40776
1.27414
1.12801
1.02974
1.00105
0.956606
0.929399
0.931463
0.944798
1.00439
1.25539
1.55807
1.6822
1.65476
1.59856
1.53761
1.48538
1.44714
1.42834
1.43315
1.44378
1.46883
1.51333
1.62821
3.82504
3.24231
2.73926
2.34327
2.0045
1.68244
1.48028
1.35538
1.21969
1.08812
1.03237
0.980341
0.941786
0.941879
0.978369
1.21653
1.568
1.71191
1.69483
1.65369
1.56127
1.49604
1.45215
1.43168
1.42345
1.43023
1.45415
1.4877
1.52474
1.59328
3.98204
3.40483
2.86454
2.43703
2.10396
1.78382
1.56619
1.43962
1.30156
1.15431
1.08388
1.02698
0.975857
0.986383
1.16122
1.54609
1.71885
1.72637
1.68973
1.61243
1.51171
1.46278
1.43806
1.42538
1.42799
1.44025
1.4677
1.50013
1.53412
1.58261
4.01069
3.57754
2.97416
2.52598
2.21044
1.89115
1.65495
1.52424
1.38694
1.23904
1.14433
1.06671
1.01959
1.13027
1.512
1.74141
1.76148
1.7216
1.64166
1.56083
1.48775
1.44978
1.44147
1.44329
1.45134
1.45522
1.47773
1.50909
1.54561
1.58161
3.83648
3.60164
3.08533
2.62555
2.32438
2.01435
1.76297
1.61226
1.46925
1.3179
1.19734
1.1271
1.16547
1.47842
1.79733
1.81625
1.76821
1.67475
1.59299
1.52655
1.4768
1.46277
1.46733
1.47278
1.48784
1.4882
1.49501
1.50281
1.52179
1.5497
3.24514
3.4759
3.15758
2.73705
2.43455
2.13422
1.87205
1.70263
1.55404
1.39359
1.25563
1.24627
1.50391
1.86663
1.93257
1.8565
1.7407
1.6318
1.57017
1.51292
1.4884
1.48299
1.48972
1.50673
1.49112
1.46899
1.4661
1.48242
1.49037
1.49402
2.77921
3.47217
3.24617
2.8663
2.54443
2.24598
1.97931
1.79066
1.63255
1.45057
1.36445
1.53998
2.00034
2.11985
2.01676
1.86687
1.73732
1.61633
1.5736
1.54076
1.5003
1.47407
1.46131
1.4723
1.46751
1.43915
1.43607
1.44134
1.4339
1.44056
2.2476
3.45183
3.35423
2.99703
2.64354
2.34831
2.07996
1.87861
1.69007
1.52167
1.59541
2.07295
2.37201
2.26138
2.06763
1.89646
1.75796
1.6704
1.61708
1.57099
1.51708
1.46115
1.43265
1.43707
1.42603
1.39397
1.3884
1.38151
1.371
1.38877
1.72582
3.2813
3.3925
3.10809
2.74448
2.44354
2.17107
1.94926
1.745
1.71181
2.14017
2.60395
2.53183
2.36648
2.14536
1.96244
1.82019
1.72222
1.64788
1.58235
1.51993
1.44908
1.40921
1.3946
1.3682
1.33764
1.33368
1.33115
1.32394
1.34927
1.42738
2.90693
3.34996
3.19066
2.87053
2.55255
2.27067
2.00396
1.87707
2.1861
2.74667
2.81114
2.6362
2.42054
2.22372
2.0596
1.90675
1.78541
1.68535
1.59686
1.51789
1.4404
1.40169
1.36781
1.32843
1.30169
1.29607
1.29805
1.29627
1.32585
1.40042
2.33511
3.35943
3.29731
2.99802
2.66021
2.33124
2.08228
2.25046
2.94145
3.18209
3.01734
2.76036
2.49875
2.29806
2.14721
1.99832
1.86059
1.73667
1.63039
1.53374
1.45192
1.40385
1.35904
1.31291
1.28765
1.2775
1.27333
1.26911
1.29503
1.39997
1.76425
3.18784
3.30302
3.09444
2.77389
2.3924
2.37292
3.04074
3.54949
3.37807
3.12928
2.85214
2.57968
2.36767
2.20846
2.06127
1.91545
1.7766
1.64877
1.54999
1.47335
1.41668
1.36427
1.31773
1.28858
1.27306
1.25486
1.23851
1.25508
1.39997
1.46437
2.69942
3.31817
3.21849
2.88794
2.63802
3.13546
3.97625
3.87639
3.55056
3.19224
2.90523
2.6553
2.44566
2.27147
2.10905
1.95485
1.81001
1.68013
1.56789
1.52132
1.46235
1.39652
1.34513
1.31061
1.28305
1.24507
1.21752
1.22386
1.39997
1.40505
2.0532
3.27178
3.24531
3.01968
3.33219
4.26445
4.39542
4.08001
3.67823
3.30638
3.03851
2.80478
2.54951
2.3267
2.15911
2.018
1.88182
1.74683
1.61538
1.514
1.43943
1.37531
1.32794
1.28991
1.25715
1.22677
1.20108
1.19977
1.39997
1.40017
1.5779
2.92996
3.15523
3.5319
4.75036
5.13565
4.75505
4.24283
3.80319
3.42455
3.09511
2.80828
2.56999
2.35911
2.18091
2.02029
1.87314
1.73849
1.62851
1.52897
1.44679
1.38053
1.33228
1.29236
1.2567
1.22301
1.19439
1.19104
1.39997
1.39997
1.42253
2.26107
3.33307
4.86201
5.62296
5.45021
4.97166
4.39879
3.91426
3.50547
3.15175
2.86784
2.63821
2.43652
2.24717
2.07147
1.91261
1.77555
1.66554
1.56684
1.48189
1.41457
1.36141
1.31569
1.27516
1.23764
1.20408
1.19684
1.39997
1.39997
1.40136
1.71186
3.99427
6.26284
6.46863
5.66729
5.02387
4.46201
3.9524
3.50813
3.12551
2.80997
2.57555
2.3778
2.19078
2.01838
1.85907
1.72543
1.61558
1.51952
1.43805
1.37299
1.32301
1.27961
1.23896
1.20185
1.17026
1.16551
)
;

boundaryField
{
    inlet
    {
        type            calculated;
        value           uniform 1.39997;
    }
    outlet
    {
        type            calculated;
        value           nonuniform List<scalar> 
30
(
0.683952
0.694141
0.708831
0.728795
0.767396
0.806174
0.847165
0.945981
1.20263
1.46284
1.56627
1.59592
1.60681
1.62753
1.59442
1.58395
1.58304
1.55043
1.49501
1.44091
1.38823
1.34817
1.32473
1.29437
1.25486
1.22366
1.19947
1.19078
1.19651
1.16519
)
;
    }
    top
    {
        type            symmetryPlane;
    }
    bottom
    {
        type            symmetryPlane;
    }
    step
    {
        type            calculated;
        value           nonuniform List<scalar> 
60
(
5.58934
5.56948
5.56865
5.67101
5.7763
5.76464
5.64509
5.43754
5.29918
5.27582
5.47022
5.85407
5.98577
5.8709
5.56438
5.26607
5.16161
5.17705
5.4581
5.7286
5.81563
5.7364
5.13866
4.88749
4.77099
4.65931
5.29709
5.54279
5.47718
5.06261
0.758931
0.520294
0.598712
0.709521
0.78392
0.822681
0.814551
0.792993
0.779465
0.768091
0.763495
0.75464
0.731601
0.702057
0.679018
0.660266
0.642379
0.628516
0.616638
0.60641
0.599594
0.598502
0.601185
0.610062
0.625081
0.635572
0.63922
0.643959
0.650941
0.68294
)
;
    }
    defaultFaces
    {
        type            empty;
    }
}


// ************************************************************************* //
