/*--------------------------------*- C++ -*----------------------------------*\
  =========                 |
  \\      /  F ield         | OpenFOAM: The Open Source CFD Toolbox
   \\    /   O peration     | Website:  https://openfoam.org
    \\  /    A nd           | Version:  6.0
     \\/     M anipulation  |
\*---------------------------------------------------------------------------*/
FoamFile
{
    version     2.0;
    format      ascii;
    class       volScalarField;
    location    "1.00083";
    object      T;
}
// * * * * * * * * * * * * * * * * * * * * * * * * * * * * * * * * * * * * * //

dimensions      [0 0 0 1 0 0 0];

internalField   nonuniform List<scalar> 
2700
(
1
1
1
1
1
1
1
1
1
1
1
1
1
1
1
1
1.22075
2.45261
2.72451
2.76791
2.80011
2.82149
2.83096
2.8528
2.87983
2.89049
2.88275
2.89408
2.95391
3.02363
1
1
1
1
1
1
1
1
1
1
1
1
1
1
1
1
1.22397
2.45272
2.72264
2.76224
2.79935
2.82618
2.83921
2.85421
2.87942
2.89839
2.91043
2.93991
2.98246
3.01881
1
1
1
1
1
1
1
1
1
1
1
1
1
1
1
1
1.22301
2.45091
2.7228
2.75762
2.79262
2.82274
2.84557
2.85784
2.86644
2.88763
2.92728
2.9801
3.01732
3.01843
1
1
1
1
1
1
1
1
1
1
1
1
1
1
1
1
1.21913
2.44678
2.72254
2.75236
2.7852
2.82536
2.86258
2.86986
2.8599
2.8624
2.91057
2.98582
3.02867
3.03949
1
1
1
1
1
1
1
1
1
1
1
1
1
1
1
1
1.21187
2.43937
2.7218
2.74885
2.78612
2.82738
2.86337
2.86963
2.85129
2.84463
2.88145
2.95251
3.02574
3.0601
1
1
1
1
1
1
1
1
1
1
1
1
1
1
1
1
1.19949
2.42843
2.72093
2.75093
2.79134
2.82926
2.85301
2.86378
2.85443
2.84397
2.86447
2.92348
3.00827
3.05725
1
1
1
1
1
1
1
1
1
1
1
1
1
1
1
1
1.17952
2.414
2.71851
2.75461
2.7956
2.82639
2.83877
2.85209
2.86389
2.86681
2.88364
2.92527
2.99043
3.03198
1
1
1
1
1
1
1
1
1
1
1
1
1
1
1
1
1.15324
2.39519
2.71816
2.7548
2.79708
2.82446
2.83011
2.83432
2.85533
2.89437
2.93132
2.95796
2.9786
2.98664
1
1
1
1
1
1
1
1
1
1
1
1
1
1
1
1
1.12159
2.37282
2.72114
2.74881
2.78897
2.82734
2.83649
2.82676
2.84917
2.90296
2.95447
2.98494
2.96896
2.95534
1
1
1
1
1
1
1
1
1
1
1
1
1
1
1
1
1.0857
2.34918
2.72586
2.74683
2.77726
2.81924
2.8458
2.84118
2.84782
2.8818
2.93628
2.98865
2.96753
2.94946
1
1
1
1
1
1
1
1
1
1
1
1
1
1
1
1
1.04426
2.32619
2.73017
2.75269
2.78582
2.82091
2.8452
2.85843
2.85732
2.86953
2.89578
2.91454
2.97426
2.99167
1
1
1
1
1
1
1
1
1
1
1
1
1
1
1
1
1.00723
2.30574
2.72876
2.76137
2.78692
2.80708
2.83191
2.8662
2.87889
2.86497
2.84923
2.85839
2.95915
3.07248
1
1
1
1
1
1
1
1
1
1
1
1
1
1
1
1
1.00015
2.28123
2.72672
2.76316
2.78497
2.7974
2.82356
2.86187
2.88979
2.86887
2.82122
2.84392
2.96434
3.09626
1
1
1
1
1
1
1
1
1
1
1
1
1
1
1
1
1
2.25256
2.72569
2.75256
2.77817
2.80211
2.83551
2.86216
2.87021
2.84581
2.84272
2.8892
3.0063
3.07091
1
1
1
1
1
1
1
1
1
1
1
1
1
1
1
1
1
2.21884
2.72532
2.73604
2.76218
2.81457
2.84774
2.84443
2.82089
2.81917
2.89384
2.98604
3.00917
3.00603
1
1
1
1
1
1
1
1
1
1
1
1
1
1
1
1
1
2.18279
2.71856
2.74341
2.78554
2.82432
2.83958
2.82032
2.7832
2.81168
2.93667
3.00341
2.9945
2.93958
1
1
1
1
1
1
1
1
1
1
1
1
1
1
1
1
1
2.14959
2.71822
2.77822
2.80019
2.81124
2.80517
2.78737
2.79056
2.86112
2.93217
2.97768
2.94493
2.91477
1
1
1
1
1
1
1
1
1
1
1
1
1
1
1
1
1
2.12086
2.72789
2.78865
2.80054
2.78742
2.77328
2.7805
2.83593
2.89152
2.90936
2.92749
2.90502
2.91568
1
1
1
1
1
1
1
1
1
1
1
1
1
1
1
1
1
2.07719
2.7295
2.78057
2.77094
2.76687
2.75977
2.78672
2.87332
2.89398
2.87973
2.82229
2.89705
2.97717
1
1
1
1
1
1
1
1
1
1
1
1
1
1
1
1
1
2.01496
2.71653
2.75101
2.75054
2.76219
2.78567
2.85358
2.86218
2.86477
2.80058
2.80652
2.89474
3.03339
1
1
1
1
1
1
1
1
1
1
1
1
1
1
1
1
1
1.93783
2.68697
2.72818
2.74115
2.77774
2.85205
2.8572
2.84259
2.79299
2.76872
2.79006
2.89684
3.04714
1
1
1
1
1
1
1
1
1
1
1
1
1
1
1
1
1
1.86635
2.65333
2.72226
2.76826
2.83357
2.84788
2.84873
2.80422
2.7554
2.76562
2.82951
2.94696
3.02149
1
1
1
1
1
1
1
1
1
1
1
1
1
1
1
1
1
1.80867
2.63152
2.75333
2.81176
2.82507
2.82303
2.79542
2.73538
2.7558
2.85438
2.94284
2.95342
2.89931
1
1
1
1
1
1
1
1
1
1
1
1
1
1
1
1
1
1.79878
2.65146
2.78491
2.79996
2.80502
2.77293
2.71913
2.70948
2.74517
2.9063
2.97047
2.9318
2.83693
1
1
1
1
1
1
1
1
1
1
1
1
1
1
1
1
1
1.73965
2.66013
2.77884
2.76625
2.73879
2.70332
2.70699
2.71578
2.81125
2.88718
2.94886
2.87311
2.80452
1
1
1
1
1
1
1
1
1
1
1
1
1
1
1
1
1
1.59368
2.60214
2.74997
2.70666
2.66587
2.67689
2.70692
2.79937
2.85061
2.84132
2.87286
2.8305
2.76792
1
1
1
1
1
1
1
1
1
1
1
1
1
1
1
1
1
1.43108
2.49489
2.69365
2.62923
2.63406
2.66612
2.77018
2.84699
2.82935
2.78123
2.71366
2.81474
2.92594
1
1
1
1
1
1
1
1
1
1
1
1
1
1
1
1
1
1.2837
2.41411
2.62749
2.59351
2.62855
2.72881
2.81521
2.81988
2.80311
2.68448
2.67464
2.79852
2.9741
1
1
1
1
1
1
1
1
1
1
1
1
1
1
1
1
1
1.19132
2.37088
2.61674
2.60738
2.71813
2.78556
2.79346
2.79862
2.73281
2.64872
2.64279
2.76176
2.95151
1
1
1
1
1
1
1
1
1
1
1
1
1
1
1
1
1
1.11598
2.37488
2.65327
2.71898
2.75183
2.76144
2.761
2.72752
2.68923
2.65559
2.6493
2.74649
2.8646
1
1
1
1
1
1
1
1
1
1
1
1
1
1
1
1
1
1.00883
2.27319
2.70056
2.70344
2.70292
2.69286
2.67674
2.66328
2.71401
2.79195
2.80697
2.72732
2.56587
1
1
1
1
1
1
1
1
1
1
1
1
1
1
1
1
1
1.00003
1.86587
2.61076
2.66104
2.66557
2.66867
2.68231
2.70723
2.70856
2.7015
2.67726
2.61266
2.4976
1
1
1
1
1
1
1
1
1
1
1
1
1
1
1
1
1
1
1.26093
2.39669
2.63001
2.64939
2.66291
2.67142
2.67285
2.66106
2.62942
2.58744
2.52527
2.44397
1
1
1
1
1
1
1
1
1
1
1
1
1
1
1
1
1
1
1.00936
2.09201
2.57252
2.61453
2.62393
2.62707
2.62245
2.61242
2.59406
2.55649
2.47252
2.38056
1
1
1
1
1
1
1
1
1
1
1
1
1
1
1
1
1
1
1
1.45026
2.39088
2.57019
2.57002
2.5786
2.57767
2.56853
2.54815
2.502
2.42699
2.34094
1
1
1
1
1
1
1
1
1
1
1
1
1
1
1
1
1
1
1
1.02847
2.06006
2.50708
2.53579
2.53222
2.52759
2.51641
2.49424
2.45246
2.39131
2.32364
1
1
1
1
1
1
1
1
1
1
1
1
1
1
1
1
1
1
1
1.00009
1.30405
2.29483
2.49869
2.4862
2.47957
2.46616
2.44517
2.4097
2.36097
2.30801
1
1
1
1
1
1
1
1
1
1
1
1
1
1
1
1
1
1
1
1
1.01137
1.84511
2.38707
2.44784
2.43045
2.41572
2.3939
2.3635
2.32693
2.28732
1
1
1
1
1
1
1
1
1
1
1
1
1
1
1
1
1
1
1
1
1.00002
1.15403
2.09641
2.41389
2.39837
2.37958
2.35426
2.32546
2.29602
2.26551
1
1
1
1
1
1
1
1
1
1
1
1
1
1
1
1
1
1
1
1
1
1.00263
1.39838
2.19377
2.3654
2.33984
2.32007
2.29825
2.27472
2.24852
1
1
1
1
1
1
1
1
1
1
1
1
1
1
1
1
1
1
1
1
1
1
1.02215
1.61577
2.21704
2.31534
2.28706
2.26975
2.24918
2.22458
1
1
1
1
1
1
1
1
1
1
1
1
1
1
1
1
1
1
1
1
1
1
1.00012
1.07126
1.78018
2.20286
2.27335
2.24462
2.22387
2.20104
1
1
1
1
1
1
1
1
1
1
1
1
1
1
1
1
1
1
1
1
1
1
1
1.00075
1.15384
1.85708
2.18001
2.22691
2.19697
2.17534
1
1
1
1
1
1
1
1
1
1
1
1
1
1
1
1
1
1
1
1
1
1
1
1
1.003
1.23211
1.87888
2.14587
2.17496
2.15394
1
1
1
1
1
1
1
1
1
1
1
1
1
1
1
1
1
1
1
1
1
1
1
1
1.00001
1.0071
1.2767
1.86819
2.08993
2.13495
1
1
1
1
1
1
1
1
1
1
1
1
1
1
1
1
1
1
1
1
1
1
1
1
1
1.00003
1.01088
1.29069
1.81035
2.07097
1
1
1
1
1
1
1
1
1
1
1
1
1
1
1
1
1
1
1
1
1
1
1
1
1
1
1.00005
1.01278
1.26081
1.82816
1
1
1
1
1
1
1
1
1
1
1
1
1
1
1
1
1
1
1
1
1
1
1
1
1
1
1
1.00007
1.01055
1.3045
1
1
1
1
1
1
1
1
1
1
1
1
1
1
1
1
1
1
1
1
1
1
1
1
1
1
1
1
1.00005
1.01457
1
1
1
1
1
1
1
1
1
1
1
1
1
1
1
1
1
1
1
1
1
1
1
1
1
1
1
1
1
1.00004
1
1
1
1
1
1
1
1
1
1
1
1
1
1
1
1
1
1
1
1
1
1
1
1
1
1
1
1
1
1
1
1
1
1
1
1
1
1
1
1
1
1
1
1
1
1
1
1
1
1
1
1
1
1
1
1
1
1
1
1
1
1
1
1
1
1
1
1
1
1
1
1
1
1
1
1
1
1
1
1
1
1
1
1
1
1
1
1
1
1
1
1
1
1
1
1
1
1
1
1
1
1
1
1
1
1
1
1
1
1
1
1
1
1
1
1
1
1
1
1
1
1
1
1
1
1
1
1
1
1
1
1
1
1
1
1
1
1
1
1
1
1
1
1
1
1
1
1
1
1
1
1
1
1
1
1
1
1
1
1
1
1
1
1
1
1
1
1
1
1
1
1
1
1
1
1
1
1
1
1
1
1
1
1
1
1
1
1
1
1
1
1
1
1
1
1
1
1
1
1
1
1
1
1
1
1
1
1
1
1
1
1
1
1
1
1
1
1
1
1
1
1
1
1
1
1
1
1
1
1
1
1
1
1
1
1
1
1
1
1
1
1
1
1
1
1
1
1
1
1
1
1
1
1
1
1
1
1
1
1
1
1
1
1
1
1
1
1
1
1
1
1
1
1
1
1
1
1
1
1
1
1
1
1
1
1
1
1
1
1
1
1
1
1
1
1
1
1
1
1
1.66829
1.77368
1.89712
1.96985
1.93624
1.93416
1.95222
1.99898
2.00958
1.99545
1.96444
1.91726
1.87653
1.87209
1.88083
1.8981
1.90473
1.90486
1.9053
1.91357
1.93322
1.94215
1.94119
1.93245
1.9184
1.91023
1.9092
1.90893
1.90634
1.86437
2.10583
1.83047
1.79419
1.83353
1.84205
1.84529
1.8714
1.93051
1.9548
1.94629
1.92365
1.88007
1.84251
1.83822
1.84357
1.85769
1.86837
1.87278
1.8782
1.89274
1.91858
1.92804
1.92679
1.91716
1.9
1.89366
1.8973
1.90265
1.90209
1.86301
2.09416
1.77166
1.66703
1.67879
1.68935
1.70074
1.72356
1.77907
1.82065
1.82115
1.81225
1.77932
1.74872
1.74736
1.75325
1.7658
1.77674
1.78371
1.79288
1.81476
1.85372
1.88079
1.88348
1.87718
1.86016
1.85244
1.85436
1.86323
1.86696
1.83525
2.09649
1.78306
1.66999
1.60078
1.55071
1.55748
1.58407
1.63428
1.67122
1.67821
1.67392
1.65198
1.62842
1.62486
1.62787
1.63698
1.64788
1.65723
1.67036
1.69628
1.74025
1.78019
1.78922
1.78644
1.77576
1.7712
1.7735
1.78514
1.79451
1.76979
2.11145
1.81289
1.67748
1.5659
1.49505
1.47945
1.50072
1.54836
1.57943
1.57979
1.5698
1.54784
1.52712
1.51854
1.51731
1.519
1.52543
1.53584
1.55174
1.57977
1.62392
1.66565
1.6801
1.67853
1.67346
1.67432
1.67951
1.694
1.70577
1.68578
2.12383
1.86693
1.70531
1.58912
1.49445
1.44866
1.45335
1.48107
1.51095
1.51579
1.50746
1.48744
1.46822
1.45627
1.44964
1.44307
1.44431
1.45119
1.4646
1.48907
1.52556
1.55989
1.57748
1.57731
1.57663
1.57994
1.58649
1.59793
1.60607
1.58676
2.13719
1.92145
1.75076
1.62293
1.49565
1.4412
1.42601
1.43639
1.45984
1.46617
1.46125
1.45117
1.43997
1.43004
1.42074
1.40933
1.404
1.40552
1.41302
1.43122
1.45608
1.47673
1.49147
1.49913
1.50936
1.52392
1.53381
1.53666
1.53228
1.49599
2.148
1.96203
1.79994
1.66518
1.5292
1.45535
1.4123
1.4083
1.42128
1.42861
1.4263
1.42066
1.41278
1.40504
1.39596
1.38236
1.37504
1.37576
1.38206
1.39694
1.41289
1.42781
1.44641
1.47485
1.51648
1.56458
1.57754
1.57196
1.54537
1.46702
2.15455
1.98905
1.84068
1.70768
1.57399
1.47081
1.41757
1.39753
1.39608
1.39938
1.39891
1.39656
1.39086
1.38408
1.3755
1.36057
1.35153
1.35259
1.35869
1.37344
1.39254
1.42746
1.49553
1.56924
1.62163
1.65016
1.64981
1.64044
1.61957
1.52708
2.15364
2.00449
1.8697
1.74545
1.61483
1.50169
1.44568
1.40448
1.38231
1.37878
1.37855
1.37627
1.37048
1.36439
1.35608
1.34442
1.33408
1.33483
1.34332
1.36648
1.43256
1.53689
1.61451
1.64889
1.65904
1.65338
1.64625
1.63358
1.61814
1.54031
2.14447
2.01125
1.88652
1.77394
1.65066
1.53788
1.4708
1.41748
1.37445
1.37151
1.36659
1.35108
1.34604
1.34342
1.33973
1.33224
1.32193
1.32566
1.35314
1.44895
1.56938
1.62915
1.64576
1.64148
1.62738
1.60963
1.59384
1.57647
1.55483
1.47917
2.13229
2.01084
1.89799
1.79394
1.67804
1.56907
1.50178
1.44821
1.38422
1.36686
1.35205
1.32381
1.32042
1.32271
1.32643
1.32335
1.31999
1.34904
1.46887
1.59606
1.63802
1.63256
1.61905
1.60261
1.57927
1.5525
1.527
1.5016
1.4711
1.39689
2.11581
2.00841
1.90559
1.80911
1.7013
1.59464
1.52931
1.47455
1.40071
1.3635
1.34508
1.31609
1.30836
1.31059
1.31342
1.31616
1.34774
1.48027
1.60749
1.64892
1.63242
1.60615
1.58308
1.55471
1.52028
1.48809
1.45519
1.42427
1.39147
1.32535
2.09859
2.00438
1.90754
1.81619
1.71816
1.61545
1.55024
1.49611
1.42907
1.37238
1.34513
1.31338
1.29818
1.29757
1.30182
1.33096
1.47104
1.60326
1.64564
1.62882
1.59783
1.56178
1.52578
1.49128
1.45679
1.42483
1.39223
1.36054
1.331
1.27077
2.08012
1.99931
1.90622
1.81525
1.72751
1.63098
1.56286
1.51315
1.45196
1.38427
1.34553
1.31005
1.29325
1.28681
1.30496
1.43777
1.59005
1.6298
1.61773
1.59111
1.54445
1.50148
1.46537
1.43333
1.40029
1.36786
1.33709
1.30601
1.27503
1.21125
2.05991
1.98981
1.89786
1.80926
1.73274
1.64555
1.5752
1.52625
1.46679
1.39664
1.35448
1.31746
1.29539
1.29516
1.39462
1.57944
1.61104
1.60261
1.57738
1.5342
1.4824
1.44198
1.40958
1.37992
1.34951
1.31713
1.28648
1.2554
1.22684
1.17275
2.0343
1.97585
1.87723
1.79501
1.73222
1.65375
1.58163
1.53379
1.47867
1.41397
1.36554
1.32094
1.29678
1.35846
1.55674
1.61426
1.59703
1.56432
1.51707
1.46961
1.4253
1.38727
1.35698
1.33097
1.3028
1.26883
1.24016
1.21211
1.18787
1.1459
1.99068
1.96338
1.87536
1.78794
1.73193
1.66184
1.59103
1.53961
1.48571
1.42457
1.37051
1.33248
1.35261
1.51735
1.63173
1.60724
1.56879
1.51179
1.45762
1.4116
1.37322
1.33866
1.31137
1.28593
1.26353
1.23328
1.20352
1.1739
1.15025
1.11864
1.90772
1.93716
1.87814
1.79274
1.73268
1.6662
1.59718
1.54423
1.49252
1.43319
1.37782
1.37084
1.50239
1.65118
1.63601
1.59629
1.52987
1.46247
1.41101
1.3659
1.3313
1.29847
1.26991
1.24971
1.22095
1.18968
1.16381
1.1442
1.12268
1.09318
1.73528
1.94011
1.89292
1.80949
1.73946
1.67233
1.60458
1.54939
1.49808
1.43508
1.40539
1.49539
1.68396
1.68885
1.64056
1.56441
1.49284
1.42651
1.37939
1.33721
1.29462
1.25805
1.22502
1.20577
1.1831
1.15572
1.13663
1.11879
1.09517
1.07295
1.3695
1.88513
1.88819
1.8279
1.75056
1.68127
1.61314
1.55716
1.49933
1.44674
1.48808
1.69564
1.75882
1.70142
1.61571
1.53459
1.46281
1.40585
1.35684
1.31059
1.26517
1.22349
1.19197
1.17371
1.15167
1.12634
1.11006
1.0924
1.06908
1.05606
1.09602
1.72755
1.87611
1.82717
1.75685
1.69099
1.62414
1.56397
1.50239
1.50498
1.69027
1.81563
1.77013
1.69146
1.5973
1.51253
1.4388
1.37902
1.32653
1.27781
1.23438
1.19341
1.16436
1.1444
1.12105
1.09796
1.08295
1.06971
1.04925
1.04276
1.00775
1.57249
1.82939
1.81381
1.76349
1.70245
1.63792
1.56594
1.53515
1.66798
1.85609
1.82408
1.74892
1.6623
1.57202
1.48974
1.41482
1.35334
1.29933
1.24987
1.20671
1.16833
1.14359
1.12154
1.09765
1.07668
1.06203
1.05321
1.03714
1.03372
1.00012
1.3385
1.73113
1.79836
1.75966
1.70184
1.63061
1.57451
1.64654
1.87368
1.90051
1.83649
1.73299
1.62718
1.53734
1.46143
1.39154
1.33213
1.2795
1.23224
1.18858
1.15194
1.12823
1.10603
1.08319
1.06399
1.04909
1.04052
1.02675
1.0213
1
1.11743
1.58725
1.7635
1.74232
1.69496
1.61744
1.6358
1.86286
1.94924
1.88438
1.79171
1.68364
1.58331
1.50257
1.43276
1.36818
1.3121
1.26213
1.21522
1.17554
1.14271
1.11928
1.09809
1.07723
1.05921
1.04406
1.03054
1.01682
1.00602
1
1.01897
1.41994
1.69149
1.72105
1.67923
1.65412
1.82824
2.0117
1.95474
1.8441
1.73299
1.63494
1.54675
1.47582
1.41449
1.35542
1.30086
1.25199
1.2076
1.16831
1.14877
1.12692
1.10306
1.08162
1.06341
1.04504
1.02371
1.00912
0.994232
1
1.00143
1.21055
1.58069
1.6908
1.67102
1.80076
2.01613
1.98312
1.89455
1.78999
1.69481
1.62112
1.54454
1.46588
1.40295
1.35381
1.30832
1.26361
1.21877
1.17428
1.13859
1.11081
1.08685
1.06743
1.04954
1.03141
1.01426
1.00224
0.985483
1
1.00006
1.05508
1.45277
1.60672
1.73511
2.03991
2.04035
1.95678
1.84321
1.7464
1.6632
1.59024
1.51664
1.44905
1.39374
1.34776
1.30202
1.25595
1.21152
1.17159
1.13547
1.10535
1.08092
1.06205
1.04492
1.02799
1.01147
0.999295
0.982225
1
1
1.00658
1.26924
1.55808
1.89789
2.03216
2.00321
1.91877
1.81334
1.72322
1.64524
1.57243
1.51035
1.45486
1.40497
1.35763
1.30981
1.26223
1.21826
1.17942
1.14406
1.11389
1.08963
1.06968
1.05132
1.03358
1.01614
1.00246
0.984041
1
1
1.00039
1.1014
1.63518
2.05114
2.11826
2.00821
1.89976
1.80177
1.71412
1.63515
1.55836
1.49068
1.43645
1.38817
1.34036
1.29232
1.24452
1.20157
1.16366
1.12922
1.09959
1.07562
1.05644
1.03873
1.02087
1.00349
0.990444
0.972967
)
;

boundaryField
{
    inlet
    {
        type            fixedValue;
        value           uniform 1;
    }
    outlet
    {
        type            inletOutlet;
        inletValue      uniform 1;
        value           nonuniform List<scalar> 
30
(
1.86161
1.85997
1.83325
1.76807
1.68395
1.58566
1.49264
1.45398
1.50868
1.53163
1.47757
1.39723
1.32666
1.2713
1.21039
1.17177
1.14486
1.11811
1.09246
1.07269
1.05648
1.04361
1.0346
1.02182
1.0062
0.994393
0.985726
0.982441
0.984318
0.973238
)
;
    }
    top
    {
        type            symmetryPlane;
    }
    bottom
    {
        type            symmetryPlane;
    }
    step
    {
        type            zeroGradient;
    }
    defaultFaces
    {
        type            empty;
    }
}


// ************************************************************************* //
