/*--------------------------------*- C++ -*----------------------------------*\
  =========                 |
  \\      /  F ield         | OpenFOAM: The Open Source CFD Toolbox
   \\    /   O peration     | Website:  https://openfoam.org
    \\  /    A nd           | Version:  6.0
     \\/     M anipulation  |
\*---------------------------------------------------------------------------*/
FoamFile
{
    version     2.0;
    format      ascii;
    class       volVectorField;
    location    "1.00083";
    object      U;
}
// * * * * * * * * * * * * * * * * * * * * * * * * * * * * * * * * * * * * * //

dimensions      [0 1 -1 0 0 0 0];

internalField   nonuniform List<vector> 
2700
(
(3 -1.92599e-16 0)
(3 -6.25774e-17 0)
(3 -2.62246e-16 0)
(3 1.21361e-16 0)
(3 4.6362e-17 0)
(3 5.69702e-16 0)
(3 -4.12334e-16 0)
(3 -3.08153e-16 0)
(3 -5.73302e-16 0)
(3 -1.48599e-16 0)
(3 1.63081e-16 0)
(3 2.39578e-16 0)
(3 -1.66418e-17 0)
(3 1.15549e-16 0)
(3 2.8947e-17 0)
(3 -9.05753e-16 0)
(2.84763 -0.000394989 0)
(0.934947 0.00639697 0)
(0.65604 0.00934238 0)
(0.61783 0.00414944 0)
(0.573835 0.00430777 0)
(0.524397 0.00634825 0)
(0.465427 0.0111974 0)
(0.406362 0.00983849 0)
(0.368276 0.00754605 0)
(0.306974 0.009875 0)
(0.245729 0.0158848 0)
(0.153054 0.0258848 0)
(0.0761785 0.0252553 0)
(0.0338216 0.0171571 0)
(3 -1.27831e-16 0)
(3 1.33768e-16 0)
(3 -4.87099e-18 0)
(3 2.66535e-16 0)
(3 -2.01556e-16 0)
(3 -1.74815e-16 0)
(3 -7.34449e-16 0)
(3 -9.63389e-16 0)
(3 -8.53417e-16 0)
(3 -3.68713e-16 0)
(3 -7.13837e-17 0)
(3 -1.46525e-16 0)
(3 7.02634e-17 0)
(3 3.6042e-16 0)
(3 5.08389e-16 0)
(3 -1.03765e-15 0)
(2.84169 0.000904345 0)
(0.931598 0.0217443 0)
(0.651938 0.0263975 0)
(0.616308 0.0195516 0)
(0.573566 0.0142454 0)
(0.52467 0.00477213 0)
(0.473852 0.00711152 0)
(0.417737 0.0315678 0)
(0.368889 0.0315368 0)
(0.308015 0.0188105 0)
(0.240734 -0.00483255 0)
(0.16234 -0.00921994 0)
(0.0870481 0.037626 0)
(0.034218 0.0606727 0)
(3 4.05052e-16 0)
(3 5.34646e-16 0)
(3 5.83842e-16 0)
(3 -1.37295e-16 0)
(3 -5.7868e-16 0)
(3 -8.74164e-16 0)
(3 5.10602e-16 0)
(3 3.71049e-17 0)
(3 -5.0469e-16 0)
(3 -5.45246e-16 0)
(3 -2.92517e-16 0)
(3 -1.02007e-15 0)
(3 -3.22711e-16 0)
(3 6.58679e-16 0)
(3 4.0827e-16 0)
(3 3.72419e-16 0)
(2.83831 0.00697916 0)
(0.932743 0.0410471 0)
(0.652039 0.0362233 0)
(0.615219 0.0301663 0)
(0.567159 0.02881 0)
(0.517344 0.0206446 0)
(0.472613 0.0336144 0)
(0.418903 0.0665412 0)
(0.35595 0.0757875 0)
(0.294518 0.0392978 0)
(0.232202 0.0120364 0)
(0.166851 0.0160488 0)
(0.104833 0.0650921 0)
(0.0337151 0.0986215 0)
(3 -1.33362e-17 0)
(3 8.14399e-17 0)
(3 -3.33615e-16 0)
(3 -1.0449e-15 0)
(3 -1.091e-15 0)
(3 1.98446e-16 0)
(3 3.64838e-16 0)
(3 1.98273e-16 0)
(3 -6.65014e-16 0)
(3 -7.7344e-16 0)
(3 -1.78754e-16 0)
(3 -4.79686e-16 0)
(3 2.11617e-16 0)
(3 7.06121e-16 0)
(3 1.44082e-15 0)
(3 1.37369e-15 0)
(2.83983 0.0163275 0)
(0.936646 0.0607957 0)
(0.654419 0.0444087 0)
(0.615838 0.0360378 0)
(0.565865 0.044785 0)
(0.519198 0.0573925 0)
(0.481462 0.0756874 0)
(0.423785 0.0937487 0)
(0.353178 0.103825 0)
(0.279837 0.081675 0)
(0.223283 0.0389729 0)
(0.174764 0.0412048 0)
(0.120936 0.077705 0)
(0.0389048 0.112146 0)
(3 -6.35533e-16 0)
(3 -5.55337e-16 0)
(3 -7.31548e-16 0)
(3 -1.59789e-15 0)
(3 -1.3893e-15 0)
(3 8.15755e-16 0)
(3 6.45234e-16 0)
(3 1.93418e-16 0)
(3 -3.81497e-16 0)
(3 -8.60915e-16 0)
(3 -5.78207e-16 0)
(3 1.05354e-16 0)
(3 8.03336e-17 0)
(3 8.9328e-16 0)
(3 2.06178e-15 0)
(3 1.65938e-15 0)
(2.84598 0.0268904 0)
(0.942289 0.0802036 0)
(0.659001 0.051178 0)
(0.620324 0.0437444 0)
(0.569832 0.0660671 0)
(0.519941 0.0966095 0)
(0.480943 0.103177 0)
(0.423206 0.10225 0)
(0.349432 0.0963646 0)
(0.269698 0.0962896 0)
(0.211392 0.10388 0)
(0.17426 0.0921174 0)
(0.132642 0.0916198 0)
(0.0446338 0.107478 0)
(3 2.13529e-16 0)
(3 -7.22101e-17 0)
(3 -9.95338e-16 0)
(3 -8.55919e-16 0)
(3 -3.72768e-16 0)
(3 2.22748e-16 0)
(3 9.58742e-16 0)
(3 3.58052e-16 0)
(3 4.96365e-16 0)
(3 -2.62925e-16 0)
(3 -7.39652e-16 0)
(3 -6.06262e-16 0)
(3 1.88231e-16 0)
(3 5.82167e-16 0)
(3 9.47118e-16 0)
(3 7.29084e-16 0)
(2.85807 0.0367037 0)
(0.950009 0.0981306 0)
(0.666016 0.0597857 0)
(0.628273 0.0526728 0)
(0.580013 0.0808708 0)
(0.526477 0.111187 0)
(0.475711 0.118321 0)
(0.420208 0.0968483 0)
(0.350903 0.0908099 0)
(0.272416 0.110657 0)
(0.214707 0.131984 0)
(0.16808 0.142611 0)
(0.127878 0.128795 0)
(0.0457238 0.100176 0)
(3 6.07725e-16 0)
(3 5.89508e-16 0)
(3 -1.08792e-15 0)
(3 -5.26263e-16 0)
(3 -2.02523e-16 0)
(3 -3.24919e-17 0)
(3 -2.11298e-17 0)
(3 -4.17513e-16 0)
(3 -7.80978e-16 0)
(3 -1.05406e-15 0)
(3 -3.71609e-16 0)
(3 -4.98421e-17 0)
(3 5.43651e-16 0)
(3 5.25232e-16 0)
(3 7.71285e-16 0)
(3 3.46849e-16 0)
(2.87716 0.042287 0)
(0.961832 0.115132 0)
(0.670511 0.0790396 0)
(0.635228 0.0657799 0)
(0.588486 0.0882759 0)
(0.530766 0.111166 0)
(0.469863 0.119885 0)
(0.411643 0.104221 0)
(0.349084 0.0838548 0)
(0.288152 0.103942 0)
(0.230041 0.156848 0)
(0.169944 0.19238 0)
(0.117847 0.173272 0)
(0.0428976 0.12276 0)
(3 -5.86542e-18 0)
(3 6.28849e-16 0)
(3 -1.63329e-16 0)
(3 -4.74384e-16 0)
(3 -3.04054e-17 0)
(3 4.48046e-16 0)
(3 -8.28606e-16 0)
(3 -6.77758e-16 0)
(3 -6.63837e-16 0)
(3 -7.31384e-16 0)
(3 4.14331e-17 0)
(3 -7.20919e-17 0)
(3 2.09424e-16 0)
(3 1.59606e-16 0)
(3 1.09656e-16 0)
(3 -7.01803e-16 0)
(2.90128 0.0448642 0)
(0.979093 0.131829 0)
(0.675552 0.101464 0)
(0.640703 0.0820263 0)
(0.592812 0.0920761 0)
(0.533901 0.111491 0)
(0.469958 0.125369 0)
(0.405403 0.12405 0)
(0.34957 0.117015 0)
(0.304065 0.141327 0)
(0.244226 0.183661 0)
(0.170493 0.207537 0)
(0.0956389 0.191946 0)
(0.0385927 0.1418 0)
(3 -2.84517e-16 0)
(3 -3.93868e-16 0)
(3 5.00353e-16 0)
(3 -3.18867e-16 0)
(3 -2.72656e-16 0)
(3 -1.12487e-16 0)
(3 -1.95823e-16 0)
(3 -6.38467e-16 0)
(3 -6.38102e-16 0)
(3 3.76233e-16 0)
(3 1.10192e-15 0)
(3 9.54124e-16 0)
(3 8.93018e-16 0)
(3 1.69071e-16 0)
(3 -1.3956e-15 0)
(3 -1.87428e-15 0)
(2.92993 0.0469519 0)
(1.00059 0.146845 0)
(0.67869 0.115963 0)
(0.642168 0.105639 0)
(0.590341 0.108702 0)
(0.539113 0.114072 0)
(0.474667 0.132362 0)
(0.410336 0.159898 0)
(0.353782 0.174216 0)
(0.314021 0.179467 0)
(0.255006 0.196653 0)
(0.171188 0.214255 0)
(0.0784523 0.191218 0)
(0.033971 0.14483 0)
(3 -8.1872e-17 0)
(3 -5.23217e-16 0)
(3 -1.68097e-18 0)
(3 1.32184e-16 0)
(3 -6.25221e-16 0)
(3 -6.41823e-16 0)
(3 -2.86367e-16 0)
(3 -8.48261e-16 0)
(3 -9.05882e-16 0)
(3 7.34855e-16 0)
(3 1.03303e-15 0)
(3 9.97251e-16 0)
(3 1.36584e-15 0)
(3 4.28251e-17 0)
(3 -6.62224e-16 0)
(3 -1.31414e-15 0)
(2.96043 0.0387189 0)
(1.02205 0.161094 0)
(0.688244 0.12202 0)
(0.644642 0.120472 0)
(0.587891 0.138019 0)
(0.536077 0.154559 0)
(0.47884 0.168339 0)
(0.413967 0.1946 0)
(0.352453 0.223829 0)
(0.308484 0.22769 0)
(0.256393 0.210433 0)
(0.168629 0.195227 0)
(0.0735015 0.185445 0)
(0.0340224 0.176564 0)
(3 9.67894e-17 0)
(3 6.62586e-17 0)
(3 9.72029e-17 0)
(3 4.96911e-16 0)
(3 1.33734e-16 0)
(3 -7.16963e-16 0)
(3 -1.23473e-15 0)
(3 -7.88029e-16 0)
(3 2.67533e-16 0)
(3 9.4024e-16 0)
(3 2.95492e-16 0)
(3 7.06935e-16 0)
(3 1.00591e-15 0)
(3 -9.21654e-17 0)
(3 3.58686e-16 0)
(3 2.05212e-16 0)
(2.98467 0.0278565 0)
(1.04485 0.170539 0)
(0.697607 0.127634 0)
(0.650496 0.131828 0)
(0.596292 0.163481 0)
(0.535032 0.198273 0)
(0.482912 0.201249 0)
(0.426203 0.216068 0)
(0.366082 0.253735 0)
(0.308518 0.263537 0)
(0.245448 0.231895 0)
(0.159999 0.188975 0)
(0.071954 0.178552 0)
(0.0391435 0.211911 0)
(3 3.53817e-16 0)
(3 4.07901e-16 0)
(3 1.71594e-16 0)
(3 -1.63526e-17 0)
(3 6.18404e-16 0)
(3 -2.47996e-16 0)
(3 -6.5565e-16 0)
(3 -9.78534e-17 0)
(3 2.11261e-16 0)
(3 6.74819e-16 0)
(3 4.74852e-16 0)
(3 8.93752e-16 0)
(3 1.13656e-15 0)
(3 1.39418e-16 0)
(3 8.83966e-16 0)
(3 3.04583e-16 0)
(3.00056 0.00759087 0)
(1.07416 0.177461 0)
(0.700113 0.141816 0)
(0.655689 0.150095 0)
(0.603771 0.175495 0)
(0.538948 0.202631 0)
(0.473464 0.219106 0)
(0.434465 0.230707 0)
(0.376543 0.248151 0)
(0.305006 0.264998 0)
(0.224755 0.221382 0)
(0.149903 0.172056 0)
(0.0874947 0.217456 0)
(0.053497 0.301661 0)
(3 -1.86205e-16 0)
(3 -1.18484e-16 0)
(3 -2.8465e-16 0)
(3 -4.00314e-16 0)
(3 -1.63606e-16 0)
(3 1.12607e-16 0)
(3 2.48504e-16 0)
(3 3.18768e-16 0)
(3 -5.07143e-16 0)
(3 1.72314e-16 0)
(3 1.2875e-15 0)
(3 5.97065e-16 0)
(3 1.3953e-16 0)
(3 3.92506e-16 0)
(3 3.82535e-16 0)
(3 -1.16904e-15 0)
(3.00023 0.000321969 0)
(1.10944 0.192093 0)
(0.705911 0.163597 0)
(0.659318 0.159361 0)
(0.606918 0.16607 0)
(0.541497 0.195206 0)
(0.476433 0.23786 0)
(0.431618 0.265528 0)
(0.376066 0.260145 0)
(0.307104 0.23495 0)
(0.208835 0.20843 0)
(0.155258 0.222024 0)
(0.116102 0.28 0)
(0.0635447 0.342014 0)
(3 -3.03497e-16 0)
(3 -4.41998e-16 0)
(3 -1.77759e-16 0)
(3 -3.10093e-16 0)
(3 -4.6298e-16 0)
(3 -2.74182e-16 0)
(3 2.91744e-16 0)
(3 2.71296e-16 0)
(3 3.99247e-16 0)
(3 7.24243e-16 0)
(3 6.68031e-16 0)
(3 1.96998e-16 0)
(3 2.73979e-17 0)
(3 -1.7804e-16 0)
(3 -1.256e-15 0)
(3 -2.47259e-15 0)
(3 1.02122e-06 0)
(1.1533 0.209277 0)
(0.706208 0.185214 0)
(0.658198 0.17328 0)
(0.606044 0.164367 0)
(0.551496 0.186949 0)
(0.494327 0.269345 0)
(0.434291 0.309406 0)
(0.366643 0.289959 0)
(0.287924 0.213309 0)
(0.221414 0.19749 0)
(0.176911 0.258466 0)
(0.149942 0.370655 0)
(0.0669795 0.386391 0)
(3 -1.02899e-16 0)
(3 3.88278e-16 0)
(3 3.12787e-16 0)
(3 6.28438e-16 0)
(3 2.02042e-16 0)
(3 -9.48851e-17 0)
(3 2.29371e-16 0)
(3 8.27859e-16 0)
(3 7.53319e-16 0)
(3 3.09146e-16 0)
(3 3.13949e-16 0)
(3 3.76975e-16 0)
(3 3.40326e-16 0)
(3 -6.962e-16 0)
(3 -1.87214e-15 0)
(3 -2.38992e-15 0)
(3 2.41129e-11 0)
(1.20468 0.222356 0)
(0.709134 0.191541 0)
(0.653629 0.187761 0)
(0.601923 0.199773 0)
(0.565236 0.247376 0)
(0.507018 0.299715 0)
(0.430379 0.32728 0)
(0.35339 0.281233 0)
(0.273813 0.241643 0)
(0.239656 0.289634 0)
(0.202769 0.38765 0)
(0.151196 0.401455 0)
(0.0662891 0.351013 0)
(3 2.73764e-16 0)
(3 9.44126e-16 0)
(3 5.38846e-16 0)
(3 6.02543e-16 0)
(3 4.45887e-16 0)
(3 -2.49327e-16 0)
(3 7.36457e-17 0)
(3 2.91328e-16 0)
(3 2.38523e-16 0)
(3 -1.6619e-16 0)
(3 -2.92218e-17 0)
(3 -1.8671e-16 0)
(3 -6.88505e-16 0)
(3 -1.30253e-15 0)
(3 -1.10707e-15 0)
(3 -1.87387e-15 0)
(3 -5.69888e-15 0)
(1.2622 0.234903 0)
(0.71384 0.196649 0)
(0.660991 0.209359 0)
(0.617036 0.260545 0)
(0.565629 0.300138 0)
(0.506234 0.305543 0)
(0.430091 0.290581 0)
(0.340543 0.268979 0)
(0.290636 0.286854 0)
(0.278296 0.39398 0)
(0.205936 0.41926 0)
(0.133521 0.401311 0)
(0.0533291 0.286394 0)
(3 1.14476e-16 0)
(3 -1.50709e-16 0)
(3 3.54047e-16 0)
(3 2.53519e-17 0)
(3 -8.90539e-17 0)
(3 5.05607e-17 0)
(3 3.21151e-16 0)
(3 7.78312e-17 0)
(3 -6.32104e-17 0)
(3 -3.54457e-16 0)
(3 -1.18678e-15 0)
(3 -2.78173e-16 0)
(3 -8.34396e-16 0)
(3 -1.41827e-15 0)
(3 -1.5325e-15 0)
(3 -1.09266e-15 0)
(3 -4.94512e-15 0)
(1.32392 0.259741 0)
(0.724291 0.215071 0)
(0.669676 0.264474 0)
(0.615952 0.297374 0)
(0.555044 0.313799 0)
(0.494328 0.2944 0)
(0.422176 0.254977 0)
(0.355307 0.272721 0)
(0.332321 0.384172 0)
(0.292367 0.444581 0)
(0.197449 0.464965 0)
(0.0923019 0.375089 0)
(0.0482512 0.292351 0)
(3 -4.02012e-16 0)
(3 -5.07026e-16 0)
(3 3.51396e-16 0)
(3 5.06691e-17 0)
(3 -9.56381e-17 0)
(3 2.8871e-16 0)
(3 -4.58922e-17 0)
(3 -7.92234e-16 0)
(3 -1.14255e-15 0)
(3 -6.59155e-16 0)
(3 -1.02904e-15 0)
(3 -5.74089e-16 0)
(3 -1.08594e-15 0)
(3 -2.03155e-15 0)
(3 -1.8296e-15 0)
(3 -1.41464e-15 0)
(3 -2.6464e-15 0)
(1.39314 0.289593 0)
(0.743597 0.260736 0)
(0.672691 0.283945 0)
(0.616742 0.289079 0)
(0.54618 0.286961 0)
(0.475904 0.271313 0)
(0.418779 0.267839 0)
(0.3919 0.334284 0)
(0.354485 0.426421 0)
(0.306866 0.443489 0)
(0.193514 0.439568 0)
(0.0517609 0.367855 0)
(0.050021 0.32469 0)
(3 2.61133e-16 0)
(3 2.54324e-18 0)
(3 -3.35433e-16 0)
(3 -1.73734e-16 0)
(3 1.22814e-16 0)
(3 2.98719e-16 0)
(3 -4.09048e-16 0)
(3 -1.07483e-15 0)
(3 -7.19125e-16 0)
(3 -4.32602e-16 0)
(3 -3.45631e-16 0)
(3 -1.51464e-15 0)
(3 -1.69678e-15 0)
(3 -1.13614e-15 0)
(3 -1.51003e-16 0)
(3 9.86534e-17 0)
(3 -1.77959e-15 0)
(1.48087 0.304317 0)
(0.750938 0.298131 0)
(0.665156 0.301502 0)
(0.601871 0.270443 0)
(0.534235 0.265516 0)
(0.475743 0.287609 0)
(0.439012 0.321807 0)
(0.423557 0.41394 0)
(0.367786 0.420534 0)
(0.304451 0.397141 0)
(0.178365 0.318531 0)
(0.0518116 0.389613 0)
(0.0576026 0.444427 0)
(3 2.22169e-16 0)
(3 -2.75548e-16 0)
(3 -1.06427e-15 0)
(3 -7.31351e-16 0)
(3 1.84661e-16 0)
(3 1.22999e-16 0)
(3 -3.39855e-16 0)
(3 7.19707e-17 0)
(3 4.98067e-17 0)
(3 -5.77205e-17 0)
(3 -7.19558e-17 0)
(3 -3.61337e-16 0)
(3 -7.45336e-16 0)
(3 -2.57974e-16 0)
(3 5.86356e-16 0)
(3 1.38326e-15 0)
(3 4.3968e-16 0)
(1.58365 0.302999 0)
(0.758764 0.310497 0)
(0.64948 0.28668 0)
(0.585248 0.256612 0)
(0.53207 0.272813 0)
(0.493468 0.321916 0)
(0.473356 0.440544 0)
(0.425933 0.45204 0)
(0.364069 0.435905 0)
(0.269698 0.321441 0)
(0.189646 0.312621 0)
(0.106108 0.413062 0)
(0.0782957 0.557199 0)
(3 -2.17304e-16 0)
(3 -5.34025e-16 0)
(3 -6.22023e-16 0)
(3 -6.68819e-16 0)
(3 -3.05853e-16 0)
(3 3.3608e-16 0)
(3 -3.12305e-16 0)
(3 1.24823e-17 0)
(3 -5.14484e-16 0)
(3 -8.19246e-16 0)
(3 1.64838e-16 0)
(3 1.23661e-15 0)
(3 8.78191e-16 0)
(3 4.97154e-16 0)
(3 1.32636e-16 0)
(3 2.0902e-16 0)
(3 -6.91212e-16 0)
(1.69409 0.291245 0)
(0.753095 0.308224 0)
(0.628556 0.270314 0)
(0.57911 0.27704 0)
(0.549112 0.317888 0)
(0.532019 0.428554 0)
(0.486558 0.451488 0)
(0.433523 0.458776 0)
(0.344673 0.379071 0)
(0.252811 0.322114 0)
(0.205982 0.341542 0)
(0.159847 0.46151 0)
(0.0974276 0.606543 0)
(3 7.54305e-17 0)
(3 -2.34875e-16 0)
(3 -2.36917e-16 0)
(3 -3.93563e-16 0)
(3 -5.03578e-16 0)
(3 -3.39902e-16 0)
(3 -3.27419e-16 0)
(3 4.03086e-17 0)
(3 -2.02367e-16 0)
(3 -2.29578e-16 0)
(3 1.11491e-15 0)
(3 1.62205e-15 0)
(3 1.01584e-15 0)
(3 6.29373e-16 0)
(3 -3.50974e-16 0)
(3 -5.61176e-16 0)
(3 -1.69062e-15 0)
(1.8031 0.280268 0)
(0.739344 0.287391 0)
(0.62136 0.278775 0)
(0.597795 0.327034 0)
(0.576786 0.420862 0)
(0.542173 0.438079 0)
(0.50162 0.43023 0)
(0.431075 0.388904 0)
(0.328677 0.353374 0)
(0.258905 0.355284 0)
(0.236134 0.433596 0)
(0.215412 0.587754 0)
(0.110018 0.642171 0)
(3 2.77928e-16 0)
(3 2.0354e-16 0)
(3 -5.57959e-16 0)
(3 -9.27924e-16 0)
(3 -8.90487e-16 0)
(3 -8.12988e-16 0)
(3 -7.47635e-17 0)
(3 1.29117e-16 0)
(3 7.95198e-17 0)
(3 2.96704e-16 0)
(3 4.46445e-16 0)
(3 3.86509e-16 0)
(3 6.66502e-16 0)
(3 1.66255e-16 0)
(3 3.68972e-17 0)
(3 -5.88585e-16 0)
(3 -1.56387e-15 0)
(1.89692 0.298071 0)
(0.729311 0.309075 0)
(0.641075 0.351153 0)
(0.630589 0.415374 0)
(0.596208 0.436742 0)
(0.550345 0.458893 0)
(0.496878 0.424183 0)
(0.41815 0.315709 0)
(0.355078 0.352022 0)
(0.315575 0.5095 0)
(0.262619 0.632326 0)
(0.211244 0.646804 0)
(0.0974645 0.525191 0)
(3 2.54622e-16 0)
(3 3.97341e-16 0)
(3 5.70706e-16 0)
(3 -3.83651e-17 0)
(3 -8.1036e-16 0)
(3 -6.25732e-16 0)
(3 -3.53851e-16 0)
(3 -6.3286e-16 0)
(3 -7.61455e-16 0)
(3 -4.85424e-16 0)
(3 -5.40323e-16 0)
(3 2.25824e-16 0)
(3 9.13577e-16 0)
(3 9.41522e-16 0)
(3 3.51332e-16 0)
(3 -6.03741e-17 0)
(3 -1.31725e-15 0)
(1.98167 0.353016 0)
(0.7592 0.387181 0)
(0.671147 0.428271 0)
(0.657258 0.429611 0)
(0.620934 0.428705 0)
(0.563382 0.404051 0)
(0.479317 0.340176 0)
(0.420658 0.342224 0)
(0.397222 0.382567 0)
(0.386676 0.609107 0)
(0.273712 0.684256 0)
(0.185532 0.662 0)
(0.0757399 0.492268 0)
(3 -5.16111e-16 0)
(3 1.67626e-16 0)
(3 8.03281e-16 0)
(3 2.58213e-16 0)
(3 -2.37203e-16 0)
(3 -4.61232e-19 0)
(3 4.75591e-17 0)
(3 -9.2623e-16 0)
(3 -1.0027e-15 0)
(3 -1.34884e-15 0)
(3 -6.90222e-16 0)
(3 1.01048e-15 0)
(3 2.33601e-15 0)
(3 2.23347e-15 0)
(3 3.40826e-16 0)
(3 -1.02706e-16 0)
(3 -6.40191e-16 0)
(2.15813 0.402983 0)
(0.822866 0.47549 0)
(0.710963 0.436262 0)
(0.699623 0.425947 0)
(0.635489 0.391335 0)
(0.56729 0.32525 0)
(0.502908 0.334029 0)
(0.458129 0.36855 0)
(0.460943 0.525528 0)
(0.431824 0.639432 0)
(0.277876 0.725789 0)
(0.115509 0.632771 0)
(0.0717329 0.502715 0)
(3 3.48996e-17 0)
(3 -3.86049e-16 0)
(3 -3.74571e-16 0)
(3 6.03815e-17 0)
(3 2.83821e-16 0)
(3 -7.33777e-16 0)
(3 -6.74015e-16 0)
(3 -8.67005e-16 0)
(3 -6.99422e-16 0)
(3 -3.53458e-16 0)
(3 3.34927e-16 0)
(3 1.94377e-15 0)
(3 2.56943e-15 0)
(3 1.43517e-15 0)
(3 2.39489e-16 0)
(3 3.85038e-16 0)
(3 -4.81471e-16 0)
(2.43118 0.399343 0)
(0.915712 0.501025 0)
(0.773502 0.430222 0)
(0.736185 0.381704 0)
(0.657272 0.315745 0)
(0.595626 0.332944 0)
(0.542368 0.364445 0)
(0.518261 0.532275 0)
(0.493039 0.617291 0)
(0.465624 0.631849 0)
(0.287305 0.696548 0)
(0.054485 0.643828 0)
(0.0737868 0.548954 0)
(3 -2.65558e-17 0)
(3 -5.70421e-16 0)
(3 -7.97253e-16 0)
(3 -2.13366e-16 0)
(3 -2.76404e-16 0)
(3 -9.85767e-16 0)
(3 -1.01964e-15 0)
(3 -5.81307e-16 0)
(3 -2.64725e-16 0)
(3 1.03524e-15 0)
(3 4.57007e-16 0)
(3 7.41174e-16 0)
(3 6.1316e-16 0)
(3 1.00389e-15 0)
(3 1.04907e-15 0)
(3 3.36984e-16 0)
(3 -1.86199e-15 0)
(2.73329 0.328074 0)
(1.03274 0.469553 0)
(0.822644 0.416238 0)
(0.766523 0.312111 0)
(0.6941 0.323281 0)
(0.642544 0.363043 0)
(0.622813 0.518817 0)
(0.565433 0.625952 0)
(0.50379 0.623866 0)
(0.459313 0.583046 0)
(0.296971 0.51901 0)
(0.0842974 0.70156 0)
(0.102305 0.859949 0)
(3 -7.69092e-18 0)
(3 1.5628e-16 0)
(3 -3.1422e-16 0)
(3 -2.35418e-16 0)
(3 -1.43427e-16 0)
(3 1.70082e-16 0)
(3 -2.03532e-16 0)
(3 -1.19928e-15 0)
(3 -3.4136e-16 0)
(3 -1.52182e-16 0)
(3 3.82687e-16 0)
(3 -6.43715e-17 0)
(3 4.42441e-16 0)
(3 8.34114e-16 0)
(3 -7.68234e-17 0)
(3 -2.37843e-16 0)
(3 -1.83414e-15 0)
(2.93752 0.197943 0)
(1.09885 0.397177 0)
(0.826711 0.341547 0)
(0.784009 0.32281 0)
(0.727425 0.354203 0)
(0.709063 0.505072 0)
(0.669804 0.61973 0)
(0.573792 0.65711 0)
(0.496146 0.63089 0)
(0.423789 0.491596 0)
(0.327519 0.535345 0)
(0.189071 0.781128 0)
(0.144707 1.02601 0)
(3 2.72705e-16 0)
(3 4.23786e-16 0)
(3 -2.32204e-16 0)
(3 -7.9116e-16 0)
(3 1.33455e-16 0)
(3 2.35121e-16 0)
(3 -3.6295e-16 0)
(3 -5.48089e-17 0)
(3 4.05478e-16 0)
(3 7.38395e-17 0)
(3 2.45094e-16 0)
(3 3.05487e-16 0)
(3 8.01154e-16 0)
(3 1.64202e-16 0)
(3 -6.3464e-16 0)
(3 -3.18558e-16 0)
(3 -9.02955e-16 0)
(2.95652 0.101378 0)
(1.09494 0.341128 0)
(0.791979 0.333904 0)
(0.796806 0.352804 0)
(0.781978 0.520222 0)
(0.747133 0.614275 0)
(0.692199 0.630462 0)
(0.597996 0.655065 0)
(0.480611 0.587687 0)
(0.426175 0.482687 0)
(0.379499 0.551187 0)
(0.322038 0.828012 0)
(0.18565 1.17136 0)
(3 -3.46496e-17 0)
(3 2.78286e-16 0)
(3 -1.21282e-16 0)
(3 -6.29248e-16 0)
(3 6.94041e-16 0)
(3 7.35913e-16 0)
(3 -1.04151e-15 0)
(3 1.09819e-16 0)
(3 1.64475e-15 0)
(3 1.07263e-15 0)
(3 5.86113e-16 0)
(3 4.71679e-16 0)
(3 4.30077e-16 0)
(3 3.48354e-16 0)
(3 3.17343e-16 0)
(3 1.87304e-16 0)
(3 -6.65747e-17 0)
(2.95845 0.0685512 0)
(1.05932 0.352157 0)
(0.779151 0.387221 0)
(0.801969 0.526766 0)
(0.772876 0.59923 0)
(0.7446 0.635565 0)
(0.717736 0.621435 0)
(0.611056 0.561392 0)
(0.479742 0.523324 0)
(0.453193 0.532888 0)
(0.436281 0.618668 0)
(0.509316 0.897281 0)
(0.244704 1.29734 0)
(3 3.86722e-17 0)
(3 7.51146e-18 0)
(3 1.19893e-16 0)
(3 8.17338e-16 0)
(3 9.15945e-16 0)
(3 1.01314e-15 0)
(3 6.81105e-16 0)
(3 5.78059e-16 0)
(3 8.16065e-16 0)
(3 9.44855e-16 0)
(3 1.3598e-16 0)
(3 -2.17749e-16 0)
(3 -8.09577e-17 0)
(3 3.94191e-16 0)
(3 3.46765e-16 0)
(3 1.47703e-16 0)
(3 2.14618e-16 0)
(3.00242 0.00829954 0)
(1.25141 0.464898 0)
(0.799209 0.510955 0)
(0.786632 0.524316 0)
(0.759437 0.537095 0)
(0.723582 0.534178 0)
(0.668785 0.532439 0)
(0.629044 0.541162 0)
(0.600157 0.632099 0)
(0.593403 0.792253 0)
(0.559083 0.927882 0)
(0.636814 1.03172 0)
(0.780339 1.18712 0)
(3 -1.10487e-16 0)
(3 -1.89508e-16 0)
(3 1.27758e-16 0)
(3 3.23409e-16 0)
(3 1.94424e-16 0)
(3 2.27132e-16 0)
(3 1.21972e-15 0)
(3 1.67254e-15 0)
(3 9.08367e-16 0)
(3 7.44264e-16 0)
(3 4.35596e-16 0)
(3 1.40781e-16 0)
(3 1.85494e-16 0)
(3 2.65036e-16 0)
(3 2.19231e-16 0)
(3 3.68234e-16 0)
(3 5.82564e-16 0)
(3.00005 4.1668e-05 0)
(1.91877 0.498731 0)
(0.874825 0.543158 0)
(0.769465 0.53184 0)
(0.750703 0.54996 0)
(0.730383 0.574585 0)
(0.717157 0.615439 0)
(0.716004 0.680928 0)
(0.709949 0.739737 0)
(0.704989 0.813044 0)
(0.704374 0.923221 0)
(0.789152 1.05267 0)
(1.08752 1.15437 0)
(3 8.34947e-17 0)
(3 1.93979e-17 0)
(3 -6.43623e-17 0)
(3 -2.87242e-16 0)
(3 -2.07133e-16 0)
(3 -1.65778e-16 0)
(3 5.80368e-16 0)
(3 1.39342e-15 0)
(3 1.70072e-15 0)
(3 1.16176e-15 0)
(3 1.20672e-15 0)
(3 1.46393e-15 0)
(3 8.26868e-16 0)
(3 -3.40994e-16 0)
(3 -1.09212e-16 0)
(3 4.94167e-16 0)
(3 1.3989e-16 0)
(3 9.49246e-09 0)
(2.89876 0.192138 0)
(1.11933 0.603048 0)
(0.859584 0.572793 0)
(0.827481 0.597613 0)
(0.811044 0.637853 0)
(0.79564 0.678752 0)
(0.781008 0.718215 0)
(0.774407 0.76237 0)
(0.783996 0.822288 0)
(0.84742 0.913024 0)
(1.00762 1.03245 0)
(1.25906 1.10982 0)
(3 6.99784e-18 0)
(3 2.56016e-17 0)
(3 -3.68241e-17 0)
(3 -5.37489e-17 0)
(3 2.76014e-17 0)
(3 1.11075e-16 0)
(3 -1.84451e-16 0)
(3 -1.72972e-16 0)
(3 4.06936e-17 0)
(3 -2.98464e-16 0)
(3 -2.04498e-16 0)
(3 5.46042e-17 0)
(3 2.76815e-16 0)
(3 3.24654e-16 0)
(3 5.6037e-17 0)
(3 -2.29158e-16 0)
(3 -1.90708e-16 0)
(3 -3.70354e-09 0)
(3.02737 0.00476088 0)
(1.59568 0.604804 0)
(0.942119 0.68468 0)
(0.896012 0.680061 0)
(0.875611 0.707374 0)
(0.861197 0.728294 0)
(0.854384 0.754341 0)
(0.861963 0.793155 0)
(0.8942 0.845809 0)
(0.985108 0.912601 0)
(1.12645 0.969207 0)
(1.32992 1.00918 0)
(3 -1.31352e-16 0)
(3 -6.66728e-17 0)
(3 2.54418e-17 0)
(3 1.07062e-16 0)
(3 5.72377e-17 0)
(3 6.93522e-17 0)
(3 -4.08002e-16 0)
(3 -1.09795e-15 0)
(3 -1.70072e-15 0)
(3 -1.36047e-15 0)
(3 -4.60536e-16 0)
(3 -5.12492e-16 0)
(3 -4.43583e-16 0)
(3 -2.51003e-16 0)
(3 1.90358e-17 0)
(3 -1.62408e-16 0)
(3 -4.37267e-16 0)
(3 -1.16527e-09 0)
(3.00026 2.87146e-05 0)
(2.64131 0.34611 0)
(1.14304 0.716967 0)
(0.975193 0.72279 0)
(0.962847 0.7219 0)
(0.954555 0.748914 0)
(0.95393 0.783054 0)
(0.970956 0.818735 0)
(1.01362 0.85566 0)
(1.09853 0.897975 0)
(1.21362 0.925367 0)
(1.3789 0.940986 0)
(3 1.10874e-16 0)
(3 2.93594e-16 0)
(3 5.01659e-16 0)
(3 3.8171e-16 0)
(3 4.88884e-17 0)
(3 -2.13536e-16 0)
(3 -4.24721e-16 0)
(3 -8.65519e-16 0)
(3 -9.57072e-16 0)
(3 -6.91727e-16 0)
(3 -7.99966e-16 0)
(3 -8.55026e-16 0)
(3 -7.1373e-16 0)
(3 -5.07443e-16 0)
(3 -3.94024e-16 0)
(3 -3.84831e-16 0)
(3 -4.92148e-16 0)
(3 -6.60047e-11 0)
(3 -2.37666e-07 0)
(3.03657 0.0202219 0)
(1.65849 0.686549 0)
(1.04729 0.785528 0)
(1.02841 0.783018 0)
(1.03405 0.801398 0)
(1.03961 0.827097 0)
(1.05922 0.845799 0)
(1.10297 0.866356 0)
(1.18008 0.885021 0)
(1.27481 0.894208 0)
(1.40616 0.901867 0)
(3 -9.63539e-17 0)
(3 -7.97364e-17 0)
(3 -7.55232e-17 0)
(3 -1.88298e-16 0)
(3 -3.93388e-16 0)
(3 -5.24889e-16 0)
(3 -5.42816e-16 0)
(3 -6.10155e-16 0)
(3 -6.58683e-16 0)
(3 -6.31082e-16 0)
(3 -6.64262e-16 0)
(3 -7.59916e-16 0)
(3 -7.93905e-16 0)
(3 -2.59474e-17 0)
(3 -2.19195e-16 0)
(3 -3.345e-16 0)
(3 -4.58137e-16 0)
(3 -2.37332e-13 0)
(3 -1.29385e-07 0)
(3.00064 0.000259607 0)
(2.84415 0.269735 0)
(1.30541 0.805904 0)
(1.09124 0.807871 0)
(1.11394 0.811891 0)
(1.12156 0.834364 0)
(1.14318 0.855338 0)
(1.18079 0.875385 0)
(1.24228 0.888753 0)
(1.32031 0.892226 0)
(1.42746 0.893994 0)
(3 -1.34733e-16 0)
(3 -3.10244e-16 0)
(3 -3.06368e-16 0)
(3 -1.71175e-16 0)
(3 -2.38945e-16 0)
(3 -6.40725e-16 0)
(3 -6.01767e-16 0)
(3 -3.6755e-16 0)
(3 -5.48811e-16 0)
(3 -5.78682e-16 0)
(3 -2.55473e-16 0)
(3 -1.83569e-16 0)
(3 -1.47645e-16 0)
(3 -1.24618e-16 0)
(3 -2.05462e-16 0)
(3 2.10275e-16 0)
(3 6.60914e-16 0)
(3 1.65635e-14 0)
(3 -1.53832e-08 0)
(3 1.53416e-07 0)
(3.01885 0.00832034 0)
(2.01622 0.673293 0)
(1.19667 0.866516 0)
(1.14922 0.868667 0)
(1.17878 0.875557 0)
(1.2082 0.881875 0)
(1.2456 0.884879 0)
(1.29689 0.884039 0)
(1.36492 0.882567 0)
(1.45407 0.88187 0)
(3 1.62653e-16 0)
(3 2.17615e-16 0)
(3 2.00111e-16 0)
(3 2.78629e-16 0)
(3 3.20247e-16 0)
(3 -7.0173e-17 0)
(3 -1.90206e-16 0)
(3 -3.40759e-16 0)
(3 -5.89994e-17 0)
(3 -8.38247e-17 0)
(3 1.88876e-16 0)
(3 2.32418e-16 0)
(3 -4.19505e-17 0)
(3 -4.35656e-16 0)
(3 -1.65519e-16 0)
(3 -1.71124e-16 0)
(3 -1.95992e-16 0)
(3 6.32502e-15 0)
(3 -1.56461e-10 0)
(3 -3.23629e-10 0)
(3.00013 8.86744e-05 0)
(2.97186 0.12977 0)
(1.63909 0.82204 0)
(1.22042 0.893438 0)
(1.24735 0.887327 0)
(1.2726 0.891282 0)
(1.30328 0.894317 0)
(1.34532 0.895796 0)
(1.40291 0.89569 0)
(1.47665 0.889144 0)
(3 2.29249e-16 0)
(3 8.43695e-17 0)
(3 -1.46376e-16 0)
(3 -2.253e-16 0)
(3 1.56439e-16 0)
(3 1.49541e-16 0)
(3 -3.93038e-17 0)
(3 6.04729e-16 0)
(3 1.30929e-15 0)
(3 1.30829e-15 0)
(3 7.18905e-16 0)
(3 1.76278e-16 0)
(3 4.0467e-17 0)
(3 -4.53975e-16 0)
(3 -4.87008e-16 0)
(3 -5.98296e-16 0)
(3 -6.69705e-16 0)
(3 -1.09636e-16 0)
(3 -4.76245e-14 0)
(3 -3.86109e-10 0)
(3 2.70214e-08 0)
(3.00339 0.00421821 0)
(2.71023 0.381702 0)
(1.49395 0.900711 0)
(1.28317 0.926836 0)
(1.32976 0.915827 0)
(1.35826 0.910174 0)
(1.39799 0.902673 0)
(1.44843 0.894071 0)
(1.50659 0.882928 0)
(3 -1.10767e-16 0)
(3 -1.68018e-16 0)
(3 -1.8234e-16 0)
(3 -4.68242e-16 0)
(3 1.39624e-16 0)
(3 3.68855e-16 0)
(3 3.09444e-16 0)
(3 1.28738e-15 0)
(3 1.45008e-15 0)
(3 1.18637e-15 0)
(3 8.6795e-16 0)
(3 7.69768e-16 0)
(3 6.1888e-16 0)
(3 4.69628e-16 0)
(3 3.30636e-16 0)
(3 9.11878e-17 0)
(3 -3.30749e-17 0)
(3 -2.89379e-16 0)
(3 8.19095e-15 0)
(3 -9.24483e-11 0)
(3 -1.29626e-10 0)
(3.00001 1.44186e-05 0)
(3.00737 0.0229187 0)
(2.39279 0.59893 0)
(1.44827 0.946402 0)
(1.35609 0.945039 0)
(1.40555 0.93331 0)
(1.44021 0.927142 0)
(1.48171 0.918239 0)
(1.52852 0.904708 0)
(3 -2.69882e-17 0)
(3 1.37297e-16 0)
(3 7.55254e-18 0)
(3 1.19876e-16 0)
(3 4.4635e-16 0)
(3 8.95938e-16 0)
(3 1.2883e-15 0)
(3 1.0691e-15 0)
(3 8.26233e-16 0)
(3 2.18454e-16 0)
(3 6.69772e-16 0)
(3 1.10979e-15 0)
(3 5.91636e-16 0)
(3 7.8827e-16 0)
(3 1.01768e-15 0)
(3 1.01294e-15 0)
(3 9.30939e-16 0)
(3 2.40984e-16 0)
(3 3.25636e-15 0)
(3 -3.5412e-12 0)
(3 -3.21024e-11 0)
(3 2.91851e-09 0)
(3.00008 0.000316959 0)
(2.99294 0.0655772 0)
(2.1443 0.743059 0)
(1.45078 0.97171 0)
(1.43026 0.96165 0)
(1.4846 0.944714 0)
(1.51648 0.935974 0)
(1.55536 0.922923 0)
(3 1.08272e-16 0)
(3 1.9029e-17 0)
(3 1.79002e-16 0)
(3 3.97e-16 0)
(3 1.49888e-16 0)
(3 6.68493e-17 0)
(3 6.6711e-16 0)
(3 8.42536e-16 0)
(3 6.51287e-16 0)
(3 2.12837e-17 0)
(3 -3.39742e-16 0)
(3 -1.24465e-16 0)
(3 1.20549e-16 0)
(3 5.27345e-16 0)
(3 8.9856e-16 0)
(3 1.96132e-15 0)
(3 2.60443e-15 0)
(3 2.01306e-15 0)
(3 1.04713e-15 0)
(3 -1.14918e-14 0)
(3 -1.38713e-12 0)
(3 -6.87472e-13 0)
(3 2.10788e-07 0)
(3.00035 0.00168055 0)
(2.93153 0.147605 0)
(2.02422 0.808776 0)
(1.49874 0.98574 0)
(1.49199 0.983308 0)
(1.54783 0.961119 0)
(1.58567 0.944922 0)
(3 1.37277e-17 0)
(3 5.50812e-17 0)
(3 3.65247e-16 0)
(3 1.01008e-16 0)
(3 -4.54364e-16 0)
(3 -5.15816e-16 0)
(3 -2.87739e-16 0)
(3 2.90914e-16 0)
(3 3.15732e-16 0)
(3 -5.57642e-16 0)
(3 -1.02076e-15 0)
(3 -1.43092e-15 0)
(3 -6.19109e-16 0)
(3 5.95238e-17 0)
(3 4.58065e-16 0)
(3 1.18449e-15 0)
(3 2.01563e-15 0)
(3 6.77799e-16 0)
(3 4.57689e-16 0)
(3 -6.51874e-16 0)
(3 -5.07717e-15 0)
(3 -6.52787e-14 0)
(3 3.0886e-11 0)
(3 2.49135e-06 0)
(3.00015 0.00537266 0)
(2.85015 0.234219 0)
(1.99046 0.842797 0)
(1.56075 0.995016 0)
(1.55966 0.994614 0)
(1.61018 0.975844 0)
(3 -3.35726e-17 0)
(3 -1.44164e-17 0)
(3 -4.24898e-16 0)
(3 -4.35737e-16 0)
(3 -8.0454e-16 0)
(3 -7.34406e-16 0)
(3 -5.75494e-16 0)
(3 -4.40008e-16 0)
(3 -5.03772e-16 0)
(3 -7.23503e-16 0)
(3 -8.28428e-16 0)
(3 -6.4045e-16 0)
(3 -6.79558e-16 0)
(3 -5.46218e-16 0)
(3 -5.82345e-16 0)
(3 -7.49096e-16 0)
(3 -6.79272e-16 0)
(3 -1.6041e-16 0)
(3 5.86684e-17 0)
(3 -5.09514e-16 0)
(3 -5.37769e-16 0)
(3 -1.61009e-15 0)
(3 1.82492e-15 0)
(3 6.51025e-10 0)
(3 1.58389e-05 0)
(2.99844 0.0111807 0)
(2.79243 0.289815 0)
(2.00151 0.852085 0)
(1.62789 1.00327 0)
(1.62682 1.00427 0)
(3 -3.40465e-17 0)
(3 -2.63677e-18 0)
(3 -6.74072e-17 0)
(3 2.49269e-16 0)
(3 6.14971e-16 0)
(3 2.07286e-16 0)
(3 -1.13352e-16 0)
(3 -3.80579e-16 0)
(3 -3.36093e-16 0)
(3 6.38387e-17 0)
(3 2.08779e-16 0)
(3 5.08301e-16 0)
(3 4.50823e-16 0)
(3 4.32984e-17 0)
(3 -4.19391e-16 0)
(3 -8.70266e-16 0)
(3 -1.11962e-15 0)
(3 -1.04934e-15 0)
(3 4.35851e-16 0)
(3 1.0389e-15 0)
(3 9.35734e-16 0)
(3 6.39939e-16 0)
(3 -8.58586e-16 0)
(3 3.94587e-14 0)
(3 6.34655e-09 0)
(2.99999 5.442e-05 0)
(2.99605 0.0160214 0)
(2.76301 0.31347 0)
(2.05257 0.849118 0)
(1.69847 0.996617 0)
(3 1.43627e-17 0)
(3 -9.91698e-18 0)
(3 3.05657e-16 0)
(3 2.41319e-16 0)
(3 3.12369e-16 0)
(3 2.00362e-16 0)
(3 -1.16943e-16 0)
(3 -2.60538e-16 0)
(3 -1.19039e-16 0)
(3 9.92451e-16 0)
(3 1.64018e-15 0)
(3 1.22979e-15 0)
(3 1.06507e-15 0)
(3 8.56677e-16 0)
(3 4.41963e-16 0)
(3 -2.50563e-16 0)
(3 -8.85833e-16 0)
(3 -2.7499e-16 0)
(3 3.1265e-16 0)
(3 7.88449e-17 0)
(3 -4.30103e-16 0)
(3 -3.74771e-16 0)
(3 1.96715e-16 0)
(3 5.89315e-16 0)
(3 3.78436e-13 0)
(3 3.3517e-08 0)
(2.99999 9.31581e-05 0)
(2.99252 0.0209708 0)
(2.82081 0.27819 0)
(2.03659 0.871833 0)
(3 2.4951e-17 0)
(3 5.66396e-17 0)
(3 2.04511e-16 0)
(3 9.34292e-17 0)
(3 -1.93786e-16 0)
(3 2.15144e-16 0)
(3 -5.78036e-18 0)
(3 -5.52926e-16 0)
(3 -3.62371e-16 0)
(3 6.35419e-16 0)
(3 8.53053e-16 0)
(3 9.69898e-16 0)
(3 1.03713e-15 0)
(3 7.67038e-16 0)
(3 6.33554e-17 0)
(3 -6.41315e-16 0)
(3 -1.21589e-15 0)
(3 -8.95616e-16 0)
(3 -3.19733e-16 0)
(3 -6.06414e-16 0)
(3 -9.88272e-16 0)
(3 -9.34277e-16 0)
(3 1.79852e-15 0)
(3 8.32089e-16 0)
(3 7.46205e-16 0)
(3 2.27773e-12 0)
(3 7.37863e-08 0)
(2.99996 0.000138443 0)
(2.99661 0.0166955 0)
(2.79727 0.32504 0)
(3 -4.02426e-17 0)
(3 -8.12284e-18 0)
(3 3.2865e-16 0)
(3 3.66166e-16 0)
(3 2.76384e-16 0)
(3 2.94875e-16 0)
(3 -7.23045e-17 0)
(3 -3.23654e-16 0)
(3 -2.0206e-16 0)
(3 -3.46341e-16 0)
(3 -4.47924e-16 0)
(3 -6.02982e-16 0)
(3 -8.05715e-16 0)
(3 -6.65485e-16 0)
(3 -9.23172e-16 0)
(3 -1.76282e-15 0)
(3 -2.05504e-15 0)
(3 -2.65167e-15 0)
(3 -2.93714e-15 0)
(3 -3.42926e-16 0)
(3 8.11681e-16 0)
(3 1.47511e-15 0)
(3 1.33287e-15 0)
(3 1.30133e-15 0)
(3 1.31245e-15 0)
(3 9.04643e-16 0)
(3 7.20677e-12 0)
(3 8.96607e-08 0)
(2.99997 0.000163214 0)
(3.01647 0.00921209 0)
(3 4.83043e-17 0)
(3 -3.23482e-16 0)
(3 -4.42867e-16 0)
(3 -3.30797e-17 0)
(3 2.32352e-16 0)
(3 -1.43838e-16 0)
(3 -2.58602e-16 0)
(3 3.18108e-16 0)
(3 1.17655e-16 0)
(3 -2.61524e-16 0)
(3 -2.16439e-16 0)
(3 -5.48928e-16 0)
(3 -7.83815e-16 0)
(3 -1.10885e-15 0)
(3 -1.11586e-15 0)
(3 -1.15844e-15 0)
(3 -1.69071e-15 0)