/*--------------------------------*- C++ -*----------------------------------*\
  =========                 |
  \\      /  F ield         | OpenFOAM: The Open Source CFD Toolbox
   \\    /   O peration     | Website:  https://openfoam.org
    \\  /    A nd           | Version:  6.0
     \\/     M anipulation  |
\*---------------------------------------------------------------------------*/
FoamFile
{
    version     2.0;
    format      ascii;
    class       volScalarField;
    location    "2.0002372";
    object      p;
}
// * * * * * * * * * * * * * * * * * * * * * * * * * * * * * * * * * * * * * //

dimensions      [1 -1 -2 0 0 0 0];

internalField   nonuniform List<scalar> 
4800
(
1
1
1
1
1
1
1
1
1
1
1
1
1
1
1
1
1
1
1
1
1.08948
6.85366
10.5005
10.8828
11.0855
11.0876
10.6459
10.0996
10.2398
11.0698
12.1979
12.8825
12.7571
11.5824
10.3586
10.3151
11.1526
11.8364
11.0981
10.24
1
1
1
1
1
1
1
1
1
1
1
1
1
1
1
1
1
1
1
1
1.09123
6.77295
10.4358
10.6373
10.9328
11.0049
10.9906
10.8899
11.0912
11.5144
11.7106
11.5428
11.3225
11.3842
11.764
11.9174
11.994
11.9566
11.9747
12.0333
1
1
1
1
1
1
1
1
1
1
1
1
1
1
1
1
1
1
1
1
1.07061
6.7497
10.4624
10.428
10.5991
10.9207
11.2543
11.8736
11.9063
11.754
11.2402
10.6089
10.2696
10.9835
12.3736
12.9107
12.6023
12.2141
12.7135
13.6973
1
1
1
1
1
1
1
1
1
1
1
1
1
1
1
1
1
1
1
1
1.04345
6.71975
10.5213
10.4019
10.3068
10.7078
11.6801
12.3137
12.5494
11.8394
10.7273
10.3065
10.6703
11.5612
12.3883
12.8521
12.4701
12.013
12.6854
13.7195
1
1
1
1
1
1
1
1
1
1
1
1
1
1
1
1
1
1
1
1
1.02476
6.70537
10.5492
10.4672
10.4768
10.7669
11.4335
12.0824
11.9695
10.9912
10.73
10.9621
11.832
12.4168
12.2474
11.7931
11.4358
11.519
11.8684
12.2558
1
1
1
1
1
1
1
1
1
1
1
1
1
1
1
1
1
1
1
1
1.00963
6.68
10.5372
10.6619
10.8726
10.9135
11.0266
11.1876
10.9747
10.8062
10.7925
11.7178
12.6059
12.92
12.5732
11.3548
10.7727
10.6983
10.8544
10.8239
1
1
1
1
1
1
1
1
1
1
1
1
1
1
1
1
1
1
1
1
1.00099
6.61764
10.4743
10.8554
11.1036
11.1309
10.7365
10.3003
10.3114
10.8676
11.6222
12.1796
12.5536
12.3076
10.9085
10.8984
11.1569
11.1531
10.9313
10.431
1
1
1
1
1
1
1
1
1
1
1
1
1
1
1
1
1
1
1
1
1.00004
6.48902
10.4363
10.8573
11.0914
11.183
10.7554
10.0829
10.321
11.5851
12.6996
12.4732
11.8455
10.6453
10.7055
11.3419
12.0066
12.4039
12.0762
11.6273
1
1
1
1
1
1
1
1
1
1
1
1
1
1
1
1
1
1
1
1
1
6.3638
10.4526
10.6371
10.9537
10.9923
10.8161
10.6536
11.0538
12.0313
12.8644
12.9872
11.2134
10.0051
9.99274
11.1355
12.3931
13.6355
12.9432
13.0305
1
1
1
1
1
1
1
1
1
1
1
1
1
1
1
1
1
1
1
1
1
6.26489
10.5375
10.525
10.5166
10.648
10.9472
11.6062
11.898
11.7358
11.7926
11.0663
10.9507
11.0433
11.3208
11.7497
12.3846
12.2644
12.9589
13.541
1
1
1
1
1
1
1
1
1
1
1
1
1
1
1
1
1
1
1
1
1
6.14572
10.5864
10.4846
10.2692
10.2712
11.1406
12.0148
12.4128
11.8453
10.1724
9.87034
10.9716
12.5925
13.3618
12.8516
12.0247
10.9544
11.5832
12.7223
1
1
1
1
1
1
1
1
1
1
1
1
1
1
1
1
1
1
1
1
1
5.99532
10.5158
10.4339
10.3675
10.6199
11.1096
11.6801
11.9686
11.2792
10.2959
9.95233
10.812
12.9343
14.4743
14.3701
11.6391
10.2609
10.7145
11.5996
1
1
1
1
1
1
1
1
1
1
1
1
1
1
1
1
1
1
1
1
1
5.79938
10.335
10.5049
10.864
11.0493
11.0404
11.1038
10.9644
10.8104
11.028
10.9341
11.6624
12.2467
12.7784
11.7287
11.3284
11.0437
10.9087
10.837
1
1
1
1
1
1
1
1
1
1
1
1
1
1
1
1
1
1
1
1
1
5.58982
10.1321
10.7299
11.1301
11.3722
11.1901
10.6696
10.1161
10.2948
11.1262
12.4727
12.3324
11.4518
9.80635
10.08
11.4782
12.1283
11.5582
10.6606
1
1
1
1
1
1
1
1
1
1
1
1
1
1
1
1
1
1
1
1
1
5.46336
10.2204
10.666
11.0288
11.2787
11.333
10.5948
9.93163
10.079
11.4794
12.913
13.0289
10.7221
8.80516
9.2317
11.1159
12.5771
11.6927
10.5443
1
1
1
1
1
1
1
1
1
1
1
1
1
1
1
1
1
1
1
1
1
5.32944
10.3434
10.6148
10.7677
10.9737
10.8305
10.7086
10.634
11.2379
11.9886
12.2791
11.9664
10.4161
9.62787
9.58062
10.7935
12.473
12.2633
11.8122
1
1
1
1
1
1
1
1
1
1
1
1
1
1
1
1
1
1
1
1
1
5.16771
10.4201
10.5768
10.5392
10.425
10.3969
10.7953
11.8795
12.3476
12.0552
11.3779
10.4596
10.9545
11.6614
11.8284
11.8718
11.6193
12.2815
13.5751
1
1
1
1
1
1
1
1
1
1
1
1
1
1
1
1
1
1
1
1
1
4.95401
10.3679
10.5094
10.2954
10.0512
10.2114
11.1667
12.3051
12.8208
12.2933
10.0551
9.95227
11.4013
13.6836
14.0758
12.7716
10.809
11.991
13.8851
1
1
1
1
1
1
1
1
1
1
1
1
1
1
1
1
1
1
1
1
1
4.66263
10.2119
10.3303
10.2729
10.3323
10.8801
11.4737
11.8151
12.1532
10.9778
10.4515
10.2291
11.7373
13.5415
14.1995
12.9004
10.9393
11.2603
12.6063
1
1
1
1
1
1
1
1
1
1
1
1
1
1
1
1
1
1
1
1
1
4.36631
9.93863
10.2176
10.5038
11.0876
11.2909
11.3029
11.264
10.2078
10.2774
10.8517
11.4709
12.0161
12.658
12.6125
11.4581
11.5713
11.1374
10.6136
1
1
1
1
1
1
1
1
1
1
1
1
1
1
1
1
1
1
1
1
1
4.0934
9.68441
10.2995
10.9707
11.2733
11.4605
11.3964
10.3097
9.52519
9.89991
11.1709
12.6425
12.4097
11.1322
9.6075
10.5447
11.4917
11.3968
10.6443
1
1
1
1
1
1
1
1
1
1
1
1
1
1
1
1
1
1
1
1
1
3.92287
9.69767
10.5666
10.8912
11.1652
11.3115
10.6795
10.0166
9.87612
10.1505
11.7264
12.6486
12.3303
9.84396
9.45406
10.2525
11.0839
11.1057
10.7364
1
1
1
1
1
1
1
1
1
1
1
1
1
1
1
1
1
1
1
1
1
3.77378
9.88783
10.673
10.7571
10.8301
10.5163
10.3359
10.2582
10.6324
11.8695
12.0987
12.0793
10.7789
9.85726
9.89891
10.6115
10.8487
10.7116
10.3559
1
1
1
1
1
1
1
1
1
1
1
1
1
1
1
1
1
1
1
1
1
3.53053
9.90511
10.643
10.6516
10.3773
10.0736
9.93444
10.4978
12.0007
12.6472
12.589
11.3857
9.89801
9.53861
10.1834
11.102
11.8759
10.6476
9.88668
1
1
1
1
1
1
1
1
1
1
1
1
1
1
1
1
1
1
1
1
1
3.24697
9.67749
10.6266
10.3118
10.1279
10.0487
10.3929
11.6461
12.157
12.3001
11.7105
10.1062
10.0578
10.718
11.8477
12.3443
12.107
12.0119
12.1266
1
1
1
1
1
1
1
1
1
1
1
1
1
1
1
1
1
1
1
1
1
2.9574
9.38398
10.2068
10.1493
10.2109
10.7089
11.4657
11.7306
11.7357
11.4485
9.80767
10.1147
10.7414
12.8379
13.1443
12.6882
11.6945
12.9647
14.6099
1
1
1
1
1
1
1
1
1
1
1
1
1
1
1
1
1
1
1
1
1
2.63999
8.99575
9.91061
10.0266
10.6729
11.3407
11.6847
11.8534
11.6744
9.74013
9.26988
9.69147
11.8772
13.555
13.4366
12.5734
11.1756
12.6962
14.7754
1
1
1
1
1
1
1
1
1
1
1
1
1
1
1
1
1
1
1
1
1
2.34552
8.65392
9.87562
10.4855
11.0012
11.2453
11.4553
11.2932
9.75499
9.7539
9.77548
10.8224
12.4093
13.1551
12.9791
11.2376
10.8819
10.9361
10.9053
1
1
1
1
1
1
1
1
1
1
1
1
1
1
1
1
1
1
1
1
1
2.13316
8.39113
10.4124
10.8414
10.971
10.9502
10.7619
9.84002
9.67344
10.042
11.4431
12.4752
12.0803
11.4299
9.4808
9.87838
10.2962
9.78662
9.35852
1
1
1
1
1
1
1
1
1
1
1
1
1
1
1
1
1
1
1
1
1
1.97249
8.43445
10.8134
10.8818
10.9073
10.7612
9.90558
9.38271
9.45574
10.6737
12.4876
12.745
12.0896
9.27184
8.92831
9.52552
10.0505
9.58073
9.27287
1
1
1
1
1
1
1
1
1
1
1
1
1
1
1
1
1
1
1
1
1
1.70449
8.44798
10.8977
10.8229
10.8271
10.0579
9.69443
9.6301
10.6072
11.9174
12.1315
12.3116
10.3162
8.79177
8.73659
9.25671
9.66834
9.75229
9.15766
1
1
1
1
1
1
1
1
1
1
1
1
1
1
1
1
1
1
1
1
1
1.36721
8.05971
10.7692
10.6242
10.094
9.86783
9.93375
10.9874
11.8929
11.8756
11.8377
10.4626
9.4761
9.19649
9.10305
10.1392
10.8639
9.80521
8.86616
1
1
1
1
1
1
1
1
1
1
1
1
1
1
1
1
1
1
1
1
1
1.13461
7.61777
10.5379
9.97347
9.62165
9.78487
10.7714
11.8184
12.0333
11.9576
10.6161
9.21598
9.46397
10.0679
12.1836
12.6641
12.1619
9.58984
8.75867
1
1
1
1
1
1
1
1
1
1
1
1
1
1
1
1
1
1
1
1
1
1.04412
7.03373
9.97585
9.58641
9.58741
10.5458
11.4649
11.5965
11.7459
10.902
9.29821
9.23457
9.79454
12.5979
13.2553
12.8085
11.8842
11.922
12.0817
1
1
1
1
1
1
1
1
1
1
1
1
1
1
1
1
1
1
1
1
1
1.01208
6.59192
9.73886
9.67124
10.6237
11.2012
11.2801
11.3101
10.436
9.36468
9.18295
9.38952
11.7931
12.7015
12.6602
12.5917
11.2105
12.576
15.0606
1
1
1
1
1
1
1
1
1
1
1
1
1
1
1
1
1
1
1
1
1
1.00204
6.33385
9.728
10.6363
11.014
11.1746
11.1239
10.342
9.09219
9.2603
9.66578
11.8029
12.279
12.4939
11.997
9.30333
9.449
12.2016
14.8878
1
1
1
1
1
1
1
1
1
1
1
1
1
1
1
1
1
1
1
1
1
1.00005
6.02897
10.3577
10.7376
10.9718
10.9874
10.699
9.29809
8.99549
9.29643
11.5655
12.3544
12.2855
11.5677
8.67743
8.69319
8.85592
8.92951
9.81579
1
1
1
1
1
1
1
1
1
1
1
1
1
1
1
1
1
1
1
1
1
0.999965
5.67627
10.4234
10.7354
10.7998
10.5755
9.50094
9.20407
9.28985
11.1655
11.9485
11.8686
11.5599
8.91396
8.54338
8.61191
8.66809
8.06681
8.08423
1
1
1
1
1
1
1
1
1
1
1
1
1
1
1
1
1
1
1
1
1
0.999974
5.20982
10.2486
10.4403
10.0744
9.5176
9.30533
9.3073
11.129
11.829
11.9786
11.7338
9.546
8.28743
8.15711
8.31904
8.32562
8.37932
7.35932
1
1
1
1
1
1
1
1
1
1
1
1
1
1
1
1
1
1
1
1
1
0.999995
4.56053
9.58291
9.65094
9.6113
9.44622
9.50285
10.8874
11.475
11.5263
11.3225
9.83444
8.4852
8.35305
8.81045
9.41198
9.98868
8.75145
6.22793
1
1
1
1
1
1
1
1
1
1
1
1
1
1
1
1
1
1
1
1
1
0.999999
3.3946
9.13778
9.82665
10.0208
10.2935
10.5889
10.708
10.5225
10.1597
9.69121
9.65885
10.2372
10.6913
10.9602
11.0302
10.233
8.4339
5.81628
1
1
1
1
1
1
1
1
1
1
1
1
1
1
1
1
1
1
1
1
1
1
1.77143
8.13125
10.1601
10.1836
10.2145
10.2004
10.0695
9.96674
9.91095
10.0492
10.2815
10.3279
10.1962
9.76136
9.12339
8.57723
7.86074
6.55237
1
1
1
1
1
1
1
1
1
1
1
1
1
1
1
1
1
1
1
1
1
1
1.04554
6.21307
9.83521
9.87846
9.87745
9.89865
9.91785
9.93859
9.95153
9.9062
9.79057
9.59014
9.31204
9.01245
8.66962
8.18573
7.05872
5.98627
1
1
1
1
1
1
1
1
1
1
1
1
1
1
1
1
1
1
1
1
1
1
1.00006
3.63872
9.18226
9.72452
9.7842
9.86611
9.88125
9.81945
9.70992
9.56079
9.38397
9.20463
9.00198
8.76023
8.38359
7.77375
6.70916
5.76178
1
1
1
1
1
1
1
1
1
1
1
1
1
1
1
1
1
1
1
1
1
1
0.999996
1.5832
7.8906
9.77696
9.71323
9.67156
9.63941
9.55955
9.46724
9.34926
9.18655
8.96901
8.68085
8.34798
7.94288
7.43412
6.58107
5.81114
1
1
1
1
1
1
1
1
1
1
1
1
1
1
1
1
1
1
1
1
1
1
0.999999
1.02069
5.54922
9.40229
9.37173
9.36885
9.382
9.36883
9.32197
9.20236
8.9928
8.72373
8.39641
8.01079
7.6061
7.13634
6.45971
5.81268
1
1
1
1
1
1
1
1
1
1
1
1
1
1
1
1
1
1
1
1
1
1
1
0.999992
2.55127
8.37664
9.2215
9.17552
9.19211
9.18716
9.12019
8.98388
8.79528
8.55639
8.25773
7.86601
7.41264
6.90858
6.34102
5.75493
1
1
1
1
1
1
1
1
1
1
1
1
1
1
1
1
1
1
1
1
1
1
1
0.999997
1.12316
6.07704
9.11218
9.07068
9.02733
8.97194
8.87395
8.75782
8.62419
8.42005
8.13961
7.76912
7.3262
6.83921
6.33452
5.82101
1
1
1
1
1
1
1
1
1
1
1
1
1
1
1
1
1
1
1
1
1
1
1
1
1.00068
2.70656
8.17957
8.93593
8.855
8.79009
8.66756
8.57255
8.45004
8.25194
7.97776
7.65346
7.27006
6.84457
6.40279
5.9179
1
1
1
1
1
1
1
1
1
1
1
1
1
1
1
1
1
1
1
1
1
1
1
1
1
1.13909
5.82866
8.8887
8.83262
8.67191
8.51854
8.39533
8.25523
8.05161
7.79613
7.52064
7.2107
6.85733
6.46489
6.00488
1
1
1
1
1
1
1
1
1
1
1
1
1
1
1
1
1
1
1
1
1
1
1
1
1
1.00098
2.24466
7.73991
8.73722
8.54736
8.41971
8.26702
8.09978
7.88227
7.6284
7.37741
7.11267
6.8088
6.45542
6.04445
1
1
1
1
1
1
1
1
1
1
1
1
1
1
1
1
1
1
1
1
1
1
1
1
1
1
1.07351
4.9651
8.44107
8.49761
8.33513
8.16238
7.9674
7.74673
7.51013
7.26064
7.00349
6.72172
6.39269
6.04601
1
1
1
1
1
1
1
1
1
1
1
1
1
1
1
1
1
1
1
1
1
1
1
1
1
1
1.00033
1.66976
6.8175
8.48663
8.27139
8.10877
7.90463
7.69277
7.46945
7.21583
6.9447
6.65411
6.33273
6.03387
1
1
1
1
1
1
1
1
1
1
1
1
1
1
1
1
1
1
1
1
1
1
1
1
1
1
1
1.02181
3.2491
7.78536
8.20425
8.02123
7.83495
7.63532
7.41476
7.15908
6.89292
6.61052
6.30779
6.04228
1
1
1
1
1
1
1
1
1
1
1
1
1
1
1
1
1
1
1
1
1
1
1
1
1
1
1
1.00008
1.22091
5.20953
8.06113
7.97778
7.79226
7.59917
7.38408
7.13995
6.89166
6.62452
6.34285
6.09042
1
1
1
1
1
1
1
1
1
1
1
1
1
1
1
1
1
1
1
1
1
1
1
1
1
1
1
1
1.00282
1.82018
6.35972
7.93388
7.75092
7.55863
7.34746
7.12945
6.90796
6.65946
6.39712
6.15484
1
1
1
1
1
1
1
1
1
1
1
1
1
1
1
1
1
1
1
1
1
1
1
1
1
1
1
1
1.00001
1.03218
2.67097
7.03218
7.75984
7.54922
7.35118
7.14489
6.93463
6.69737
6.45582
6.22679
1
1
1
1
1
1
1
1
1
1
1
1
1
1
1
1
1
1
1
1
1
1
1
1
1
1
1
1
1
1.00018
1.12739
3.76122
7.29177
7.61088
7.37363
7.16966
6.94872
6.71504
6.4891
6.26983
1
1
1
1
1
1
1
1
1
1
1
1
1
1
1
1
1
1
1
1
1
1
1
1
1
1
1
1
1
1
1.00136
1.34713
4.78313
7.37292
7.38351
7.17224
6.95642
6.72961
6.5143
6.29646
1
1
1
1
1
1
1
1
1
1
1
1
1
1
1
1
1
1
1
1
1
1
1
1
1
1
1
1
1
1
1
1.00691
1.71387
5.40244
7.26786
7.17939
6.96673
6.7551
6.54593
6.32761
1
1
1
1
1
1
1
1
1
1
1
1
1
1
1
1
1
1
1
1
1
1
1
1
1
1
1
1
1
1
1
1.00002
1.02543
2.09634
5.77516
7.08858
6.98493
6.78117
6.58219
6.37207
1
1
1
1
1
1
1
1
1
1
1
1
1
1
1
1
1
1
1
1
1
1
1
1
1
1
1
1
1
1
1
1
1.00015
1.05769
2.46268
5.9562
6.92348
6.81152
6.60988
6.41524
1
1
1
1
1
1
1
1
1
1
1
1
1
1
1
1
1
1
1
1
1
1
1
1
1
1
1
1
1
1
1
1
1
1.00048
1.10272
2.77018
6.0286
6.7652
6.64175
6.44588
1
1
1
1
1
1
1
1
1
1
1
1
1
1
1
1
1
1
1
1
1
1
1
1
1
1
1
1
1
1
1
1
1
1
1.00116
1.15382
3.0056
6.02344
6.60212
6.48263
1
1
1
1
1
1
1
1
1
1
1
1
1
1
1
1
1
1
1
1
1
1
1
1
1
1
1
1
1
1
1
1
1
1
1
1.00221
1.20417
3.1646
5.95391
6.43469
1
1
1
1
1
1
1
1
1
1
1
1
1
1
1
1
1
1
1
1
1
1
1
1
1
1
1
1
1
1
1
1
1
1
1
1.00001
1.00351
1.24725
3.2442
5.87481
1
1
1
1
1
1
1
1
1
1
1
1
1
1
1
1
1
1
1
1
1
1
1
1
1
1
1
1
1
1
1
1
1
1
1
1
1.00001
1.00516
1.26953
3.57169
1
1
1
1
1
1
1
1
1
1
1
1
1
1
1
1
1
1
1
1
1
1
1
1
1
1
1
1
1
1
1
1
1
1
1
1
1
1.00002
1.00525
1.40236
1
1
1
1
1
1
1
1
1
1
1
1
1
1
1
1
1
1
1
1
1
1
1
1
1
1
1
1
1
1
1
1
1
1
1
1
1
1
1.00002
1.01031
1
1
1
1
1
1
1
1
1
1
1
1
1
1
1
1
1
1
1
1
1
1
1
1
1
1
1
1
1
1
1
1
1
1
1
1
1
1
1
1.00002
1
1
1
1
1
1
1
1
1
1
1
1
1
1
1
1
1
1
1
1
1
1
1
1
1
1
1
1
1
1
1
1
1
1
1
1
1
1
1
1
1
1
1
1
1
1
1
1
1
1
1
1
1
1
1
1
1
1
1
1
1
1
1
1
1
1
1
1
1
1
1
1
1
1
1
1
1
1
1
1
1
1
1
1
1
1
1
1
1
1
1
1
1
1
1
1
1
1
1
1
1
1
1
1
1
1
1
1
1
1
1
1
1
1
1
1
1
1
1
1
1
1
1
1
1
1
1
1
1
1
1
1
1
1
1
1
1
1
1
1
1
1
1
1
1
1
1
1
1
1
1
1
1
1
1
1
1
1
1
1
1
1
1
1
1
1
1
1
1
1
1
1
1
1
1
1
1
1
1
1
1
1
1
1
1
1
1
1
1
1
1
1
1
1
1
1
1
1
1
1
1
1
1
1
1
1
1
1
1
1
1
1
1
1
1
1
1
1
1
1
1
1
1
1
1
1
1
1
1
1
1
1
1
1
1
1
1
1
1
1
1
1
1
1
1
1
1
1
1
1
1
1
1
1
1
1
1
1
1
1
1
1
1
1
1
1
1
1
1
1
1
1
1
1
1
1
1
1
1
1
1
1
1
1
1
1
1
1
1
1
1
1
1
1
1
1
1
1
1
1
1
1
1
1
1
1
1
1
1
1
1
1
1
1
1
1
1
1
1
1
1
1
1
1
1
1
1
1
1
1
1
1
1
1
1
1
1
1
1
1
1
1
1
1
1
1
1
1
1
1
1
1
1
1
1
1
1
1
1
1
1
1
1
1
1
1
1
1
1
1
1
1
1
1
1
1
1
1
1
1
1
1
1
1
1
1
1
1
1
1
1
1
1
1
1
1
1
1
1
1
0.839164
0.562869
0.645538
0.771362
0.972977
1.13918
1.19222
1.19218
1.19504
1.23066
1.26458
1.28934
1.29403
1.29876
1.30188
1.28788
1.33515
2.45453
4.89051
5.70494
5.52219
5.24047
4.98734
4.72734
4.47946
4.27174
4.0907
3.91255
3.73448
3.5608
3.39241
3.23976
3.09699
2.95411
2.81286
2.68398
2.57115
2.46724
2.38185
2.23802
2.17333
0.894758
0.676529
0.74416
0.889655
1.03677
1.15569
1.207
1.23734
1.25833
1.26252
1.25983
1.26516
1.28803
1.29809
1.30272
1.4396
2.45391
4.3312
5.4403
5.43884
5.22518
4.98723
4.72754
4.46974
4.25919
4.07854
3.9048
3.73491
3.56935
3.39634
3.22627
3.07447
2.939
2.81321
2.69639
2.58687
2.48147
2.38998
2.23592
2.80457
1.27618
0.734492
0.761642
0.862986
0.976736
1.13374
1.21044
1.24494
1.28326
1.29069
1.28696
1.28158
1.28108
1.29145
1.31724
1.66462
2.43987
3.65822
5.27158
5.55355
5.24883
4.97971
4.73099
4.4839
4.25339
4.06525
3.88706
3.72295
3.57007
3.41051
3.23661
3.0612
2.90637
2.78048
2.67685
2.58102
2.48787
2.40421
2.24295
3.42586
1.74453
1.04002
0.825655
0.818015
0.900766
1.06543
1.21236
1.25206
1.26833
1.26312
1.26873
1.28006
1.28827
1.29528
1.35122
2.05078
2.61347
3.00446
4.46401
5.39708
5.23681
4.95844
4.71225
4.47545
4.23502
4.04425
3.8733
3.71595
3.56509
3.40722
3.23992
3.07242
2.92087
2.79531
2.68833
2.58705
2.48385
2.39188
2.23356
3.88326
2.13952
1.33092
0.966957
0.838495
0.877215
0.98374
1.12998
1.21378
1.26177
1.2479
1.25197
1.26851
1.27993
1.29834
1.4698
2.47594
2.87663
2.82964
3.5196
4.91479
5.22752
4.99679
4.72599
4.46557
4.22533
4.02699
3.85732
3.70433
3.55747
3.39967
3.22592
3.05502
2.91319
2.80346
2.70897
2.61354
2.50418
2.38965
2.21323
4.1694
2.50677
1.60932
1.20702
0.9326
0.911987
0.929624
1.03727
1.15566
1.21919
1.22914
1.25559
1.26551
1.27057
1.29883
1.73432
2.77208
3.00392
2.87484
2.92064
4.02553
4.97399
4.95702
4.74625
4.44717
4.20746
4.01499
3.84457
3.68987
3.54438
3.39271
3.22621
3.05798
2.91322
2.8
2.70588
2.61149
2.50113
2.38512
2.20847
4.39757
2.84098
1.96152
1.41699
1.05411
0.977026
0.940092
0.966681
1.06688
1.16056
1.20762
1.2604
1.27706
1.27668
1.34914
2.19242
2.90961
3.00102
2.91261
2.80862
3.1684
4.3652
4.85324
4.70315
4.41965
4.18478
3.99809
3.83076
3.6725
3.52319
3.37797
3.2268
3.06926
2.91964
2.79092
2.68416
2.58569
2.47758
2.37069
2.20562
4.59795
3.15346
2.27713
1.66312
1.27373
1.07667
0.955224
0.969709
0.99926
1.0766
1.17292
1.24922
1.26231
1.2756
1.5364
2.6707
2.9858
2.97097
2.89725
2.77477
2.76862
3.49267
4.54327
4.58057
4.39298
4.17862
3.98985
3.82059
3.65696
3.50128
3.36066
3.22628
3.08219
2.929
2.7809
2.65558
2.55502
2.45639
2.36603
2.21393
4.8015
3.43396
2.54623
1.90072
1.48778
1.19965
1.00415
0.987075
0.979634
1.01381
1.12083
1.22193
1.23482
1.28324
1.90111
2.99198
3.02393
2.95683
2.8684
2.75471
2.65242
2.81016
3.78116
4.38536
4.37047
4.17473
3.97936
3.80984
3.64442
3.48389
3.34166
3.21625
3.08655
2.94324
2.789
2.64509
2.52889
2.43324
2.36196
2.22843
4.97864
3.67977
2.79816
2.10386
1.68528
1.36592
1.14205
1.02774
0.972234
0.988184
1.05879
1.1526
1.20449
1.38142
2.35609
3.07532
3.02
2.92091
2.82024
2.74364
2.63338
2.5496
2.90473
3.88344
4.25957
4.14003
3.95515
3.78847
3.6269
3.46584
3.31774
3.18721
3.06802
2.94144
2.80101
2.6552
2.52591
2.42781
2.36648
2.23853
5.12362
3.89628
3.01253
2.2955
1.88099
1.51134
1.28153
1.10522
0.985306
1.00623
1.02302
1.07017
1.16457
1.59564
2.76112
3.03168
2.96234
2.87065
2.79336
2.72776
2.61741
2.48971
2.46434
3.04762
3.87651
4.078
3.95131
3.79125
3.62693
3.459
3.3028
3.1628
3.03223
2.91029
2.79081
2.6651
2.54405
2.44169
2.36567
2.23277
5.22149
4.0809
3.19093
2.4993
2.05486
1.65461
1.42316
1.21927
1.05647
1.04862
1.01955
1.02248
1.09674
1.89742
2.90446
2.99163
2.89451
2.83464
2.77416
2.71457
2.61414
2.47636
2.36569
2.47138
3.23288
3.8942
3.94427
3.80075
3.64572
3.47587
3.30746
3.15605
3.01351
2.88101
2.76118
2.65511
2.55737
2.45467
2.36195
2.21227
5.28271
4.22892
3.35044
2.69791
2.19676
1.80759
1.559
1.32203
1.17123
1.09234
1.01509
1.00793
1.19776
2.20331
2.76485
2.91045
2.8456
2.81181
2.76859
2.69943
2.59952
2.47212
2.34673
2.27604
2.54573
3.37125
3.80559
3.77474
3.65594
3.49615
3.31394
3.14633
3.00054
2.86966
2.75027
2.64061
2.54457
2.44865
2.356
2.19275
5.32207
4.35035
3.48972
2.86786
2.3357
1.95031
1.68771
1.44942
1.30364
1.15128
1.02659
1.03421
1.42306
2.43008
2.60921
2.76517
2.79493
2.79145
2.74387
2.66715
2.56443
2.43736
2.33693
2.24818
2.21577
2.67169
3.4181
3.66891
3.61287
3.47482
3.28695
3.10609
2.96895
2.8604
2.75463
2.64195
2.52844
2.422
2.3349
2.17547
5.3816
4.4605
3.61628
3.01537
2.46418
2.10482
1.81752
1.58079
1.41972
1.21474
1.08016
1.10702
1.80091
2.56231
2.59226
2.62416
2.69531
2.70777
2.6971
2.6159
2.50704
2.38024
2.29853
2.21839
2.12102
2.1706
2.74135
3.42195
3.52377
3.42595
3.24866
3.0553
2.91646
2.82763
2.74189
2.64252
2.5294
2.40925
2.30738
2.15006
5.4588
4.57091
3.74471
3.15438
2.59891
2.26741
1.94096
1.7074
1.51804
1.28831
1.15379
1.28675
2.22614
2.66193
2.61478
2.54499
2.5523
2.57873
2.59764
2.52601
2.4242
2.30558
2.23657
2.18708
2.10544
2.01463
2.14758
2.78013
3.33451
3.36129
3.23034
3.04065
2.8826
2.78579
2.70796
2.62207
2.52651
2.4106
2.29815
2.1358
5.55724
4.68565
3.89027
3.28911
2.75672
2.42706
2.06563
1.82579
1.59958
1.36365
1.23454
1.66198
2.68015
2.72984
2.63302
2.51128
2.4205
2.39029
2.39503
2.38578
2.31744
2.23673
2.18182
2.15724
2.09394
1.99887
1.93724
2.14329
2.77946
3.21733
3.2011
3.06872
2.89442
2.76571
2.67324
2.59043
2.5074
2.40712
2.30229
2.1349
5.64404
4.7876
4.04451
3.42727
2.93259
2.56461
2.18515
1.93401
1.65934
1.4504
1.38121
2.23782
2.96884
2.85863
2.67343
2.5153
2.39865
2.2714
2.20756
2.19674
2.18602
2.16117
2.14771
2.12305
2.0819
1.99679
1.88531
1.85631
2.14254
2.75289
3.09059
3.05028
2.92343
2.78769
2.67478
2.57261
2.48181
2.39295
2.29987
2.13763
5.71798
4.87652
4.19071
3.55633
3.0963
2.67653
2.29878
2.02826
1.70894
1.54181
1.71297
2.85723
3.10391
2.96191
2.7527
2.55775
2.38931
2.24702
2.14031
2.07132
2.06281
2.06099
2.07745
2.09329
2.05939
1.98686
1.87212
1.76502
1.78365
2.1418
2.72132
2.94275
2.90601
2.80717
2.69164
2.57961
2.47293
2.37757
2.29616
2.13449
5.77606
4.9503
4.2979
3.66932
3.23361
2.76465
2.40807
2.10671
1.78149
1.64336
2.29757
3.43022
3.2563
3.0405
2.82343
2.61222
2.41827
2.25134
2.12918
2.03695
1.97125
1.9596
1.97397
2.00298
1.98074
1.93971
1.8443
1.73139
1.66648
1.72288
2.14584
2.68822
2.80131
2.76401
2.69818
2.58532
2.46865
2.36261
2.2601
2.11116
5.82939
5.02273
4.37682
3.77777
3.34386
2.84772
2.51164
2.16096
1.88362
1.84427
3.06939
3.73773
3.47568
3.17467
2.9274
2.69973
2.48607
2.29882
2.14978
2.03039
1.93287
1.85839
1.83727
1.85027
1.86134
1.8378
1.77518
1.69785
1.64171
1.5961
1.69259
2.16633
2.62002
2.66035
2.61562
2.56306
2.46607
2.3449
2.23997
2.09726
5.88296
5.10718
4.45205
3.89551
3.43206
2.93825
2.60802
2.21265
1.98815
2.31855
3.79836
3.85204
3.59919
3.28745
3.01189
2.76589
2.53975
2.35141
2.19198
2.05051
1.9225
1.82088
1.72611
1.68633
1.68719
1.70012
1.68225
1.6602
1.61655
1.57345
1.54321
1.67873
2.1573
2.55708
2.54281
2.48264
2.41081
2.31643
2.22269
2.08827
5.93547
5.20848
4.54819
4.02375
3.49972
3.04388
2.68434
2.28225
2.11162
3.13169
4.33819
4.00492
3.69437
3.39436
3.10587
2.84614
2.61606
2.41907
2.24781
2.08345
1.93449
1.80355
1.69663
1.61002
1.57246
1.57936
1.59371
1.60111
1.60427
1.56611
1.50594
1.48975
1.65624
2.11495
2.45075
2.41139
2.36115
2.27487
2.19402
2.07853
5.99189
5.3234
4.67426
4.15238
3.55679
3.16185
2.73927
2.39449
2.43263
4.04994
4.56471
4.21319
3.82087
3.48767
3.18463
2.91102
2.67506
2.47637
2.30062
2.13052
1.96823
1.81849
1.69067
1.59339
1.52396
1.49023
1.50022
1.52747
1.55883
1.54896
1.50051
1.4189
1.41152
1.59646
2.06618
2.3002
2.31289
2.25707
2.17453
2.05766
6.06756
5.43298
4.80824
4.2319
3.62396
3.25425
2.79134
2.50765
3.19439
4.85903
4.66896
4.33403
3.93642
3.57877
3.26084
2.97525
2.72872
2.52085
2.33929
2.1703
2.00866
1.85571
1.72009
1.60239
1.5111
1.44382
1.41382
1.42665
1.46991
1.49084
1.47214
1.39771
1.33107
1.34101
1.54888
1.98309
2.23036
2.22289
2.16422
2.05611
6.13407
5.55974
4.90601
4.25139
3.70694
3.31785
2.87109
2.66818
4.3233
5.35627
4.86552
4.45314
4.06245
3.68813
3.34755
3.04517
2.78493
2.56383
2.36757
2.18719
2.02457
1.87684
1.74448
1.62564
1.51939
1.42849
1.35575
1.32488
1.33337
1.36996
1.38065
1.35384
1.30302
1.27087
1.29721
1.53685
1.91478
2.11962
2.13953
2.06847
6.11375
5.69861
4.94989
4.23272
3.79756
3.35709
2.94936
3.24668
5.36062
5.55093
5.08391
4.5938
4.16787
3.77299
3.41438
3.10231
2.83262
2.59715
2.39167
2.21077
2.05517
1.91747
1.78665
1.6591
1.53935
1.4271
1.33744
1.27489
1.24345
1.24373
1.27269
1.28015
1.26453
1.24795
1.22472
1.26514
1.51816
1.86632
2.06433
2.03303
5.68525
5.54269
4.91913
4.25275
3.90216
3.39101
3.06385
4.39566
6.17975
5.70657
5.21154
4.72043
4.27239
3.86259
3.49819
3.1817
2.90019
2.643
2.41975
2.23971
2.0913
1.95292
1.82138
1.69276
1.56593
1.44177
1.33443
1.25873
1.20918
1.17365
1.17434
1.20327
1.20999
1.20994
1.19308
1.17536
1.22485
1.48238
1.8561
1.9354
4.73298
5.37543
4.93275
4.38315
3.97803
3.47337
3.35496
5.78379
6.56805
5.91435
5.34961
4.84404
4.36678
3.93706
3.57127
3.25433
2.96501
2.69401
2.4517
2.24953
2.08661
1.95275
1.82971
1.70721
1.58465
1.46256
1.34984
1.26047
1.19377
1.15301
1.12049
1.1267
1.14123
1.15398
1.15237
1.13473
1.11655
1.17183
1.44063
1.77377
3.25719
5.21335
4.95898
4.53126
4.0328
3.55255
4.32361
6.98186
6.71137
6.08206
5.47204
4.92336
4.42232
3.99193
3.63688
3.32958
3.04232
2.7652
2.50485
2.27802
2.09709
1.95824
1.84395
1.73031
1.6086
1.48229
1.36368
1.26762
1.19442
1.13763
1.10062
1.07335
1.07171
1.07998
1.09257
1.08566
1.0685
1.04769
1.10258
1.46558
2.40568
5.0806
5.05037
4.68346
4.05474
3.65666
5.99608
7.75417
6.88243
6.19779
5.55298
4.96854
4.46057
4.04759
3.70667
3.40327
3.11363
2.83182
2.56368
2.32271
2.12307
1.96358
1.83385
1.72262
1.61641
1.50319
1.38751
1.2775
1.18995
1.12796
1.08504
1.04869
1.01761
1.00919
1.00803
1.02062
1.01785
0.996916
0.986463
1.15468
1.53429
4.63284
5.15621
4.75209
4.10509
4.24347
7.73599
8.08649
7.13078
6.33253
5.62677
5.00739
4.49301
4.07922
3.73547
3.43161
3.14857
2.87802
2.62027
2.37942
2.16376
1.98552
1.84564
1.72995
1.62482
1.52171
1.41786
1.31038
1.2108
1.12823
1.07024
1.02691
0.988585
0.958186
0.946383
0.943136
0.959404
0.958015
0.946618
0.977525
1.08821
3.9451
5.04986
4.73251
4.21578
5.77357
9.07287
8.28647
7.28992
6.41161
5.67111
5.04895
4.53935
4.11747
3.7518
3.42834
3.14762
2.8988
2.66212
2.4336
2.20994
2.00839
1.85129
1.73283
1.63258
1.53306
1.42891
1.32228
1.2245
1.14138
1.07291
1.01697
0.969363
0.932047
0.905112
0.891368
0.902139
0.909653
0.90807
0.907273
1.00111
3.0385
4.87387
4.74548
4.41496
7.85138
9.85421
8.4929
7.41282
6.48775
5.71825
5.09784
4.59537
4.16444
3.777
3.4302
3.12888
2.88073
2.66613
2.45549
2.24073
2.03635
1.86431
1.73161
1.62717
1.53455
1.4389
1.33655
1.23534
1.15224
1.08399
1.02027
0.964816
0.92013
0.8855
0.858224
0.854743
0.858496
0.861775
0.867462
0.999946
2.04914
4.64654
4.80659
5.3225
9.7203
10.1043
8.61187
7.5086
6.57277
5.79688
5.17715
4.67084
4.22868
3.82157
3.4525
3.13502
2.87714
2.66304
2.46002
2.26068
2.07183
1.90124
1.75492
1.63467
1.53507
1.44392
1.35121
1.25593
1.16905
1.09416
1.02584
0.965123
0.914545
0.876629
0.846411
0.820702
0.813823
0.810164
0.82526
0.999953
1.3395
4.10731
4.54135
7.00542
11.2738
10.2264
8.65973
7.54097
6.62423
5.87728
5.27234
4.75773
4.29683
3.87193
3.48725
3.15891
2.88726
2.66569
2.4615
2.26993
2.09385
1.9303
1.7805
1.64746
1.5341
1.43501
1.34435
1.27304
1.2052
1.12883
1.05586
0.991159
0.934863
0.890143
0.850572
0.807046
0.77558
0.764483
0.778142
0.999965
1.05249
3.27751
4.14076
9.37182
11.9563
10.2284
8.67352
7.55716
6.67486
5.95278
5.34698
4.8164
4.339
3.91205
3.52756
3.18958
2.89976
2.66167
2.4587
2.27527
2.10581
1.94459
1.79503
1.65947
1.54151
1.43969
1.35264
1.27473
1.19471
1.11576
1.04182
0.977719
0.921502
0.874984
0.831908
0.796252
0.757821
0.731006
0.73185
0.999977
1.00436
2.19378
4.3438
11.6715
12.3041
10.3065
8.71278
7.5827
6.72272
6.0112
5.39264
4.84875
4.36676
3.93695
3.55876
3.21781
2.92425
2.66477
2.45285
2.27466
2.11507
1.96147
1.81125
1.66756
1.54445
1.44152
1.35649
1.27622
1.19612
1.11708
1.0431
0.978698
0.922056
0.873503
0.828736
0.792241
0.7529
0.724658
0.695116
0.999988
1.00023
1.43555
4.92567
13.2405
12.3754
10.2483
8.72536
7.62029
6.76368
6.03923
5.39913
4.84814
4.37166
3.94249
3.58992
3.30568
3.01032
2.72848
2.50311
2.32605
2.17237
2.021
1.86247
1.7045
1.57188
1.46909
1.38595
1.30588
1.22531
1.14275
1.06499
0.997507
0.940073
0.888253
0.842757
0.80117
0.761959
0.725758
0.682497
0.999995
1.00001
1.12029
5.63233
15.3975
12.6864
10.2415
8.68812
7.60038
6.74581
6.01379
5.36776
4.79941
4.32929
3.95953
3.62332
3.27275
2.95699
2.67817
2.45228
2.27643
2.12847
1.98138
1.82437
1.6654
1.53157
1.43083
1.35142
1.27422
1.19677
1.11594
1.04064
0.972651
0.917213
0.863939
0.822124
0.778558
0.743498
0.70469
0.665653
)
;

boundaryField
{
    inlet
    {
        type            fixedValue;
        value           uniform 1;
    }
    outlet
    {
        type            zeroGradient;
    }
    top
    {
        type            symmetryPlane;
    }
    bottom
    {
        type            symmetryPlane;
    }
    step
    {
        type            zeroGradient;
    }
    defaultFaces
    {
        type            empty;
    }
}


// ************************************************************************* //
