/*--------------------------------*- C++ -*----------------------------------*\
  =========                 |
  \\      /  F ield         | OpenFOAM: The Open Source CFD Toolbox
   \\    /   O peration     | Website:  https://openfoam.org
    \\  /    A nd           | Version:  6.0
     \\/     M anipulation  |
\*---------------------------------------------------------------------------*/
FoamFile
{
    version     2.0;
    format      ascii;
    class       volScalarField;
    location    "2.0002372";
    object      rho;
}
// * * * * * * * * * * * * * * * * * * * * * * * * * * * * * * * * * * * * * //

dimensions      [1 -3 0 0 0 0 0];

internalField   nonuniform List<scalar> 
4800
(
1.39997
1.39997
1.39997
1.39997
1.39997
1.39997
1.39997
1.39997
1.39997
1.39997
1.39997
1.39997
1.39997
1.39997
1.39997
1.39997
1.39997
1.39997
1.39997
1.39997
1.45266
4.12317
5.4286
5.57143
5.64453
5.64388
5.48148
5.28147
5.33782
5.64376
6.04536
6.2831
6.23551
5.81147
5.3608
5.34303
5.64991
5.89921
5.63945
5.33124
1.39997
1.39997
1.39997
1.39997
1.39997
1.39997
1.39997
1.39997
1.39997
1.39997
1.39997
1.39997
1.39997
1.39997
1.39997
1.39997
1.39997
1.39997
1.39997
1.39997
1.4529
4.08963
5.40566
5.48136
5.58878
5.61374
5.6092
5.57539
5.65057
5.8062
5.87865
5.81673
5.7292
5.74486
5.88463
5.93538
5.95421
5.94477
5.95876
5.99283
1.39997
1.39997
1.39997
1.39997
1.39997
1.39997
1.39997
1.39997
1.39997
1.39997
1.39997
1.39997
1.39997
1.39997
1.39997
1.39997
1.39997
1.39997
1.39997
1.39997
1.43977
4.08064
5.41689
5.40422
5.4663
5.58305
5.70572
5.93093
5.94645
5.89705
5.71345
5.47765
5.34729
5.60539
6.09813
6.28139
6.17257
6.0429
6.22519
6.57483
1.39997
1.39997
1.39997
1.39997
1.39997
1.39997
1.39997
1.39997
1.39997
1.39997
1.39997
1.39997
1.39997
1.39997
1.39997
1.39997
1.39997
1.39997
1.39997
1.39997
1.42476
4.07258
5.44007
5.39488
5.3582
5.50539
5.85852
6.08785
6.17681
5.93098
5.5264
5.36903
5.4988
5.81715
6.10933
6.26729
6.13264
5.9795
6.22389
6.59457
1.39997
1.39997
1.39997
1.39997
1.39997
1.39997
1.39997
1.39997
1.39997
1.39997
1.39997
1.39997
1.39997
1.39997
1.39997
1.39997
1.39997
1.39997
1.39997
1.39997
1.4147
4.0712
5.45186
5.41909
5.42062
5.52639
5.77014
6.00574
5.97098
5.62202
5.52899
5.61443
5.92377
6.12647
6.06939
5.90698
5.77249
5.80876
5.94568
6.10172
1.39997
1.39997
1.39997
1.39997
1.39997
1.39997
1.39997
1.39997
1.39997
1.39997
1.39997
1.39997
1.39997
1.39997
1.39997
1.39997
1.39997
1.39997
1.39997
1.39997
1.40626
4.06515
5.44771
5.49019
5.56524
5.57916
5.62204
5.684
5.61077
5.55402
5.55211
5.88599
6.19601
6.30528
6.19083
5.74941
5.53466
5.51736
5.58621
5.58833
1.39997
1.39997
1.39997
1.39997
1.39997
1.39997
1.39997
1.39997
1.39997
1.39997
1.39997
1.39997
1.39997
1.39997
1.39997
1.39997
1.39997
1.39997
1.39997
1.39997
1.40089
4.0414
5.42365
5.56035
5.6488
5.65782
5.51465
5.35682
5.36637
5.57642
5.8512
6.04882
6.17755
6.09046
5.58917
5.58531
5.67748
5.68674
5.61966
5.44903
1.39997
1.39997
1.39997
1.39997
1.39997
1.39997
1.39997
1.39997
1.39997
1.39997
1.39997
1.39997
1.39997
1.39997
1.39997
1.39997
1.39997
1.39997
1.39997
1.39997
1.40001
3.98776
5.40881
5.56036
5.64385
5.67648
5.52139
5.27588
5.37034
5.83458
6.23199
6.15284
5.93038
5.4907
5.51711
5.75036
5.98731
6.13988
6.03924
5.89675
1.39997
1.39997
1.39997
1.39997
1.39997
1.39997
1.39997
1.39997
1.39997
1.39997
1.39997
1.39997
1.39997
1.39997
1.39997
1.39997
1.39997
1.39997
1.39997
1.39997
1.39997
3.93537
5.41441
5.47868
5.59275
5.60659
5.5436
5.48784
5.63869
5.99375
6.28911
6.33543
5.70041
5.25349
5.25791
5.67855
6.12743
6.57658
6.35153
6.39894
1.39997
1.39997
1.39997
1.39997
1.39997
1.39997
1.39997
1.39997
1.39997
1.39997
1.39997
1.39997
1.39997
1.39997
1.39997
1.39997
1.39997
1.39997
1.39997
1.39997
1.39997
3.89464
5.44542
5.43681
5.43129
5.47946
5.59145
5.8332
5.94238
5.88838
5.91346
5.64857
5.60457
5.63684
5.74342
5.89898
6.12476
6.09901
6.36196
6.58664
1.39997
1.39997
1.39997
1.39997
1.39997
1.39997
1.39997
1.39997
1.39997
1.39997
1.39997
1.39997
1.39997
1.39997
1.39997
1.39997
1.39997
1.39997
1.39997
1.39997
1.39997
3.84643
5.46285
5.42147
5.3391
5.34049
5.66069
5.97869
6.12594
5.9284
5.3166
5.20592
5.61114
6.18647
6.46348
6.28985
6.00043
5.6302
5.87899
6.31036
1.39997
1.39997
1.39997
1.39997
1.39997
1.39997
1.39997
1.39997
1.39997
1.39997
1.39997
1.39997
1.39997
1.39997
1.39997
1.39997
1.39997
1.39997
1.39997
1.39997
1.39997
3.78382
5.43584
5.40189
5.37556
5.46857
5.64977
5.85937
5.96788
5.72432
5.36361
5.23683
5.55565
6.30873
6.84558
6.82047
5.86545
5.37714
5.56338
5.90927
1.39997
1.39997
1.39997
1.39997
1.39997
1.39997
1.39997
1.39997
1.39997
1.39997
1.39997
1.39997
1.39997
1.39997
1.39997
1.39997
1.39997
1.39997
1.39997
1.39997
1.39997
3.70185
5.36772
5.42711
5.55752
5.62547
5.62465
5.65197
5.60534
5.55289
5.63443
5.60172
5.86099
6.06781
6.2675
5.89097
5.75313
5.6666
5.63754
5.63302
1.39997
1.39997
1.39997
1.39997
1.39997
1.39997
1.39997
1.39997
1.39997
1.39997
1.39997
1.39997
1.39997
1.39997
1.39997
1.39997
1.39997
1.39997
1.39997
1.39997
1.39997
3.6139
5.29155
5.509
5.65441
5.74259
5.67909
5.49315
5.29259
5.36359
5.67101
6.15077
6.10046
5.78658
5.18632
5.29291
5.80865
6.06277
5.87894
5.57417
1.39997
1.39997
1.39997
1.39997
1.39997
1.39997
1.39997
1.39997
1.39997
1.39997
1.39997
1.39997
1.39997
1.39997
1.39997
1.39997
1.39997
1.39997
1.39997
1.39997
1.39997
3.55912
5.32368
5.48557
5.61743
5.70867
5.73113
5.46592
5.22453
5.28483
5.79814
6.30574
6.3461
5.52005
4.80738
4.97609
5.6798
6.22259
5.93226
5.53746
1.39997
1.39997
1.39997
1.39997
1.39997
1.39997
1.39997
1.39997
1.39997
1.39997
1.39997
1.39997
1.39997
1.39997
1.39997
1.39997
1.39997
1.39997
1.39997
1.39997
1.39997
3.50263
5.37016
5.46652
5.52204
5.59842
5.54832
5.50837
5.4868
5.71008
5.98032
6.08519
5.97233
5.4098
5.12733
5.11262
5.56459
6.18904
6.14209
6.00944
1.39997
1.39997
1.39997
1.39997
1.39997
1.39997
1.39997
1.39997
1.39997
1.39997
1.39997
1.39997
1.39997
1.39997
1.39997
1.39997
1.39997
1.39997
1.39997
1.39997
1.39997
3.4341
5.40039
5.4531
5.43836
5.39707
5.38889
5.54127
5.93727
6.10763
6.00565
5.7641
5.42706
5.60965
5.87756
5.94049
5.95635
5.88567
6.15131
6.64024
1.39997
1.39997
1.39997
1.39997
1.39997
1.39997
1.39997
1.39997
1.39997
1.39997
1.39997
1.39997
1.39997
1.39997
1.39997
1.39997
1.39997
1.39997
1.39997
1.39997
1.39997
3.34207
5.38417
5.42973
5.34809
5.25869
5.32162
5.67662
6.09033
6.27564
6.09427
5.27711
5.23972
5.77225
6.58098
6.7206
6.27721
5.5905
6.05154
6.75572
1.39997
1.39997
1.39997
1.39997
1.39997
1.39997
1.39997
1.39997
1.39997
1.39997
1.39997
1.39997
1.39997
1.39997
1.39997
1.39997
1.39997
1.39997
1.39997
1.39997
1.39997
3.21715
5.33168
5.36406
5.34051
5.36439
5.56827
5.78837
5.9177
6.04377
5.6183
5.42815
5.34578
5.89398
6.53911
6.76853
6.32783
5.64295
5.7896
6.31575
1.39997
1.39997
1.39997
1.39997
1.39997
1.39997
1.39997
1.39997
1.39997
1.39997
1.39997
1.39997
1.39997
1.39997
1.39997
1.39997
1.39997
1.39997
1.39997
1.39997
1.39997
3.08889
5.23442
5.32333
5.42785
5.6429
5.71885
5.72771
5.7229
5.33399
5.36271
5.57703
5.8032
5.9967
6.24315
6.2378
5.81831
5.875
5.74484
5.58065
1.39997
1.39997
1.39997
1.39997
1.39997
1.39997
1.39997
1.39997
1.39997
1.39997
1.39997
1.39997
1.39997
1.39997
1.39997
1.39997
1.39997
1.39997
1.39997
1.39997
1.39997
2.96921
5.14274
5.35614
5.60157
5.71183
5.7816
5.7642
5.36929
5.0785
5.22342
5.6949
6.22045
6.13949
5.69332
5.12853
5.48543
5.84754
5.8428
5.59788
1.39997
1.39997
1.39997
1.39997
1.39997
1.39997
1.39997
1.39997
1.39997
1.39997
1.39997
1.39997
1.39997
1.39997
1.39997
1.39997
1.39997
1.39997
1.39997
1.39997
1.39997
2.89115
5.15231
5.45747
5.57435
5.67407
5.72931
5.50252
5.26126
5.21361
5.32027
5.89717
6.22576
6.11738
5.21662
5.07709
5.37967
5.69997
5.74081
5.64125
1.39997
1.39997
1.39997
1.39997
1.39997
1.39997
1.39997
1.39997
1.39997
1.39997
1.39997
1.39997
1.39997
1.39997
1.39997
1.39997
1.39997
1.39997
1.39997
1.39997
1.39997
2.82084
5.23032
5.49989
5.5287
5.55512
5.44056
5.37713
5.35377
5.50184
5.94637
6.0329
6.03004
5.55905
5.22844
5.25288
5.51758
5.61568
5.59661
5.50498
1.39997
1.39997
1.39997
1.39997
1.39997
1.39997
1.39997
1.39997
1.39997
1.39997
1.39997
1.39997
1.39997
1.39997
1.39997
1.39997
1.39997
1.39997
1.39997
1.39997
1.39997
2.70879
5.24644
5.49412
5.49454
5.39039
5.27766
5.22852
5.44685
5.99189
6.22347
6.20875
5.78469
5.23319
5.1143
5.37242
5.70621
5.99051
5.57874
5.33642
1.39997
1.39997
1.39997
1.39997
1.39997
1.39997
1.39997
1.39997
1.39997
1.39997
1.39997
1.39997
1.39997
1.39997
1.39997
1.39997
1.39997
1.39997
1.39997
1.39997
1.39997
2.57613
5.1751
5.49272
5.37099
5.2997
5.27029
5.40165
5.86225
6.04989
6.10205
5.89772
5.31252
5.29453
5.5559
5.97274
6.15251
6.07801
6.08136
6.16615
1.39997
1.39997
1.39997
1.39997
1.39997
1.39997
1.39997
1.39997
1.39997
1.39997
1.39997
1.39997
1.39997
1.39997
1.39997
1.39997
1.39997
1.39997
1.39997
1.39997
1.39997
2.43792
5.07695
5.34184
5.31243
5.33424
5.51912
5.7963
5.89563
5.90387
5.80621
5.19848
5.31809
5.55513
6.31396
6.4317
6.278
5.93526
6.4308
7.04903
1.39997
1.39997
1.39997
1.39997
1.39997
1.39997
1.39997
1.39997
1.39997
1.39997
1.39997
1.39997
1.39997
1.39997
1.39997
1.39997
1.39997
1.39997
1.39997
1.39997
1.39997
2.28722
4.93742
5.23447
5.27045
5.50956
5.75371
5.87937
5.94415
5.89021
5.16908
4.99675
5.16414
5.9703
6.57598
6.54132
6.24994
5.75013
6.34301
7.13076
1.39997
1.39997
1.39997
1.39997
1.39997
1.39997
1.39997
1.39997
1.39997
1.39997
1.39997
1.39997
1.39997
1.39997
1.39997
1.39997
1.39997
1.39997
1.39997
1.39997
1.39997
2.14116
4.81266
5.22266
5.44541
5.63282
5.7218
5.79967
5.74575
5.17446
5.17688
5.19276
5.5887
6.16401
6.44241
6.40176
5.76613
5.64157
5.6996
5.72584
1.39997
1.39997
1.39997
1.39997
1.39997
1.39997
1.39997
1.39997
1.39997
1.39997
1.39997
1.39997
1.39997
1.39997
1.39997
1.39997
1.39997
1.39997
1.39997
1.39997
1.39997
2.03623
4.71604
5.42996
5.58425
5.62782
5.61947
5.55154
5.20714
5.14703
5.28798
5.80835
6.18499
6.0479
5.83931
5.10847
5.26158
5.42528
5.26366
5.13705
1.39997
1.39997
1.39997
1.39997
1.39997
1.39997
1.39997
1.39997
1.39997
1.39997
1.39997
1.39997
1.39997
1.39997
1.39997
1.39997
1.39997
1.39997
1.39997
1.39997
1.39997
1.95292
4.75842
5.59801
5.6107
5.61507
5.55727
5.23471
5.03676
5.06817
5.52736
6.18532
6.28497
6.06267
5.02476
4.90224
5.13431
5.33524
5.18612
5.11133
1.39997
1.39997
1.39997
1.39997
1.39997
1.39997
1.39997
1.39997
1.39997
1.39997
1.39997
1.39997
1.39997
1.39997
1.39997
1.39997
1.39997
1.39997
1.39997
1.39997
1.39997
1.83475
4.8299
5.65329
5.61214
5.60027
5.30227
5.1593
5.13471
5.50178
5.97694
6.06033
6.13726
5.4131
4.84586
4.83432
5.03622
5.1934
5.25338
5.07383
1.39997
1.39997
1.39997
1.39997
1.39997
1.39997
1.39997
1.39997
1.39997
1.39997
1.39997
1.39997
1.39997
1.39997
1.39997
1.39997
1.39997
1.39997
1.39997
1.39997
1.39997
1.6549
4.73608
5.63407
5.56434
5.34144
5.24213
5.25847
5.64377
5.97146
5.96448
5.95825
5.46041
5.09717
5.00679
4.99749
5.3729
5.63757
5.27195
4.96263
1.39997
1.39997
1.39997
1.39997
1.39997
1.39997
1.39997
1.39997
1.39997
1.39997
1.39997
1.39997
1.39997
1.39997
1.39997
1.39997
1.39997
1.39997
1.39997
1.39997
1.39997
1.49903
4.54892
5.56658
5.33095
5.17611
5.22553
5.58273
5.95614
6.02891
5.99896
5.5125
4.99165
5.09541
5.35248
6.11964
6.29217
6.11886
5.21028
4.94157
1.39997
1.39997
1.39997
1.39997
1.39997
1.39997
1.39997
1.39997
1.39997
1.39997
1.39997
1.39997
1.39997
1.39997
1.39997
1.39997
1.39997
1.39997
1.39997
1.39997
1.39997
1.43457
4.26785
5.3448
5.18774
5.1759
5.52568
5.84696
5.88522
5.93381
5.6216
5.01907
5.0004
5.23667
6.2653
6.50936
6.35965
6.02827
6.06649
6.16948
1.39997
1.39997
1.39997
1.39997
1.39997
1.39997
1.39997
1.39997
1.39997
1.39997
1.39997
1.39997
1.39997
1.39997
1.39997
1.39997
1.39997
1.39997
1.39997
1.39997
1.39997
1.41056
4.05147
5.23591
5.21904
5.57601
5.7755
5.79471
5.79733
5.45899
5.04662
4.97717
5.07708
5.96497
6.30977
6.30474
6.30783
5.79147
6.30289
7.22415
1.39997
1.39997
1.39997
1.39997
1.39997
1.39997
1.39997
1.39997
1.39997
1.39997
1.39997
1.39997
1.39997
1.39997
1.39997
1.39997
1.39997
1.39997
1.39997
1.39997
1.39997
1.40191
3.91944
5.20856
5.57086
5.72037
5.77847
5.75328
5.44893
4.95437
5.01077
5.17643
5.96461
6.1452
6.24935
6.10663
5.06632
5.12152
6.19831
7.22556
1.39997
1.39997
1.39997
1.39997
1.39997
1.39997
1.39997
1.39997
1.39997
1.39997
1.39997
1.39997
1.39997
1.39997
1.39997
1.39997
1.39997
1.39997
1.39997
1.39997
1.39997
1.40002
3.77792
5.41161
5.5909
5.69874
5.71258
5.60747
5.05404
4.92468
5.03946
5.8757
6.17125
6.15691
5.93922
4.83005
4.84077
4.90021
4.9429
5.33463
1.39997
1.39997
1.39997
1.39997
1.39997
1.39997
1.39997
1.39997
1.39997
1.39997
1.39997
1.39997
1.39997
1.39997
1.39997
1.39997
1.39997
1.39997
1.39997
1.39997
1.39997
1.39993
3.63129
5.41249
5.56214
5.61209
5.55242
5.14284
5.02168
5.05726
5.74142
6.0202
6.00024
5.91171
4.9179
4.78033
4.81996
4.83329
4.60593
4.66111
1.39997
1.39997
1.39997
1.39997
1.39997
1.39997
1.39997
1.39997
1.39997
1.39997
1.39997
1.39997
1.39997
1.39997
1.39997
1.39997
1.39997
1.39997
1.39997
1.39997
1.39997
1.39994
3.43766
5.32528
5.4189
5.31543
5.12613
5.05633
5.06876
5.74234
5.99068
6.03908
5.95482
5.14307
4.66684
4.62058
4.69608
4.69792
4.72579
4.35443
1.39997
1.39997
1.39997
1.39997
1.39997
1.39997
1.39997
1.39997
1.39997
1.39997
1.39997
1.39997
1.39997
1.39997
1.39997
1.39997
1.39997
1.39997
1.39997
1.39997
1.39997
1.39996
3.15212
5.05692
5.11596
5.12511
5.08332
5.11706
5.64768
5.8634
5.87681
5.79584
5.22321
4.70698
4.66581
4.85487
5.08813
5.3153
4.85139
3.78974
1.39997
1.39997
1.39997
1.39997
1.39997
1.39997
1.39997
1.39997
1.39997
1.39997
1.39997
1.39997
1.39997
1.39997
1.39997
1.39997
1.39997
1.39997
1.39997
1.39997
1.39997
1.39997
2.65246
4.95984
5.20087
5.27585
5.38402
5.50448
5.55564
5.48856
5.34885
5.16497
5.13861
5.33878
5.50404
5.61723
5.65995
5.38124
4.66162
3.42119
1.39997
1.39997
1.39997
1.39997
1.39997
1.39997
1.39997
1.39997
1.39997
1.39997
1.39997
1.39997
1.39997
1.39997
1.39997
1.39997
1.39997
1.39997
1.39997
1.39997
1.39997
1.39997
1.8758
4.72868
5.39188
5.37127
5.36871
5.35914
5.30926
5.27208
5.24991
5.29743
5.37579
5.37735
5.31031
5.14354
4.91616
4.72198
4.43051
3.77374
1.39997
1.39997
1.39997
1.39997
1.39997
1.39997
1.39997
1.39997
1.39997
1.39997
1.39997
1.39997
1.39997
1.39997
1.39997
1.39997
1.39997
1.39997
1.39997
1.39997
1.39997
1.39997
1.4359
3.93837
5.29887
5.28847
5.26944
5.26484
5.26343
5.26592
5.26687
5.24432
5.19267
5.1049
4.98715
4.86717
4.73577
4.55308
4.09994
3.59427
1.39997
1.39997
1.39997
1.39997
1.39997
1.39997
1.39997
1.39997
1.39997
1.39997
1.39997
1.39997
1.39997
1.39997
1.39997
1.39997
1.39997
1.39997
1.39997
1.39997
1.39997
1.39997
1.4
2.80578
5.08502
5.2629
5.26638
5.28295
5.27496
5.2396
5.18697
5.12138
5.04414
4.96468
4.87711
4.77659
4.62484
4.3792
3.93751
3.51215
1.39997
1.39997
1.39997
1.39997
1.39997
1.39997
1.39997
1.39997
1.39997
1.39997
1.39997
1.39997
1.39997
1.39997
1.39997
1.39997
1.39997
1.39997
1.39997
1.39997
1.39997
1.39997
1.39996
1.77592
4.65811
5.30495
5.26999
5.24208
5.21655
5.16983
5.11882
5.05952
4.98083
4.88239
4.75958
4.62097
4.45333
4.24018
3.8773
3.53108
1.39997
1.39997
1.39997
1.39997
1.39997
1.39997
1.39997
1.39997
1.39997
1.39997
1.39997
1.39997
1.39997
1.39997
1.39997
1.39997
1.39997
1.39997
1.39997
1.39997
1.39997
1.39997
1.39997
1.41611
3.65132
5.15689
5.1479
5.1454
5.14555
5.12829
5.09383
5.02975
4.92768
4.80494
4.66158
4.49648
4.32411
4.12256
3.83014
3.53817
1.39997
1.39997
1.39997
1.39997
1.39997
1.39997
1.39997
1.39997
1.39997
1.39997
1.39997
1.39997
1.39997
1.39997
1.39997
1.39997
1.39997
1.39997
1.39997
1.39997
1.39997
1.39997
1.39997
1.39995
2.29993
4.82749
5.10769
5.0874
5.09122
5.08234
5.04489
4.97395
4.88032
4.76594
4.6281
4.45451
4.25741
4.03912
3.79266
3.52869
1.39997
1.39997
1.39997
1.39997
1.39997
1.39997
1.39997
1.39997
1.39997
1.39997
1.39997
1.39997
1.39997
1.39997
1.39997
1.39997
1.39997
1.39997
1.39997
1.39997
1.39997
1.39997
1.39997
1.39997
1.49449
3.89838
5.07432
5.05778
5.04051
5.01631
4.9705
4.91151
4.84223
4.74102
4.60775
4.43906
4.24223
4.02859
3.80456
3.56997
1.39997
1.39997
1.39997
1.39997
1.39997
1.39997
1.39997
1.39997
1.39997
1.39997
1.39997
1.39997
1.39997
1.39997
1.39997
1.39997
1.39997
1.39997
1.39997
1.39997
1.39997
1.39997
1.39997
1.39997
1.4005
2.39866
4.80077
5.02945
4.99332
4.96303
4.90769
4.85945
4.79707
4.7005
4.571
4.42017
4.2448
4.05194
3.85226
3.63099
1.39997
1.39997
1.39997
1.39997
1.39997
1.39997
1.39997
1.39997
1.39997
1.39997
1.39997
1.39997
1.39997
1.39997
1.39997
1.39997
1.39997
1.39997
1.39997
1.39997
1.39997
1.39997
1.39997
1.39997
1.39997
1.5069
3.82929
5.03285
5.00744
4.93836
4.8683
4.80801
4.73889
4.64164
4.52187
4.3926
4.24745
4.08381
3.90301
3.69058
1.39997
1.39997
1.39997
1.39997
1.39997
1.39997
1.39997
1.39997
1.39997
1.39997
1.39997
1.39997
1.39997
1.39997
1.39997
1.39997
1.39997
1.39997
1.39997
1.39997
1.39997
1.39997
1.39997
1.39997
1.39997
1.40078
2.16772
4.6903
5.00417
4.91961
4.85479
4.77926
4.69733
4.5937
4.47424
4.35572
4.23146
4.08881
3.92459
3.73273
1.39997
1.39997
1.39997
1.39997
1.39997
1.39997
1.39997
1.39997
1.39997
1.39997
1.39997
1.39997
1.39997
1.39997
1.39997
1.39997
1.39997
1.39997
1.39997
1.39997
1.39997
1.39997
1.39997
1.39997
1.39997
1.39997
1.45796
3.47871
4.92083
4.91799
4.84508
4.76299
4.66856
4.56171
4.44719
4.32727
4.20591
4.07502
3.92231
3.75886
1.39997
1.39997
1.39997
1.39997
1.39997
1.39997
1.39997
1.39997
1.39997
1.39997
1.39997
1.39997
1.39997
1.39997
1.39997
1.39997
1.39997
1.39997
1.39997
1.39997
1.39997
1.39997
1.39997
1.39997
1.39997
1.39997
1.40025
1.84538
4.34318
4.95298
4.85436
4.7738
4.67341
4.56741
4.45553
4.33165
4.20284
4.06697
3.9172
3.77479
1.39997
1.39997
1.39997
1.39997
1.39997
1.39997
1.39997
1.39997
1.39997
1.39997
1.39997
1.39997
1.39997
1.39997
1.39997
1.39997
1.39997
1.39997
1.39997
1.39997
1.39997
1.39997
1.39997
1.39997
1.39997
1.39997
1.39997
1.4177
2.71318
4.75497
4.85678
4.77205
4.67861
4.57569
4.46228
4.33457
4.20446
4.06883
3.92458
3.79656
1.39997
1.39997
1.39997
1.39997
1.39997
1.39997
1.39997
1.39997
1.39997
1.39997
1.39997
1.39997
1.39997
1.39997
1.39997
1.39997
1.39997
1.39997
1.39997
1.39997
1.39997
1.39997
1.39997
1.39997
1.39997
1.39997
1.39997
1.40004
1.56526
3.64841
4.82756
4.78571
4.69459
4.59452
4.4828
4.35825
4.23262
4.0996
3.96172
3.8373
1.39997
1.39997
1.39997
1.39997
1.39997
1.39997
1.39997
1.39997
1.39997
1.39997
1.39997
1.39997
1.39997
1.39997
1.39997
1.39997
1.39997
1.39997
1.39997
1.39997
1.39997
1.39997
1.39997
1.39997
1.39997
1.39997
1.39997
1.39997
1.40237
1.94452
4.19026
4.80289
4.71365
4.61454
4.50489
4.39106
4.27489
4.14658
4.01341
3.88969
1.39997
1.39997
1.39997
1.39997
1.39997
1.39997
1.39997
1.39997
1.39997
1.39997
1.39997
1.39997
1.39997
1.39997
1.39997
1.39997
1.39997
1.39997
1.39997
1.39997
1.39997
1.39997
1.39997
1.39997
1.39997
1.39997
1.39997
1.39997
1.39997
1.42625
2.4373
4.51673
4.75612
4.65428
4.55032
4.44049
4.32712
4.20079
4.07318
3.95142
1.39997
1.39997
1.39997
1.39997
1.39997
1.39997
1.39997
1.39997
1.39997
1.39997
1.39997
1.39997
1.39997
1.39997
1.39997
1.39997
1.39997
1.39997
1.39997
1.39997
1.39997
1.39997
1.39997
1.39997
1.39997
1.39997
1.39997
1.39997
1.39997
1.40014
1.49978
3.00984
4.63116
4.71454
4.60158
4.49476
4.37663
4.25059
4.12746
4.00681
1.39997
1.39997
1.39997
1.39997
1.39997
1.39997
1.39997
1.39997
1.39997
1.39997
1.39997
1.39997
1.39997
1.39997
1.39997
1.39997
1.39997
1.39997
1.39997
1.39997
1.39997
1.39997
1.39997
1.39997
1.39997
1.39997
1.39997
1.39997
1.39997
1.39997
1.40118
1.65317
3.52005
4.66069
4.63849
4.5316
4.41875
4.29781
4.18018
4.05956
1.39997
1.39997
1.39997
1.39997
1.39997
1.39997
1.39997
1.39997
1.39997
1.39997
1.39997
1.39997
1.39997
1.39997
1.39997
1.39997
1.39997
1.39997
1.39997
1.39997
1.39997
1.39997
1.39997
1.39997
1.39997
1.39997
1.39997
1.39997
1.39997
1.39997
1.39997
1.40588
1.88979
3.83704
4.62391
4.57467
4.46349
4.3495
4.23507
4.11485
1.39997
1.39997
1.39997
1.39997
1.39997
1.39997
1.39997
1.39997
1.39997
1.39997
1.39997
1.39997
1.39997
1.39997
1.39997
1.39997
1.39997
1.39997
1.39997
1.39997
1.39997
1.39997
1.39997
1.39997
1.39997
1.39997
1.39997
1.39997
1.39997
1.39997
1.39997
1.39999
1.42115
2.1296
4.02728
4.56934
4.51273
4.40374
4.29355
4.1768
1.39997
1.39997
1.39997
1.39997
1.39997
1.39997
1.39997
1.39997
1.39997
1.39997
1.39997
1.39997
1.39997
1.39997
1.39997
1.39997
1.39997
1.39997
1.39997
1.39997
1.39997
1.39997
1.39997
1.39997
1.39997
1.39997
1.39997
1.39997
1.39997
1.39997
1.39997
1.39997
1.40011
1.44726
2.35048
4.13266
4.51929
4.45794
4.34876
4.23935
1.39997
1.39997
1.39997
1.39997
1.39997
1.39997
1.39997
1.39997
1.39997
1.39997
1.39997
1.39997
1.39997
1.39997
1.39997
1.39997
1.39997
1.39997
1.39997
1.39997
1.39997
1.39997
1.39997
1.39997
1.39997
1.39997
1.39997
1.39997
1.39997
1.39997
1.39997
1.39997
1.39997
1.40042
1.48265
2.53485
4.18549
4.4686
4.40142
4.29444
1.39997
1.39997
1.39997
1.39997
1.39997
1.39997
1.39997
1.39997
1.39997
1.39997
1.39997
1.39997
1.39997
1.39997
1.39997
1.39997
1.39997
1.39997
1.39997
1.39997
1.39997
1.39997
1.39997
1.39997
1.39997
1.39997
1.39997
1.39997
1.39997
1.39997
1.39997
1.39997
1.39997
1.39997
1.40104
1.52182
2.67688
4.1995
4.41196
4.34694
1.39997
1.39997
1.39997
1.39997
1.39997
1.39997
1.39997
1.39997
1.39997
1.39997
1.39997
1.39997
1.39997
1.39997
1.39997
1.39997
1.39997
1.39997
1.39997
1.39997
1.39997
1.39997
1.39997
1.39997
1.39997
1.39997
1.39997
1.39997
1.39997
1.39997
1.39997
1.39997
1.39997
1.39997
1.39997
1.40197
1.55979
2.77441
4.18169
4.3509
1.39997
1.39997
1.39997
1.39997
1.39997
1.39997
1.39997
1.39997
1.39997
1.39997
1.39997
1.39997
1.39997
1.39997
1.39997
1.39997
1.39997
1.39997
1.39997
1.39997
1.39997
1.39997
1.39997
1.39997
1.39997
1.39997
1.39997
1.39997
1.39997
1.39997
1.39997
1.39997
1.39997
1.39997
1.39997
1.39997
1.40312
1.5918
2.83287
4.14262
1.39997
1.39997
1.39997
1.39997
1.39997
1.39997
1.39997
1.39997
1.39997
1.39997
1.39997
1.39997
1.39997
1.39997
1.39997
1.39997
1.39997
1.39997
1.39997
1.39997
1.39997
1.39997
1.39997
1.39997
1.39997
1.39997
1.39997
1.39997
1.39997
1.39997
1.39997
1.39997
1.39997
1.39997
1.39997
1.39997
1.39998
1.4046
1.61002
2.96193
1.39997
1.39997
1.39997
1.39997
1.39997
1.39997
1.39997
1.39997
1.39997
1.39997
1.39997
1.39997
1.39997
1.39997
1.39997
1.39997
1.39997
1.39997
1.39997
1.39997
1.39997
1.39997
1.39997
1.39997
1.39997
1.39997
1.39997
1.39997
1.39997
1.39997
1.39997
1.39997
1.39997
1.39997
1.39997
1.39997
1.39997
1.39999
1.40462
1.69255
1.39997
1.39997
1.39997
1.39997
1.39997
1.39997
1.39997
1.39997
1.39997
1.39997
1.39997
1.39997
1.39997
1.39997
1.39997
1.39997
1.39997
1.39997
1.39997
1.39997
1.39997
1.39997
1.39997
1.39997
1.39997
1.39997
1.39997
1.39997
1.39997
1.39997
1.39997
1.39997
1.39997
1.39997
1.39997
1.39997
1.39997
1.39997
1.39999
1.40874
1.39997
1.39997
1.39997
1.39997
1.39997
1.39997
1.39997
1.39997
1.39997
1.39997
1.39997
1.39997
1.39997
1.39997
1.39997
1.39997
1.39997
1.39997
1.39997
1.39997
1.39997
1.39997
1.39997
1.39997
1.39997
1.39997
1.39997
1.39997
1.39997
1.39997
1.39997
1.39997
1.39997
1.39997
1.39997
1.39997
1.39997
1.39997
1.39997
1.39998
1.39997
1.39997
1.39997
1.39997
1.39997
1.39997
1.39997
1.39997
1.39997
1.39997
1.39997
1.39997
1.39997
1.39997
1.39997
1.39997
1.39997
1.39997
1.39997
1.39997
1.39997
1.39997
1.39997
1.39997
1.39997
1.39997
1.39997
1.39997
1.39997
1.39997
1.39997
1.39997
1.39997
1.39997
1.39997
1.39997
1.39997
1.39997
1.39997
1.39997
1.39997
1.39997
1.39997
1.39997
1.39997
1.39997
1.39997
1.39997
1.39997
1.39997
1.39997
1.39997
1.39997
1.39997
1.39997
1.39997
1.39997
1.39997
1.39997
1.39997
1.39997
1.39997
1.39997
1.39997
1.39997
1.39997
1.39997
1.39997
1.39997
1.39997
1.39997
1.39997
1.39997
1.39997
1.39997
1.39997
1.39997
1.39997
1.39997
1.39997
1.39997
1.39997
1.39997
1.39997
1.39997
1.39997
1.39997
1.39997
1.39997
1.39997
1.39997
1.39997
1.39997
1.39997
1.39997
1.39997
1.39997
1.39997
1.39997
1.39997
1.39997
1.39997
1.39997
1.39997
1.39997
1.39997
1.39997
1.39997
1.39997
1.39997
1.39997
1.39997
1.39997
1.39997
1.39997
1.39997
1.39997
1.39997
1.39997
1.39997
1.39997
1.39997
1.39997
1.39997
1.39997
1.39997
1.39997
1.39997
1.39997
1.39997
1.39997
1.39997
1.39997
1.39997
1.39997
1.39997
1.39997
1.39997
1.39997
1.39997
1.39997
1.39997
1.39997
1.39997
1.39997
1.39997
1.39997
1.39997
1.39997
1.39997
1.39997
1.39997
1.39997
1.39997
1.39997
1.39997
1.39997
1.39997
1.39997
1.39997
1.39997
1.39997
1.39997
1.39997
1.39997
1.39997
1.39997
1.39997
1.39997
1.39997
1.39997
1.39997
1.39997
1.39997
1.39997
1.39997
1.39997
1.39997
1.39997
1.39997
1.39997
1.39997
1.39997
1.39997
1.39997
1.39997
1.39997
1.39997
1.39997
1.39997
1.39997
1.39997
1.39997
1.39997
1.39997
1.39997
1.39997
1.39997
1.39997
1.39997
1.39997
1.39997
1.39997
1.39997
1.39997
1.39997
1.39997
1.39997
1.39997
1.39997
1.39997
1.39997
1.39997
1.39997
1.39997
1.39997
1.39997
1.39997
1.39997
1.39997
1.39997
1.39997
1.39997
1.39997
1.39997
1.39997
1.39997
1.39997
1.39997
1.39997
1.39997
1.39997
1.39997
1.39997
1.39997
1.39997
1.39997
1.39997
1.39997
1.39997
1.39997
1.39997
1.39997
1.39997
1.39997
1.39997
1.39997
1.39997
1.39997
1.39997
1.39997
1.39997
1.39997
1.39997
1.39997
1.39997
1.39997
1.39997
1.39997
1.39997
1.39997
1.39997
1.39997
1.39997
1.39997
1.39997
1.39997
1.39997
1.39997
1.39997
1.39997
1.39997
1.39997
1.39997
1.39997
1.39997
1.39997
1.39997
1.39997
1.39997
1.39997
1.39997
1.39997
1.39997
1.39997
1.39997
1.39997
1.39997
1.39997
1.39997
1.39997
1.39997
1.39997
1.39997
1.39997
1.39997
1.39997
1.39997
1.39997
1.39997
1.39997
1.39997
1.39997
1.39997
1.39997
1.39997
1.39997
1.39997
1.39997
1.39997
1.39997
1.39997
1.39997
1.39997
1.39997
1.39997
1.39997
1.39997
1.39997
1.39997
1.39997
1.39997
1.39997
1.39997
1.39997
1.39997
1.39997
1.39997
1.39997
1.39997
1.39997
1.39997
1.39997
1.39997
1.39997
1.39997
1.39997
1.39997
1.39997
1.39997
1.39997
1.39997
1.39997
1.39997
1.39997
1.39997
1.39997
1.39997
1.39997
1.39997
1.39997
1.39997
1.39997
1.39997
1.39997
1.39997
1.39997
1.39997
1.39997
1.39997
1.39997
1.39997
1.39997
1.39997
1.39997
1.39997
1.39997
1.39997
1.39997
1.39997
1.39997
1.39997
1.39997
1.39997
1.39997
1.39997
1.39997
1.39997
1.39997
1.39997
1.39997
1.39997
1.39997
1.39997
1.39997
1.39997
1.39997
1.39997
1.39997
1.39997
1.39997
1.39997
1.39997
1.39997
1.39997
1.39997
1.39997
1.39997
1.39997
1.39997
0.724654
0.507905
0.565791
0.650138
0.771382
0.882234
0.928042
0.926609
0.914573
0.915474
0.933001
0.955042
0.972143
0.98684
0.995543
0.993115
1.02075
1.58355
2.60817
2.91975
2.86893
2.79093
2.70766
2.60542
2.50544
2.42802
2.36686
2.30461
2.23425
2.15869
2.08258
2.01336
1.9484
1.88227
1.81542
1.75314
1.69795
1.64685
1.60474
1.53256
1.53649
0.757632
0.614314
0.659591
0.753852
0.854889
0.94
0.965496
0.964161
0.953785
0.952601
0.956298
0.972143
0.996065
1.00747
1.01409
1.09334
1.62709
2.46481
2.89759
2.90328
2.83484
2.74923
2.64159
2.53215
2.44922
2.3846
2.32137
2.2522
2.1781
2.09807
2.01946
1.94931
1.88548
1.82456
1.7671
1.71307
1.66099
1.61559
1.53749
1.99952
1.06544
0.696445
0.715961
0.792904
0.879045
0.988211
1.03229
1.03373
1.03156
1.02312
1.02167
1.02582
1.03431
1.04366
1.06136
1.26228
1.70552
2.31912
3.00709
3.08461
2.96075
2.84792
2.7353
2.62022
2.51865
2.44204
2.36986
2.29763
2.22429
2.14574
2.06127
1.97683
1.90095
1.83725
1.78396
1.73489
1.68739
1.6447
1.56083
2.37571
1.41377
0.955093
0.797476
0.808117
0.87697
0.999193
1.09867
1.10881
1.09809
1.07933
1.07964
1.08767
1.09677
1.10288
1.13802
1.53382
1.8745
2.10486
2.80018
3.16556
3.08223
2.95391
2.83857
2.72194
2.60637
2.51887
2.44184
2.36685
2.2899
2.20767
2.12167
2.0364
1.95817
1.89168
1.83428
1.78031
1.72589
1.67757
1.592
2.62277
1.68848
1.18934
0.930666
0.847385
0.88499
0.97366
1.08045
1.1307
1.14377
1.12536
1.12392
1.13362
1.1425
1.15546
1.26188
1.82047
2.06673
2.04999
2.39989
3.04204
3.15508
3.04856
2.92383
2.79821
2.68022
2.58449
2.50349
2.42778
2.35131
2.26762
2.17617
2.08646
2.01036
1.94942
1.89642
1.84392
1.78514
1.72403
1.62578
2.77683
1.91981
1.39067
1.12411
0.925888
0.929873
0.947345
1.02897
1.11042
1.14353
1.14175
1.15509
1.16334
1.16756
1.18552
1.45431
2.02079
2.15141
2.08834
2.11321
2.65259
3.08205
3.06614
2.96905
2.83108
2.71571
2.62281
2.54081
2.46438
2.38962
2.31
2.22237
2.13342
2.05527
1.99234
1.93955
1.88751
1.82779
1.76499
1.66471
2.90036
2.11598
1.61776
1.27564
1.02529
0.985369
0.962771
0.981895
1.05226
1.11458
1.14163
1.17337
1.1859
1.18697
1.23431
1.72844
2.11366
2.16104
2.1144
2.06064
2.2426
2.81216
3.03413
2.96659
2.83625
2.72517
2.6365
2.55657
2.47919
2.40395
2.3292
2.25045
2.1675
2.08759
2.01764
1.95903
1.9054
1.84696
1.7887
1.69442
3.00882
2.29209
1.80989
1.4396
1.18821
1.06044
0.97694
0.986309
1.00502
1.05807
1.12404
1.17318
1.18343
1.19393
1.36424
1.99447
2.16015
2.1519
2.1121
2.04675
2.04355
2.40497
2.89726
2.92185
2.83396
2.73387
2.64496
2.56416
2.48453
2.40704
2.33567
2.26634
2.19097
2.10984
2.03063
1.96307
1.90868
1.8555
1.80631
1.71943
3.11765
2.44552
1.96758
1.59135
1.33661
1.14833
1.01409
0.998658
0.990508
1.01448
1.08958
1.15803
1.16889
1.20335
1.58313
2.16693
2.18146
2.14712
2.10075
2.04103
1.98925
2.074
2.55414
2.84213
2.83486
2.74392
2.65139
2.56979
2.48906
2.40928
2.33719
2.27248
2.20492
2.12939
2.04698
1.96964
1.90703
1.85546
1.81703
1.74072
3.2149
2.57863
2.1114
1.71768
1.46681
1.26278
1.11152
1.02804
0.985457
0.996743
1.04712
1.11325
1.15036
1.27139
1.83406
2.20928
2.18143
2.1306
2.07943
2.04176
1.98697
1.94815
2.13888
2.62399
2.80335
2.74458
2.6547
2.57333
2.49376
2.41284
2.33688
2.26902
2.2064
2.13948
2.06419
1.98516
1.91508
1.86171
1.82825
1.75528
3.30134
2.69751
2.23312
1.83426
1.59072
1.35982
1.20685
1.08322
0.995802
1.01096
1.0243
1.05931
1.12656
1.40892
2.04772
2.18737
2.15256
2.10748
2.07151
2.04195
1.98891
1.92527
1.92212
2.23197
2.64962
2.73799
2.67413
2.59457
2.51247
2.4265
2.34479
2.271
2.20168
2.13626
2.07134
2.00248
1.93589
1.879
1.83639
1.76006
3.36656
2.80144
2.33629
1.95631
1.69829
1.45265
1.30196
1.16405
1.04866
1.04456
1.02508
1.02912
1.08242
1.58058
2.11975
2.16866
2.12077
2.09472
2.06946
2.04573
2.00007
1.93179
1.87968
1.94432
2.35421
2.68254
2.69662
2.62482
2.54649
2.45803
2.36812
2.28662
2.20991
2.13784
2.07149
2.01193
1.95669
1.89848
1.84597