/*--------------------------------*- C++ -*----------------------------------*\
  =========                 |
  \\      /  F ield         | OpenFOAM: The Open Source CFD Toolbox
   \\    /   O peration     | Website:  https://openfoam.org
    \\  /    A nd           | Version:  6.0
     \\/     M anipulation  |
\*---------------------------------------------------------------------------*/
FoamFile
{
    version     2.0;
    format      ascii;
    class       volScalarField;
    location    "2.0002372";
    object      T;
}
// * * * * * * * * * * * * * * * * * * * * * * * * * * * * * * * * * * * * * //

dimensions      [0 0 0 1 0 0 0];

internalField   nonuniform List<scalar> 
4800
(
1
1
1
1
1
1
1
1
1
1
1
1
1
1
1
1
1
1
1
1
1.04996
2.32707
2.70794
2.73459
2.74944
2.75028
2.71895
2.67711
2.68563
2.74592
2.82477
2.87042
2.86417
2.79016
2.70513
2.70274
2.76346
2.80896
2.75506
2.689
1
1
1
1
1
1
1
1
1
1
1
1
1
1
1
1
1
1
1
1
1.05148
2.31853
2.70267
2.71681
2.73862
2.74444
2.74309
2.73442
2.74793
2.7763
2.78881
2.77813
2.76673
2.77422
2.79869
2.81094
2.82005
2.81573
2.81337
2.81106
1
1
1
1
1
1
1
1
1
1
1
1
1
1
1
1
1
1
1
1
1.04102
2.31566
2.70396
2.70137
2.71453
2.73839
2.76139
2.80271
2.80309
2.79042
2.7542
2.71139
2.68868
2.74317
2.84066
2.87748
2.85827
2.82966
2.8591
2.91654
1
1
1
1
1
1
1
1
1
1
1
1
1
1
1
1
1
1
1
1
1.0253
2.30994
2.70758
2.69929
2.69293
2.72289
2.7911
2.83168
2.8443
2.79461
2.71747
2.6874
2.71662
2.78235
2.83882
2.87086
2.84671
2.81258
2.85339
2.91252
1
1
1
1
1
1
1
1
1
1
1
1
1
1
1
1
1
1
1
1
1.01409
2.30579
2.70889
2.7041
2.7058
2.7275
2.77404
2.81647
2.80639
2.73698
2.71689
2.73342
2.79628
2.83738
2.82499
2.795
2.77346
2.7762
2.79452
2.81196
1
1
1
1
1
1
1
1
1
1
1
1
1
1
1
1
1
1
1
1
1.00512
2.30048
2.70789
2.71873
2.73507
2.73851
2.74579
2.7555
2.73835
2.72386
2.72133
2.78705
2.84827
2.86865
2.84326
2.76487
2.72491
2.71458
2.72023
2.71158
1
1
1
1
1
1
1
1
1
1
1
1
1
1
1
1
1
1
1
1
1.00034
2.2924
2.70366
2.73314
2.75187
2.75422
2.7256
2.6919
2.69002
2.72833
2.78076
2.8189
2.84492
2.82906
2.73235
2.7317
2.7511
2.7457
2.72321
2.67994
1
1
1
1
1
1
1
1
1
1
1
1
1
1
1
1
1
1
1
1
1.00001
2.27808
2.70123
2.73361
2.75125
2.75801
2.72708
2.67552
2.69052
2.77976
2.85288
2.83806
2.79633
2.71424
2.71651
2.76128
2.80741
2.82824
2.79941
2.76048
1
1
1
1
1
1
1
1
1
1
1
1
1
1
1
1
1
1
1
1
1
2.26386
2.70266
2.7181
2.74191
2.74479
2.73146
2.71778
2.74442
2.81018
2.86364
2.86984
2.75391
2.66619
2.66066
2.7453
2.83153
2.90262
2.85287
2.85084
1
1
1
1
1
1
1
1
1
1
1
1
1
1
1
1
1
1
1
1
1
2.25198
2.70909
2.71016
2.71077
2.7205
2.74093
2.7855
2.80307
2.79019
2.79181
2.74273
2.73538
2.74271
2.75947
2.78848
2.83081
2.81517
2.85165
2.8781
1
1
1
1
1
1
1
1
1
1
1
1
1
1
1
1
1
1
1
1
1
2.23683
2.71298
2.7074
2.69268
2.69252
2.75522
2.81338
2.8367
2.79722
2.67861
2.65432
2.73739
2.84961
2.89413
2.86046
2.8055
2.72386
2.75831
2.82247
1
1
1
1
1
1
1
1
1
1
1
1
1
1
1
1
1
1
1
1
1
2.2182
2.70827
2.70408
2.70003
2.71872
2.75287
2.7907
2.80764
2.7585
2.68736
2.66057
2.72452
2.87025
2.96009
2.94961
2.77802
2.67148
2.69619
2.74808
1
1
1
1
1
1
1
1
1
1
1
1
1
1
1
1
1
1
1
1
1
2.19321
2.69551
2.70984
2.73671
2.74975
2.74795
2.75036
2.73842
2.72546
2.74008
2.73263
2.78571
2.82557
2.85429
2.78729
2.75666
2.72842
2.70896
2.69331
1
1
1
1
1
1
1
1
1
1
1
1
1
1
1
1
1
1
1
1
1
2.16541
2.68061
2.72671
2.75568
2.7724
2.75851
2.71923
2.67585
2.68709
2.74667
2.83889
2.83012
2.77059
2.64708
2.66614
2.76641
2.80057
2.75237
2.67745
1
1
1
1
1
1
1
1
1
1
1
1
1
1
1
1
1
1
1
1
1
2.149
2.68766
2.72207
2.74857
2.76595
2.76836
2.71361
2.66129
2.66995
2.77171
2.86687
2.87421
2.71929
2.56417
2.59724
2.73986
2.82961
2.75939
2.66579
1
1
1
1
1
1
1
1
1
1
1
1
1
1
1
1
1
1
1
1
1
2.13013
2.69645
2.71844
2.72988
2.74415
2.73279
2.72161
2.71328
2.75525
2.80649
2.82496
2.80503
2.69552
2.6288
2.62343
2.71549
2.8214
2.79517
2.75178
1
1
1
1
1
1
1
1
1
1
1
1
1
1
1
1
1
1
1
1
1
2.10671
2.70125
2.71536
2.71305
2.70419
2.70098
2.72736
2.8011
2.83027
2.81016
2.76344
2.69817
2.73386
2.77763
2.78754
2.79033
2.76378
2.79513
2.86205
1
1
1
1
1
1
1
1
1
1
1
1
1
1
1
1
1
1
1
1
1
2.0752
2.69581
2.70969
2.69502
2.67584
2.68634
2.75393
2.82854
2.86007
2.82401
2.66753
2.65909
2.76521
2.91091
2.93213
2.84838
2.70678
2.774
2.87737
1
1
1
1
1
1
1
1
1
1
1
1
1
1
1
1
1
1
1
1
1
2.02898
2.68138
2.69611
2.69296
2.69647
2.73546
2.77503
2.79513
2.81515
2.73544
2.69553
2.67882
2.78789
2.89912
2.93695
2.85408
2.71395
2.72282
2.79435
1
1
1
1
1
1
1
1
1
1
1
1
1
1
1
1
1
1
1
1
1
1.97893
2.65813
2.68711
2.70916
2.75076
2.764
2.76266
2.75547
2.67915
2.68298
2.72405
2.76725
2.80524
2.83845
2.83065
2.75699
2.75735
2.71408
2.66253
1
1
1
1
1
1
1
1
1
1
1
1
1
1
1
1
1
1
1
1
1
1.93002
2.63631
2.69204
2.74185
2.76308
2.77507
2.76789
2.68812
2.62577
2.65335
2.74612
2.84531
2.82974
2.73737
2.62262
2.69117
2.75124
2.73073
2.66202
1
1
1
1
1
1
1
1
1
1
1
1
1
1
1
1
1
1
1
1
1
1.89956
2.63502
2.71057
2.73527
2.7548
2.76399
2.7171
2.66533
2.65196
2.67099
2.78382
2.84426
2.82181
2.64179
2.60689
2.66803
2.72233
2.70826
2.6644
1
1
1
1
1
1
1
1
1
1
1
1
1
1
1
1
1
1
1
1
1
1.87291
2.64662
2.71675
2.72389
2.72935
2.70605
2.69102
2.68243
2.70546
2.79446
2.80758
2.8044
2.71452
2.63939
2.6382
2.69243
2.70454
2.67946
2.6336
1
1
1
1
1
1
1
1
1
1
1
1
1
1
1
1
1
1
1
1
1
1.82466
2.6431
2.71197
2.71395
2.69514
2.67215
2.66001
2.69819
2.80389
2.84499
2.8386
2.75549
2.64789
2.61106
2.65364
2.72377
2.77538
2.672
2.59369
1
1
1
1
1
1
1
1
1
1
1
1
1
1
1
1
1
1
1
1
1
1.76453
2.61795
2.70849
2.68782
2.67539
2.66927
2.69357
2.78123
2.81318
2.82197
2.77978
2.66321
2.65945
2.70072
2.77703
2.80887
2.78865
2.76522
2.75323
1
1
1
1
1
1
1
1
1
1
1
1
1
1
1
1
1
1
1
1
1
1.69828
2.58763
2.67497
2.67461
2.67984
2.71641
2.76929
2.78552
2.78285
2.76041
2.64124
2.66268
2.70698
2.8465
2.86107
2.82941
2.75842
2.82238
2.90159
1
1
1
1
1
1
1
1
1
1
1
1
1
1
1
1
1
1
1
1
1
1.6159
2.55068
2.65061
2.66333
2.71197
2.75936
2.78231
2.79171
2.77474
2.63797
2.5972
2.6273
2.78507
2.88574
2.87569
2.81641
2.7209
2.80218
2.90083
1
1
1
1
1
1
1
1
1
1
1
1
1
1
1
1
1
1
1
1
1
1.53359
2.51736
2.64722
2.69572
2.73423
2.75142
2.76518
2.75161
2.63925
2.63772
2.63547
2.71101
2.81841
2.85866
2.83833
2.7284
2.70037
2.68619
2.66635
1
1
1
1
1
1
1
1
1
1
1
1
1
1
1
1
1
1
1
1
1
1.46661
2.49093
2.68456
2.71795
2.72914
2.728
2.7139
2.64555
2.63113
2.65859
2.7581
2.82374
2.79635
2.74031
2.5982
2.62838
2.6569
2.60294
2.55042
1
1
1
1
1
1
1
1
1
1
1
1
1
1
1
1
1
1
1
1
1
1.414
2.48149
2.70424
2.71519
2.71944
2.71092
2.64914
2.60793
2.61194
2.70344
2.82641
2.83893
2.79168
2.58326
2.54972
2.59732
2.63726
2.58627
2.53979
1
1
1
1
1
1
1
1
1
1
1
1
1
1
1
1
1
1
1
1
1
1.30058
2.44869
2.69869
2.69982
2.70658
2.6556
2.63057
2.62563
2.69909
2.79141
2.80244
2.80841
2.66805
2.53994
2.53002
2.57318
2.60627
2.59888
2.52678
1
1
1
1
1
1
1
1
1
1
1
1
1
1
1
1
1
1
1
1
1
1.1566
2.38242
2.67595
2.673
2.64559
2.63531
2.64467
2.72548
2.78821
2.78742
2.78142
2.68246
2.60267
2.57147
2.55008
2.64188
2.69781
2.60378
2.50117
1
1
1
1
1
1
1
1
1
1
1
1
1
1
1
1
1
1
1
1
1
1.05963
2.34444
2.65023
2.61915
2.60234
2.62146
2.70113
2.77788
2.79424
2.79054
2.69608
2.58473
2.60024
2.63331
2.7872
2.81769
2.78258
2.57673
2.48137
1
1
1
1
1
1
1
1
1
1
1
1
1
1
1
1
1
1
1
1
1
1.01894
2.30725
2.61298
2.587
2.59319
2.67184
2.74511
2.75857
2.77121
2.71497
2.59355
2.58542
2.61846
2.81497
2.85081
2.81959
2.75992
2.75124
2.74157
1
1
1
1
1
1
1
1
1
1
1
1
1
1
1
1
1
1
1
1
1
1.00448
2.27781
2.60396
2.59424
2.6673
2.71514
2.72521
2.73123
2.67633
2.59783
2.58296
2.58909
2.76783
2.81812
2.81121
2.79462
2.7099
2.79332
2.91859
1
1
1
1
1
1
1
1
1
1
1
1
1
1
1
1
1
1
1
1
1
1.00065
2.26236
2.61472
2.67293
2.69551
2.70732
2.70682
2.65712
2.5692
2.58726
2.61412
2.77028
2.79734
2.79886
2.75035
2.57078
2.58289
2.75589
2.88455
1
1
1
1
1
1
1
1
1
1
1
1
1
1
1
1
1
1
1
1
1
1.00001
2.23413
2.67951
2.6887
2.69537
2.69265
2.67114
2.57557
2.5572
2.58256
2.75566
2.80265
2.79349
2.72668
2.51512
2.5141
2.5301
2.52909
2.57596
1
1
1
1
1
1
1
1
1
1
1
1
1
1
1
1
1
1
1
1
1
0.99999
2.18837
2.69606
2.70207
2.69409
2.66648
2.58632
2.56596
2.57165
2.72256
2.77857
2.76916
2.73753
2.53752
2.50202
2.50135
2.51073
2.4519
2.42811
1
1
1
1
1
1
1
1
1
1
1
1
1
1
1
1
1
1
1
1
1
0.999992
2.12167
2.69426
2.69724
2.65338
2.5993
2.57641
2.57063
2.71321
2.76433
2.77686
2.7586
2.59847
2.48608
2.47149
2.48003
2.48101
2.48229
2.36605
1
1
1
1
1
1
1
1
1
1
1
1
1
1
1
1
1
1
1
1
1
0.999999
2.0255
2.65295
2.64096
2.62541
2.60153
2.59987
2.6988
2.7398
2.74579
2.73492
2.63591
2.5237
2.50632
2.54061
2.58965
2.63087
2.52541
2.30066
1
1
1
1
1
1
1
1
1
1
1
1
1
1
1
1
1
1
1
1
1
1
1.79167
2.57924
2.64514
2.65906
2.67655
2.69311
2.69832
2.68397
2.65912
2.62681
2.63147
2.68447
2.71936
2.73158
2.72828
2.66219
2.53285
2.38005
1
1
1
1
1
1
1
1
1
1
1
1
1
1
1
1
1
1
1
1
1
1
1.32207
2.40733
2.63802
2.65424
2.66359
2.66465
2.65516
2.64661
2.6429
2.65573
2.67752
2.68883
2.68804
2.65685
2.59806
2.54297
2.48387
2.43078
1
1
1
1
1
1
1
1
1
1
1
1
1
1
1
1
1
1
1
1
1
1
1.01938
2.20855
2.59848
2.61504
2.62421
2.63214
2.63796
2.64222
2.64518
2.64446
2.63959
2.63
2.61403
2.5923
2.56288
2.51693
2.41028
2.33165
1
1
1
1
1
1
1
1
1
1
1
1
1
1
1
1
1
1
1
1
1
1
1.00003
1.81557
2.52799
2.58679
2.60095
2.61449
2.62247
2.62366
2.62072
2.61352
2.60446
2.59557
2.58401
2.56754
2.53777
2.48516
2.38542
2.29669
1
1
1
1
1
1
1
1
1
1
1
1
1
1
1
1
1
1
1
1
1
1
0.999999
1.24805
2.37148
2.58013
2.58031
2.58292
2.58693
2.58869
2.58924
2.58694
2.58207
2.57176
2.55336
2.52911
2.49696
2.4545
2.37621
2.30395
1
1
1
1
1
1
1
1
1
1
1
1
1
1
1
1
1
1
1
1
1
1
1
1.00906
2.12765
2.55249
2.54864
2.54909
2.55259
2.55759
2.56202
2.56137
2.55488
2.54175
2.52162
2.49414
2.46254
2.42341
2.36112
2.29994
1
1
1
1
1
1
1
1
1
1
1
1
1
1
1
1
1
1
1
1
1
1
1
1.00001
1.55296
2.42922
2.52753
2.52495
2.52762
2.53067
2.53087
2.52861
2.52301
2.51339
2.49791
2.47214
2.43751
2.39453
2.34064
2.28321
1
1
1
1
1
1
1
1
1
1
1
1
1
1
1
1
1
1
1
1
1
1
1
0.999999
1.05212
2.18236
2.51398
2.51072
2.50728
2.50392
2.4994
2.49632
2.4934
2.48634
2.47305
2.45018
2.4177
2.37668
2.33092
2.28272
1
1
1
1
1
1
1
1
1
1
1
1
1
1
1
1
1
1
1
1
1
1
1
1
1.0003
1.57967
2.38527
2.48735
2.48266
2.4795
2.47251
2.46968
2.46604
2.45771
2.44336
2.42403
2.39772
2.36484
2.32687
2.28171
1
1
1
1
1
1
1
1
1
1
1
1
1
1
1
1
1
1
1
1
1
1
1
1
1
1.05826
2.13093
2.47254
2.46941
2.45839
2.44966
2.44451
2.43877
2.42845
2.41368
2.39691
2.37666
2.35076
2.31889
2.27786
1
1
1
1
1
1
1
1
1
1
1
1
1
1
1
1
1
1
1
1
1
1
1
1
1
1.0004
1.44966
2.31022
2.44433
2.43231
2.42798
2.42163
2.41402
2.40219
2.38689
2.37117
2.35321
2.33127
2.30276
2.26698
1
1
1
1
1
1
1
1
1
1
1
1
1
1
1
1
1
1
1
1
1
1
1
1
1
1
1.03081
1.99815
2.40147
2.41895
2.40841
2.39914
2.3892
2.37744
2.36418
2.34898
2.33116
2.30924
2.28171
2.25181
1
1
1
1
1
1
1
1
1
1
1
1
1
1
1
1
1
1
1
1
1
1
1
1
1
1
1.00013
1.26674
2.19754
2.39876
2.38542
2.37798
2.36791
2.35793
2.34697
2.33212
2.31328
2.29054
2.26326
2.23781
1
1
1
1
1
1
1
1
1
1
1
1
1
1
1
1
1
1
1
1
1
1
1
1
1
1
1
1.00903
1.6765
2.29219
2.36488
2.35318
2.34443
2.33609
2.32626
2.31222
2.29515
2.2745
2.2501
2.22807
1
1
1
1
1
1
1
1
1
1
1
1
1
1
1
1
1
1
1
1
1
1
1
1
1
1
1
1.00003
1.09199
1.999
2.33769
2.33375
2.32372
2.3155
2.30603
2.29351
2.27947
2.2622
2.2414
2.22198
1
1
1
1
1
1
1
1
1
1
1
1
1
1
1
1
1
1
1
1
1
1
1
1
1
1
1
1
1.0011
1.31045
2.12478
2.31261
2.30205
2.29315
2.28334
2.27303
2.26227
2.24837
2.23146
2.21524
1
1
1
1
1
1
1
1
1
1
1
1
1
1
1
1
1
1
1
1
1
1
1
1
1
1
1
1
1
1.01316
1.53419
2.17964
2.28411
2.27074
2.26169
2.25259
2.24359
2.23199
2.21889
2.20612
1
1
1
1
1
1
1
1
1
1
1
1
1
1
1
1
1
1
1
1
1
1
1
1
1
1
1
1
1
1.00006
1.05236
1.74946
2.20425
2.26003
2.24333
2.23311
2.22271
2.21166
2.201
2.19066
1
1
1
1
1
1
1
1
1
1
1
1
1
1
1
1
1
1
1
1
1
1
1
1
1
1
1
1
1
1
1.00049
1.14081
1.90231
2.21467
2.22846
2.21576
2.20397
2.1921
2.18168
2.17138
1
1
1
1
1
1
1
1
1
1
1
1
1
1
1
1
1
1
1
1
1
1
1
1
1
1
1
1
1
1
1
1.00268
1.26964
1.97111
2.20047
2.19708
2.18511
2.17426
2.16386
2.1528
1
1
1
1
1
1
1
1
1
1
1
1
1
1
1
1
1
1
1
1
1
1
1
1
1
1
1
1
1
1
1
1.00001
1.01014
1.37811
2.00757
2.17182
2.16691
2.15577
2.14621
2.13577
1
1
1
1
1
1
1
1
1
1
1
1
1
1
1
1
1
1
1
1
1
1
1
1
1
1
1
1
1
1
1
1
1.00005
1.02313
1.4668
2.0177
2.14473
2.13909
2.12788
2.11852
1
1
1
1
1
1
1
1
1
1
1
1
1
1
1
1
1
1
1
1
1
1
1
1
1
1
1
1
1
1
1
1
1
1.00016
1.04123
1.52994
2.01645
2.11947
2.11255
2.10133
1
1
1
1
1
1
1
1
1
1
1
1
1
1
1
1
1
1
1
1
1
1
1
1
1
1
1
1
1
1
1
1
1
1
1.0004
1.06144
1.57189
2.00801
2.09493
2.08779
1
1
1
1
1
1
1
1
1
1
1
1
1
1
1
1
1
1
1
1
1
1
1
1
1
1
1
1
1
1
1
1
1
1
1
1.00078
1.08078
1.59686
1.99328
2.07046
1
1
1
1
1
1
1
1
1
1
1
1
1
1
1
1
1
1
1
1
1
1
1
1
1
1
1
1
1
1
1
1
1
1
1
1
1.00126
1.09694
1.60324
1.98535
1
1
1
1
1
1
1
1
1
1
1
1
1
1
1
1
1
1
1
1
1
1
1
1
1
1
1
1
1
1
1
1
1
1
1
1
1
1.00184
1.1039
1.68817
1
1
1
1
1
1
1
1
1
1
1
1
1
1
1
1
1
1
1
1
1
1
1
1
1
1
1
1
1
1
1
1
1
1
1
1
1
1.00001
1.00192
1.15995
1
1
1
1
1
1
1
1
1
1
1
1
1
1
1
1
1
1
1
1
1
1
1
1
1
1
1
1
1
1
1
1
1
1
1
1
1
1
1.00001
1.00401
1
1
1
1
1
1
1
1
1
1
1
1
1
1
1
1
1
1
1
1
1
1
1
1
1
1
1
1
1
1
1
1
1
1
1
1
1
1
1
1.00001
1
1
1
1
1
1
1
1
1
1
1
1
1
1
1
1
1
1
1
1
1
1
1
1
1
1
1
1
1
1
1
1
1
1
1
1
1
1
1
1
1
1
1
1
1
1
1
1
1
1
1
1
1
1
1
1
1
1
1
1
1
1
1
1
1
1
1
1
1
1
1
1
1
1
1
1
1
1
1
1
1
1
1
1
1
1
1
1
1
1
1
1
1
1
1
1
1
1
1
1
1
1
1
1
1
1
1
1
1
1
1
1
1
1
1
1
1
1
1
1
1
1
1
1
1
1
1
1
1
1
1
1
1
1
1
1
1
1
1
1
1
1
1
1
1
1
1
1
1
1
1
1
1
1
1
1
1
1
1
1
1
1
1
1
1
1
1
1
1
1
1
1
1
1
1
1
1
1
1
1
1
1
1
1
1
1
1
1
1
1
1
1
1
1
1
1
1
1
1
1
1
1
1
1
1
1
1
1
1
1
1
1
1
1
1
1
1
1
1
1
1
1
1
1
1
1
1
1
1
1
1
1
1
1
1
1
1
1
1
1
1
1
1
1
1
1
1
1
1
1
1
1
1
1
1
1
1
1
1
1
1
1
1
1
1
1
1
1
1
1
1
1
1
1
1
1
1
1
1
1
1
1
1
1
1
1
1
1
1
1
1
1
1
1
1
1
1
1
1
1
1
1
1
1
1
1
1
1
1
1
1
1
1
1
1
1
1
1
1
1
1
1
1
1
1
1
1
1
1
1
1
1
1
1
1
1
1
1
1
1
1
1
1
1
1
1
1
1
1
1
1
1
1
1
1
1
1
1
1
1
1
1
1
1
1
1
1
1
1
1
1
1
1
1
1
1
1
1
1
1
1
1
1
1
1
1
1
1
1
1
1
1
1
1
1
1
1
1
1
1
1.62119
1.55147
1.59729
1.66101
1.76584
1.80771
1.79849
1.8012
1.82929
1.88195
1.89751
1.89001
1.86351
1.84247
1.83075
1.81549
1.83118
2.16997
2.62504
2.73542
2.6947
2.62869
2.57865
2.54014
2.50299
2.46303
2.4196
2.37674
2.34
2.30927
2.28048
2.25273
2.22525
2.19717
2.16914
2.14329
2.11993
2.09738
2.07792
2.04439
1.98022
1.65335
1.54175
1.57947
1.65217
1.69781
1.72121
1.75015
1.79663
1.84698
1.85543
1.84432
1.82193
1.81033
1.80381
1.79842
1.84335
2.11137
2.46005
2.62848
2.62263
2.58042
2.53961
2.50546
2.47122
2.43454
2.39446
2.3549
2.32162
2.29419
2.26626
2.23657
2.20804
2.18221
2.15855
2.1362
2.11407
2.09152
2.07101
2.03592
1.96363
1.67688
1.47645
1.48929
1.52371
1.55555
1.60613
1.64158
1.686
1.74156
1.76609
1.7635
1.74901
1.73398
1.73234
1.73749
1.84621
2.00276
2.20834
2.45421
2.52051
2.48187
2.44791
2.42139
2.39573
2.36421
2.33052
2.29624
2.26843
2.24701
2.22516
2.19824
2.1679
2.14042
2.1187
2.10067
2.08274
2.0641
2.04646
2.01179
2.0188
1.7275
1.52445
1.44944
1.41711
1.43796
1.49277
1.54483
1.58083
1.61701
1.63836
1.64516
1.6476
1.6444
1.64421
1.66225
1.87181
1.95187
1.9983
2.23181
2.38686
2.37859
2.34999
2.32406
2.30185
2.27477
2.24776
2.22067
2.19795
2.17958
2.16065
2.13784
2.11221
2.08823
2.06871
2.0518
2.03436
2.01479
1.99608
1.96414
2.07279
1.77393
1.56662
1.45456
1.38528
1.38767
1.41446
1.46415
1.50283
1.5444
1.55241
1.55948
1.56655
1.56837
1.57309
1.63065
1.90403
1.94858
1.9324
2.05315
2.26182
2.31955
2.29464
2.26286
2.23416
2.20703
2.18135
2.15704
2.13608
2.11811
2.09887
2.07529
2.04985
2.02868
2.01329
1.99981
1.9843
1.96387
1.94048
1.90583
2.10205
1.82799
1.62009
1.50322
1.41012
1.37304
1.37378
1.41126
1.45701
1.4926
1.50712
1.52178
1.52293
1.52349
1.53378
1.66951
1.92045
1.95471
1.92722
1.93488
2.12457
2.25935
2.26332
2.23796
2.19912
2.16898
2.14307
2.11833
2.09615
2.07649
2.05614
2.03233
2.00667
1.98437
1.96749
1.95311
1.93694
1.91571
1.89185
1.85725
2.12265
1.87964
1.69745
1.5551
1.43932
1.38812
1.36699
1.37828
1.41943
1.45772
1.48089
1.5038
1.50758
1.50578
1.5302
1.77577
1.92717
1.94412
1.92847
1.90814
1.97791
2.17312
2.23932
2.21947
2.18154
2.1498
2.12296
2.09771
2.07382
2.05177
2.03033
2.00734
1.98241
1.95796
1.93652
1.91816
1.89981
1.87796
1.85548
1.82234
2.13937
1.92608
1.76138
1.61734
1.50073
1.4214
1.36885
1.37641
1.39195
1.42448
1.46084
1.4907
1.49328
1.49573
1.57664
1.87463
1.93507
1.93283
1.92039
1.89793
1.89669
2.03314
2.19533
2.19472
2.17012
2.13981
2.11181
2.08595
2.0606
2.0364
2.01434
1.99295
1.96944
1.94352
1.91722
1.89383
1.87404
1.85334
1.83377
1.80259
2.1561
1.96582
1.81169
1.67214
1.5583
1.46253
1.38624
1.38373
1.3846
1.39905
1.44012
1.47722
1.47894
1.49292
1.68115
1.933
1.94063
1.92792
1.91154
1.88949
1.86668
1.89688
2.07252
2.16013
2.15831
2.12998
2.10115
2.07552
2.0498
2.0244
2.00164
1.98138
1.95974
1.93504
1.90745
1.88006
1.85648
1.83591
1.81982
1.79221
2.16801
1.99779
1.85533
1.71472
1.60849
1.51431
1.43842
1.39956
1.38118
1.38795
1.41557
1.44945
1.46584
1.52113
1.79845
1.94876
1.93813
1.91926
1.89871
1.88123
1.85541
1.83219
1.90124
2.07192
2.12719
2.11177
2.08576
2.06104
2.0361
2.01093
1.98757
1.96649
1.94668
1.92474
1.89969
1.87249
1.8465
1.82567
1.81212
1.7854
2.17273
2.02211
1.88859
1.752
1.65544
1.55596
1.48659
1.4284
1.38521
1.39343
1.39822
1.41432
1.44721
1.5855
1.8877
1.94035
1.92663
1.90693
1.88781
1.87017
1.84237
1.8104
1.79489
1.91158
2.04821
2.08513
2.0686
2.04567
2.02095
1.99567
1.97195
1.94972
1.92808
1.90721
1.88624
1.86322
1.83977
1.81921
1.80347
1.77597
2.17133
2.03935
1.91209
1.78854
1.69391
1.5946
1.53029
1.46639
1.41039
1.4054
1.39241
1.39093
1.41849
1.68061
1.91822
1.93123
1.91074
1.89448
1.8767
1.85768
1.82979
1.79462
1.76195
1.77947
1.92248
2.03231
2.0477
2.02716
2.00429
1.97968
1.95528
1.93228
1.90905
1.88664
1.86608
1.84752
1.82975
1.81011
1.79129
1.76066
2.16661
2.04895
1.92919
1.82055
1.72179
1.63217
1.56779
1.49726
1.44711
1.41653
1.38841
1.38221
1.45157
1.76731
1.88953
1.91223
1.89426
1.8816
1.86654
1.84369
1.81401
1.7803
1.74728
1.72083
1.77377
1.92572
2.0007
1.99975
1.98445
1.96137
1.93554
1.91071
1.88758
1.86598
1.84593
1.82776
1.81179
1.79462
1.77636
1.74329
2.15984
2.0537
1.94094
1.8442
1.74634
1.66323
1.59921
1.53239
1.48633
1.4329
1.38838
1.39022
1.5313
1.82243
1.85015
1.87849
1.87396
1.86528
1.84914
1.82425
1.79303
1.75873
1.73119
1.70449
1.68621
1.78024
1.91319
1.95959
1.95356
1.93478
1.90874
1.88231
1.86082
1.84301
1.82598
1.80838
1.79041
1.77243
1.75598
1.72452
2.15641
2.05745
1.95013
1.86171
1.76585
1.69336
1.62744
1.56466
1.51714
1.45019
1.40345
1.41337
1.65926
1.84634
1.84152
1.84072
1.84538
1.83789
1.82704
1.80027
1.76762
1.73292
1.70889
1.68478
1.65296
1.65829
1.77433
1.89583
1.91621
1.90386
1.87965
1.85169
1.83017
1.81582
1.80227
1.7876
1.77095
1.75127
1.73231
1.70136
2.15416
2.06165
1.95938
1.87619
1.78436
1.72201
1.65115
1.59255
1.54047
1.46961
1.4258
1.47403
1.77637
1.85493
1.83929
1.81471
1.80679
1.80125
1.79329
1.7687
1.73742
1.70398
1.68252
1.66501
1.63901
1.60738
1.63554
1.76576
1.8623
1.87431
1.85599
1.82852
1.80375
1.78794
1.7758
1.76357
1.75036
1.73239
1.71186
1.67978
2.15213
2.06572
1.97059
1.88881
1.80525
1.74722
1.67298
1.61632
1.5578
1.48838
1.44999
1.59561
1.86542
1.85943
1.83367
1.79787
1.76634
1.74926
1.73936
1.72653
1.70215
1.67639
1.65767
1.646
1.62466
1.59495
1.57355
1.6208
1.75068
1.82983
1.83351
1.81535
1.78744
1.7661
1.75129
1.73937
1.72812
1.71313
1.69446
1.6617
2.14629
2.06614
1.98221
1.90117
1.82763
1.76598
1.69173
1.63612
1.56862
1.51032
1.49413
1.75712
1.90642
1.87973
1.83313
1.78805
1.7494
1.71054
1.68596
1.67318
1.66155
1.6474
1.63669
1.62611
1.61091
1.58475
1.55253
1.54245
1.61013
1.73376
1.79905
1.79485
1.77609
1.75433
1.7361
1.72009
1.70698
1.69376
1.67713
1.6456
2.13541
2.06397
1.9915
1.91117
1.84626
1.77845
1.70794
1.65162
1.57603
1.53387
1.58758
1.88686
1.91982
1.88728
1.8354
1.78248
1.73443
1.69369
1.65925
1.63338
1.62257
1.61333
1.60902
1.60756
1.59517
1.57232
1.54032
1.5122
1.51618
1.60118
1.71949
1.76242
1.7587
1.7439
1.72537
1.70757
1.69113
1.67615
1.66175
1.63029
2.12077
2.05725
1.99272
1.91762
1.8593
1.78564
1.72243
1.66282
1.5882
1.55782
1.7404
1.97283
1.93725
1.88798
1.8346
1.77953
1.72812
1.68247
1.64655
1.61538
1.59172
1.57963
1.57634
1.57689
1.56831
1.55334
1.52588
1.49673
1.47874
1.49319
1.5948
1.70497
1.72833
1.72419
1.71458
1.69671
1.67751
1.65971
1.64112
1.61255
2.10518
2.04799
1.98979
1.92221
1.86658
1.79115
1.7348
1.66769
1.60643
1.6054
1.91162
2.00565
1.95695
1.89577
1.83868
1.78257
1.72845
1.67929
1.63863
1.60459
1.5731
1.54814
1.53521
1.53391
1.53233
1.52301
1.50361
1.48226
1.46689
1.45346
1.47855
1.59257
1.6846
1.69551
1.68907
1.68194
1.66587
1.64428
1.62487
1.5984
2.08952
2.03887
1.98412
1.92606
1.86852
1.79659
1.74366
1.66985
1.62715
1.71195
2.02164
2.00845
1.95926
1.89774
1.83786
1.78078
1.72589
1.67763
1.63586
1.59804
1.56247
1.53114
1.50154
1.48593
1.48298
1.48318
1.47628
1.46759
1.45502
1.44267
1.43252
1.46875
1.58444
1.66774
1.66727
1.65685
1.64499
1.62865
1.61156
1.58699
2.07386
2.03043
1.97921
1.929
1.86545
1.80262
1.74675
1.67407
1.649
1.88173
2.07531
2.0193
1.959
1.89854
1.83831
1.78102
1.72724
1.67917
1.63642
1.59511
1.55671
1.52073
1.48825
1.46125
1.44726
1.44732
1.44867
1.44705
1.44628
1.43534
1.41777
1.41133
1.45705
1.56967
1.64121
1.63438
1.62574
1.61056
1.59652
1.57608
2.05953
2.0227
1.97653
1.92912
1.85991
1.80934
1.74616
1.68828
1.70505
2.03414
2.08601
2.02949
1.95985
1.89624
1.83568
1.77795
1.72521
1.67893
1.63706
1.59603
1.55588
1.51762
1.48333
1.45341
1.43012
1.41769
1.4188
1.42345
1.42857
1.42499
1.41067
1.38662
1.38224
1.4352
1.55271
1.6026
1.60662
1.59693
1.58284
1.56262
2.04918
2.01411
1.97293
1.92291
1.85578
1.81085
1.74421
1.7028
1.84417
2.11654
2.08363
2.02649
1.95801
1.89262
1.83143
1.77422
1.72253
1.67697
1.63615
1.59716
1.55856
1.52066
1.48512
1.45185
1.42293
1.40041
1.38895
1.39097
1.4002
1.4027
1.39646
1.374
1.35237
1.35363
1.41417
1.52412
1.57695
1.58001
1.57083
1.55184
2.04098
2.00453
1.96239
1.90826
1.85304
1.80844
1.74594
1.72422
2.02806
2.15031
2.08665
2.02385
1.95865
1.89222
1.82968
1.77276
1.72181
1.67631
1.63412
1.59415
1.55641
1.52037
1.48604
1.45323
1.42137
1.39144
1.36712
1.355
1.35594
1.36312
1.36323
1.35379
1.33629
1.3234
1.33039
1.40007
1.49372
1.54229
1.55426
1.54169
2.02971
2.00073
1.94432
1.88487
1.84817
1.79983
1.75019
1.81055
2.14787
2.14813
2.0906
2.0219
1.95515
1.8892
1.82722
1.7713
1.72104
1.67516
1.63262
1.59289
1.55716
1.52419
1.49098
1.45662
1.42208
1.38722
1.35637
1.33385
1.32132
1.31789
1.32401
1.323
1.3153
1.30725
1.29684
1.30829
1.38089
1.4685
1.52022
1.51885
1.99873
1.98307
1.92487
1.86468
1.84227
1.78737
1.75855
1.97966
2.20527
2.14775
2.08391
2.01692
1.9516
1.88835
1.82892
1.77493
1.72499
1.67717
1.63293
1.5944
1.56085
1.52733
1.49335
1.45863
1.42286
1.38546
1.35029
1.32249
1.30224
1.28636
1.28433
1.28987
1.28764
1.28399
1.27626
1.26726
1.2814
1.35632
1.45015
1.47975
1.94916
1.96996
1.92491
1.87057
1.83544
1.77967
1.78844
2.1488
2.21922
2.14812
2.07914
2.01389
1.94907
1.88691
1.83026
1.77866
1.72948
1.68073
1.63407
1.59213
1.55498
1.52148
1.48854
1.45467
1.41969
1.38273
1.34597
1.31403
1.28859
1.27037
1.25533
1.2548
1.25481
1.25368
1.25097
1.24251
1.23265
1.24958
1.32811
1.42576
1.75066
1.97645
1.93711
1.88577
1.83046
1.78081
1.9057
2.24045
2.21263
2.14605
2.07635
2.00967
1.94465
1.88436
1.83129
1.78307
1.73596
1.68777
1.63887
1.5924
1.55128
1.51654
1.48563
1.45307
1.41657
1.37726
1.33821
1.30429
1.2771
1.25482
1.23808
1.22567
1.22071
1.21925
1.21824
1.21392
1.2057
1.1954
1.21286
1.33376
1.45567
1.95148
1.94995
1.90717
1.82968
1.78773
2.10548
2.2877
2.21061
2.14374
2.07413
2.00549
1.94085
1.8838
1.83338
1.78634
1.73958
1.69156
1.64247
1.59397
1.5492
1.50934
1.4736
1.43997
1.40601
1.36942
1.33142
1.29445
1.26332
1.23965
1.2218
1.20612
1.19247
1.18548
1.17948
1.18082
1.17839
1.16906
1.1613
1.22353
1.14691
1.83207
1.94978
1.90742
1.83337
1.85666
2.27607
2.30533
2.22311
2.14835
2.07465
2.00305
1.938
1.88135
1.83089
1.78358
1.73705
1.69024
1.64289
1.5947
1.54656
1.50167
1.46221
1.42667
1.39285
1.35938
1.32572
1.29072
1.25721
1.2283
1.20632
1.18853
1.17256
1.15879
1.15032
1.14584
1.14963
1.14729
1.13998
1.15097
1.02433
1.71706
1.92971
1.90039
1.84457
2.03857
2.37646
2.31678
2.2327
2.15057
2.07338
2.00113
1.93624
1.87822
1.82442
1.77363
1.72666
1.68244
1.63749
1.59063
1.54041
1.49033
1.44676
1.41088
1.37907
1.34743
1.31486
1.2813
1.2496
1.22187
1.19781
1.17678
1.15767
1.14147
1.129
1.12109
1.12387
1.12382
1.12147
1.11969
1.00032
1.55184
1.89083
1.88939
1.86544
2.27176
2.43248
2.32895
2.23803
2.15143
2.07026
1.99707
1.93195
1.8717
1.81388
1.75874
1.70766
1.66235
1.62013
1.57586
1.52752
1.47794
1.43245
1.39434
1.36266
1.33417
1.30528
1.27459
1.24347
1.21649
1.19331
1.17079
1.14969
1.13125
1.11635
1.10507
1.10222
1.1019
1.10149
1.10254
0.999985
1.30065
1.80693
1.87489
1.962
2.43603
2.43962
2.32939
2.23674
2.1473
2.06336
1.98886
1.92248
1.86023
1.79923
1.74042
1.68639
1.63925
1.59733
1.55528
1.5114
1.46694
1.42392
1.3847
1.35108
1.32289
1.29724
1.27085
1.24201
1.21461
1.19032
1.16713
1.14524
1.12584
1.11057
1.09819
1.08743
1.08316
1.08028
1.08567
0.999987
1.09714
1.69133
1.81427
2.1306
2.504
2.42858
2.31163
2.21629
2.12674
2.04481
1.97198
1.90541
1.84201
1.77961
1.71939
1.66484
1.61687
1.57531
1.53494
1.49477
1.45529
1.41609
1.37825
1.34363
1.31398
1.28799
1.26346
1.24282
1.22239
1.1987
1.17474
1.15207
1.13151
1.11449
1.09868
1.0803
1.06695
1.06074
1.06609
0.99999
1.01485
1.56167
1.72823
2.32738
2.49618
2.38495
2.26873
2.17408
2.09088
2.01562
1.94641
1.88108
1.81842
1.75838
1.70029
1.64685
1.59851
1.55626
1.51803
1.48139
1.44549
1.40913
1.37329
1.33955
1.30986
1.28401
1.26146
1.24056
1.21748
1.19281
1.16809
1.14532
1.12458
1.10668
1.08942
1.07423
1.05808
1.04584
1.04606
0.999993
1.00122
1.33794
1.72057
2.45937
2.46863
2.33683
2.2156
2.12379
2.05072
1.98508
1.92148
1.85922
1.79888
1.74151
1.68771
1.6361
1.58948
1.54597
1.50769
1.47292
1.43967
1.40598
1.37157
1.33743
1.30722
1.28125
1.25933
1.23806
1.21529
1.1908
1.16611
1.14339
1.12263
1.10412
1.08645
1.07148
1.05515
1.04271
1.02964
0.999996
1.00007
1.12841
1.76231
2.50182
2.44223
2.29398
2.17477
2.08865
2.0235
1.96458
1.90462
1.84481
1.78705
1.73162
1.68388
1.64279
1.59769
1.55193
1.51263
1.47931
1.44814
1.41578
1.38075
1.34459
1.31281
1.28722
1.26598
1.24505
1.22264
1.19768
1.17228
1.14894
1.1282
1.1089
1.09126
1.0746
1.05848
1.04303
1.0239
0.999999
1
1.03489
1.85286
2.59746
2.44757
2.28008
2.15744
2.07358
2.01126
1.95457
1.89593
1.83513
1.77844
1.73064
1.68577
1.63643
1.58801
1.54164
1.50192
1.46915
1.43933
1.40772
1.37256
1.33548
1.30276
1.27721
1.25665
1.2361
1.21416
1.18931
1.16427
1.14039
1.11998
1.09975
1.08313
1.06545
1.05073
1.03399
1.01638
)
;

boundaryField
{
    inlet
    {
        type            fixedValue;
        value           uniform 1;
    }
    outlet
    {
        type            inletOutlet;
        inletValue      uniform 1;
        value           nonuniform List<scalar> 
40
(
2.04487
2.03603
2.01149
1.96394
1.9052
1.85666
1.82206
1.80262
1.79264
1.78591
1.77615
1.76009
1.74247
1.72383
1.70093
1.6793
1.66109
1.64504
1.62977
1.61224
1.59809
1.58678
1.5762
1.5628
1.55208
1.54192
1.5181
1.4787
1.42316
1.32947
1.21979
1.14962
1.11952
1.1026
1.08569
1.06587
1.04567
1.02933
1.02367
1.0162
)
;
    }
    top
    {
        type            symmetryPlane;
    }
    bottom
    {
        type            symmetryPlane;
    }
    step
    {
        type            zeroGradient;
    }
    defaultFaces
    {
        type            empty;
    }
}


// ************************************************************************* //
