/*--------------------------------*- C++ -*----------------------------------*\
  =========                 |
  \\      /  F ield         | OpenFOAM: The Open Source CFD Toolbox
   \\    /   O peration     | Website:  https://openfoam.org
    \\  /    A nd           | Version:  6.0
     \\/     M anipulation  |
\*---------------------------------------------------------------------------*/
FoamFile
{
    version     2.0;
    format      ascii;
    class       volVectorField;
    location    "2.0002372";
    object      U;
}
// * * * * * * * * * * * * * * * * * * * * * * * * * * * * * * * * * * * * * //

dimensions      [0 1 -1 0 0 0 0];

internalField   nonuniform List<vector> 
4800
(
(3 -5.23101e-17 0)
(3 -1.1211e-16 0)
(3 -2.82013e-16 0)
(3 -7.39659e-16 0)
(3 -9.71588e-17 0)
(3 -2.10669e-16 0)
(3 -5.05183e-16 0)
(3 -2.39665e-16 0)
(3 -1.50298e-16 0)
(3 -4.32044e-16 0)
(3 -3.38631e-16 0)
(3 -1.32641e-15 0)
(3 -9.25154e-16 0)
(3 -3.85692e-16 0)
(3 -5.14969e-16 0)
(3 -1.64318e-16 0)
(3 1.63721e-16 0)
(3 -4.2489e-16 0)
(3 -2.84147e-16 0)
(3 4.06512e-16 0)
(2.95543 -0.00740359 0)
(1.05794 0.00820774 0)
(0.726623 0.0155177 0)
(0.700659 -0.00311818 0)
(0.672242 -0.0106045 0)
(0.6362 -0.0196162 0)
(0.579 -0.0103264 0)
(0.500029 0.0334866 0)
(0.446681 0.0579889 0)
(0.434623 0.0692427 0)
(0.427266 0.0491721 0)
(0.402304 -0.000222994 0)
(0.376108 -0.0591441 0)
(0.31347 -0.0761341 0)
(0.232063 -0.0440223 0)
(0.156338 0.00294022 0)
(0.102137 0.0419351 0)
(0.105826 0.0612724 0)
(0.10081 0.0494466 0)
(0.0352956 0.0527211 0)
(3 -1.81447e-16 0)
(3 4.68289e-17 0)
(3 -1.42933e-16 0)
(3 -8.30709e-17 0)
(3 -2.743e-17 0)
(3 2.02602e-16 0)
(3 -3.43321e-16 0)
(3 3.48748e-16 0)
(3 2.37599e-16 0)
(3 -9.11119e-16 0)
(3 -5.28833e-16 0)
(3 -5.70822e-16 0)
(3 -3.92008e-16 0)
(3 -7.88495e-16 0)
(3 -5.70818e-16 0)
(3 3.71733e-17 0)
(3 3.77117e-17 0)
(3 -7.87588e-17 0)
(3 -1.14857e-16 0)
(3 1.30716e-16 0)
(2.96202 -0.00772112 0)
(1.05402 0.0276546 0)
(0.720529 0.0336596 0)
(0.694604 0.0214867 0)
(0.659574 -0.00712837 0)
(0.621616 -0.041037 0)
(0.57245 -0.0620858 0)
(0.530702 -0.0253544 0)
(0.490685 0.0936341 0)
(0.466039 0.162911 0)
(0.433357 0.163465 0)
(0.381912 0.114895 0)
(0.325629 0.00948926 0)
(0.277021 -0.138614 0)
(0.238271 -0.192624 0)
(0.18935 -0.134402 0)
(0.162704 0.0449771 0)
(0.107222 0.158281 0)
(0.0523584 0.0627495 0)
(0.0316751 -0.0622831 0)
(3 1.4793e-17 0)
(3 1.0036e-15 0)
(3 6.85057e-16 0)
(3 8.12241e-16 0)
(3 8.05303e-16 0)
(3 2.72142e-16 0)
(3 1.85847e-16 0)
(3 -6.07357e-17 0)
(3 -4.56608e-16 0)
(3 -1.24337e-15 0)
(3 -1.86653e-15 0)
(3 -4.55626e-16 0)
(3 -1.27219e-16 0)
(3 1.04943e-17 0)
(3 1.22808e-15 0)
(3 6.58049e-16 0)
(3 4.89134e-16 0)
(3 1.0525e-15 0)
(3 7.93574e-16 0)
(3 -2.69711e-17 0)
(2.96998 0.000617116 0)
(1.0619 0.0398937 0)
(0.726804 0.0356987 0)
(0.688244 0.0392654 0)
(0.643426 0.0126553 0)
(0.601886 -0.0298995 0)
(0.573879 -0.0359487 0)
(0.558282 0.0220822 0)
(0.528387 0.104807 0)
(0.477034 0.15081 0)
(0.431628 0.116452 0)
(0.358634 0.0257132 0)
(0.289692 -0.011727 0)
(0.243615 -0.0241832 0)
(0.24553 -0.00794916 0)
(0.220767 0.0172093 0)
(0.204363 0.0633157 0)
(0.10961 0.0828884 0)
(0.0131134 0.0662251 0)
(0.0284426 0.0416575 0)
(3 4.06754e-16 0)
(3 6.8061e-16 0)
(3 4.01661e-16 0)
(3 5.47567e-16 0)
(3 5.71551e-16 0)
(3 2.84884e-16 0)
(3 6.61183e-16 0)
(3 -6.34685e-16 0)
(3 -1.2368e-15 0)
(3 -9.35937e-16 0)
(3 -2.51352e-16 0)
(3 -9.58529e-16 0)
(3 -6.17556e-16 0)
(3 -3.80784e-16 0)
(3 4.03475e-16 0)
(3 1.02558e-15 0)
(3 1.61938e-15 0)
(3 1.6936e-15 0)
(3 1.17662e-15 0)
(3 4.26858e-16 0)
(2.97906 0.00278197 0)
(1.07549 0.0432067 0)
(0.73168 0.0316364 0)
(0.687502 0.034266 0)
(0.634721 0.0349352 0)
(0.600676 0.0274408 0)
(0.588175 0.0372932 0)
(0.568733 0.0555113 0)
(0.53875 0.0632271 0)
(0.474474 0.0443957 0)
(0.38748 -0.0103764 0)
(0.340657 -0.0206325 0)
(0.294882 -0.00328291 0)
(0.266998 0.108926 0)
(0.251122 0.174317 0)
(0.208977 0.162204 0)
(0.19403 0.0573793 0)
(0.10843 -0.0244825 0)
(0.0220916 0.0201121 0)
(0.0295519 0.0707596 0)
(3 -1.44862e-16 0)
(3 -4.47207e-16 0)
(3 1.16574e-16 0)
(3 4.61249e-16 0)
(3 1.45787e-16 0)
(3 2.87064e-16 0)
(3 6.65563e-16 0)
(3 4.49413e-16 0)
(3 -7.00129e-16 0)
(3 -1.18978e-15 0)
(3 3.70834e-16 0)
(3 2.29951e-16 0)
(3 -3.13725e-17 0)
(3 4.0847e-16 0)
(3 3.8691e-16 0)
(3 1.23579e-15 0)
(3 1.8258e-16 0)
(3 6.64021e-16 0)
(3 4.35808e-16 0)
(3 4.06134e-16 0)
(2.98784 0.00518977 0)
(1.08251 0.0491772 0)
(0.7319 0.0275254 0)
(0.689562 0.0259832 0)
(0.64192 0.0595421 0)
(0.602277 0.104758 0)
(0.583266 0.108822 0)
(0.565491 0.0762618 0)
(0.52473 0.00986216 0)
(0.444278 -0.0588791 0)
(0.390094 -0.0850237 0)
(0.357457 -0.0746442 0)
(0.349942 0.0153828 0)
(0.327599 0.161604 0)
(0.268276 0.275098 0)
(0.184623 0.281473 0)
(0.122652 0.0909462 0)
(0.102233 -0.0389468 0)
(0.0732513 0.0228972 0)
(0.0394444 0.147116 0)
(3 -2.7666e-16 0)
(3 -7.89943e-16 0)
(3 4.45413e-16 0)
(3 1.36007e-16 0)
(3 3.72771e-16 0)
(3 4.79495e-16 0)
(3 7.45543e-16 0)
(3 1.13394e-15 0)
(3 3.36314e-16 0)
(3 -4.34883e-16 0)
(3 -3.27538e-16 0)
(3 6.09808e-16 0)
(3 5.68221e-16 0)
(3 8.77063e-16 0)
(3 1.21411e-15 0)
(3 8.92999e-16 0)
(3 8.99174e-16 0)
(3 4.99699e-16 0)
(3 5.11528e-16 0)
(3 1.2003e-15 0)
(2.99642 0.00308062 0)
(1.09005 0.0548327 0)
(0.730498 0.0289765 0)
(0.697465 0.038317 0)
(0.659186 0.0734289 0)
(0.6178 0.127125 0)
(0.578037 0.147031 0)
(0.539619 0.088053 0)
(0.494511 -0.0145463 0)
(0.450053 -0.0640295 0)
(0.397622 -0.0197824 0)
(0.376345 0.0610607 0)
(0.371907 0.128645 0)
(0.358987 0.137917 0)
(0.291462 0.140701 0)
(0.163867 0.0976874 0)
(0.0739947 0.079108 0)
(0.0977365 0.0557794 0)
(0.10274 0.0589041 0)
(0.047476 0.0607645 0)
(3 -2.6034e-17 0)
(3 2.15472e-16 0)
(3 1.59078e-16 0)
(3 2.38519e-16 0)
(3 5.97651e-16 0)
(3 1.1438e-15 0)
(3 7.76495e-16 0)
(3 1.49161e-15 0)
(3 8.79599e-16 0)
(3 4.1568e-16 0)
(3 -4.12596e-16 0)
(3 -4.13258e-16 0)
(3 1.89053e-16 0)
(3 5.3776e-17 0)
(3 7.25027e-16 0)
(3 1.14158e-15 0)
(3 1.79816e-15 0)
(3 1.15369e-15 0)
(3 1.51041e-15 0)
(3 9.86477e-16 0)
(3.00026 0.000391443 0)
(1.09664 0.0696039 0)
(0.732344 0.0509207 0)
(0.702697 0.0634453 0)
(0.669163 0.0746639 0)
(0.62987 0.098439 0)
(0.574372 0.109322 0)
(0.508266 0.064445 0)
(0.462941 0.00617567 0)
(0.44175 0.00336091 0)
(0.426951 0.103481 0)
(0.401961 0.193449 0)
(0.36584 0.197605 0)
(0.344828 0.101226 0)
(0.246151 -0.0657869 0)
(0.172731 -0.0805065 0)
(0.102948 0.0698444 0)
(0.100424 0.165052 0)
(0.0941278 0.135901 0)
(0.0415132 0.039236 0)
(3 1.07202e-16 0)
(3 8.03688e-16 0)
(3 4.10993e-16 0)
(3 5.48645e-16 0)
(3 3.79262e-16 0)
(3 -6.79575e-17 0)
(3 7.20219e-17 0)
(3 8.29078e-16 0)
(3 1.64851e-15 0)
(3 8.56821e-16 0)
(3 4.52196e-17 0)
(3 -4.40827e-16 0)
(3 -6.13768e-16 0)
(3 -4.05437e-16 0)
(3 1.96502e-16 0)
(3 4.68432e-16 0)
(3 1.2381e-15 0)
(3 7.58029e-16 0)
(3 1.0563e-15 0)
(3 8.22606e-16 0)
(3.00003 2.00812e-05 0)
(1.11457 0.0920383 0)
(0.732534 0.0859443 0)
(0.701998 0.0723226 0)
(0.671159 0.0670619 0)
(0.633697 0.0551881 0)
(0.574919 0.0547727 0)
(0.500606 0.0703102 0)
(0.458166 0.0772084 0)
(0.474418 0.120464 0)
(0.460381 0.174102 0)
(0.413568 0.232008 0)
(0.346448 0.240304 0)
(0.257999 0.067263 0)
(0.231036 -0.0857292 0)
(0.205209 -0.0688277 0)
(0.173505 0.0631099 0)
(0.114312 0.191386 0)
(0.0425451 0.130659 0)
(0.03168 0.00931647 0)
(3 1.94841e-16 0)
(3 9.10609e-17 0)
(3 3.63934e-16 0)
(3 4.23162e-16 0)
(3 2.5834e-16 0)
(3 -5.40549e-16 0)
(3 -1.74701e-16 0)
(3 9.00285e-16 0)
(3 1.53096e-15 0)
(3 5.28103e-16 0)
(3 9.41007e-16 0)
(3 9.76371e-16 0)
(3 -3.83791e-16 0)
(3 -7.92336e-16 0)
(3 6.59235e-17 0)
(3 5.1629e-16 0)
(3 8.32431e-16 0)
(3 1.00469e-15 0)
(3 4.28563e-16 0)
(3 1.66593e-15 0)
(3 7.16254e-08 0)
(1.13463 0.106646 0)
(0.730842 0.0984403 0)
(0.696619 0.0995015 0)
(0.664007 0.0732809 0)
(0.622415 0.0389183 0)
(0.569019 0.00838703 0)
(0.523545 0.0447711 0)
(0.486943 0.162957 0)
(0.477695 0.21142 0)
(0.460942 0.180675 0)
(0.422804 0.141584 0)
(0.316326 0.0707759 0)
(0.225789 0.0701429 0)
(0.203387 0.058847 0)
(0.210767 0.0599921 0)
(0.213531 0.132397 0)
(0.127034 0.171413 0)
(0.0255046 0.176171 0)
(0.0251788 0.16816 0)
(3 3.80397e-16 0)
(3 -2.61574e-16 0)
(3 7.39056e-17 0)
(3 1.88874e-16 0)
(3 -7.30327e-16 0)
(3 -4.71624e-16 0)
(3 -2.20651e-16 0)
(3 -1.3161e-16 0)
(3 3.2985e-17 0)
(3 -2.10495e-16 0)
(3 3.42917e-16 0)
(3 1.50364e-16 0)
(3 -4.47527e-16 0)
(3 -1.199e-15 0)
(3 -3.77023e-16 0)
(3 -7.08377e-17 0)
(3 1.35104e-16 0)
(3 7.2842e-16 0)
(3 4.92556e-16 0)
(3 6.43566e-16 0)
(3 -1.2611e-07 0)
(1.15767 0.113059 0)
(0.739696 0.0995701 0)
(0.694875 0.114283 0)
(0.651102 0.104199 0)
(0.607166 0.0539606 0)
(0.569635 0.0303905 0)
(0.553865 0.097731 0)
(0.518274 0.190738 0)
(0.47618 0.266009 0)
(0.437306 0.242666 0)
(0.369778 0.06311 0)
(0.309169 -0.0318132 0)
(0.258384 0.0509961 0)
(0.2341 0.224797 0)
(0.224635 0.27327 0)
(0.211094 0.207402 0)
(0.130774 0.155755 0)
(0.0319917 0.178487 0)
(0.0339215 0.241297 0)
(3 -2.05689e-17 0)
(3 1.00719e-16 0)
(3 3.5838e-16 0)
(3 -1.66894e-16 0)
(3 -8.37917e-16 0)
(3 -3.18501e-16 0)
(3 -3.6346e-16 0)
(3 -5.58297e-16 0)
(3 -1.35491e-15 0)
(3 -1.13194e-16 0)
(3 -4.39771e-16 0)
(3 -5.47537e-16 0)
(3 -6.52956e-16 0)
(3 -6.76763e-16 0)
(3 -9.09854e-16 0)
(3 -9.88072e-16 0)
(3 -1.22962e-16 0)
(3 -1.15988e-16 0)
(3 -2.26783e-16 0)
(3 -4.24593e-16 0)
(3 -9.54527e-08 0)
(1.18453 0.116435 0)
(0.742298 0.101034 0)
(0.697011 0.106189 0)
(0.642936 0.106595 0)
(0.597228 0.106832 0)
(0.58229 0.12111 0)
(0.568997 0.138428 0)
(0.537972 0.155905 0)
(0.495479 0.17435 0)
(0.397878 0.104273 0)
(0.336238 0.0222242 0)
(0.317551 0.0209863 0)
(0.325011 0.157851 0)
(0.282827 0.305691 0)
(0.205595 0.390473 0)
(0.166325 0.295153 0)
(0.1193 0.121683 0)
(0.0834422 0.189234 0)
(0.0504846 0.30374 0)
(3 5.99271e-17 0)
(3 7.27165e-16 0)
(3 6.60876e-16 0)
(3 -6.90224e-16 0)
(3 -1.24394e-15 0)
(3 -1.01899e-15 0)
(3 -8.46305e-16 0)
(3 -4.00183e-16 0)
(3 -1.11311e-15 0)
(3 -2.28839e-17 0)
(3 -7.52741e-16 0)
(3 -3.96503e-16 0)
(3 3.02462e-16 0)
(3 1.03102e-15 0)
(3 6.6641e-16 0)
(3 -1.57999e-16 0)
(3 -2.7325e-16 0)
(3 -1.58598e-16 0)
(3 -6.2433e-16 0)
(3 -5.89534e-16 0)
(3 -1.28685e-08 0)
(1.21076 0.117905 0)
(0.743628 0.101325 0)
(0.694189 0.0984704 0)
(0.646234 0.111076 0)
(0.604696 0.161983 0)
(0.577606 0.198916 0)
(0.564354 0.174888 0)
(0.536302 0.128534 0)
(0.474942 0.0434773 0)
(0.39665 0.0422425 0)
(0.326842 0.101199 0)
(0.326412 0.129368 0)
(0.344332 0.20694 0)
(0.309466 0.264299 0)
(0.225036 0.28071 0)
(0.118884 0.214051 0)
(0.104863 0.149892 0)
(0.115791 0.134461 0)
(0.0593384 0.122932 0)
(3 1.17652e-16 0)
(3 5.85042e-16 0)
(3 3.82948e-16 0)
(3 -5.54575e-16 0)
(3 -1.03574e-15 0)
(3 -1.1001e-15 0)
(3 -6.90913e-16 0)
(3 -5.63253e-16 0)
(3 -7.32384e-16 0)
(3 9.69313e-17 0)
(3 3.6002e-16 0)
(3 5.63294e-16 0)
(3 1.10564e-15 0)
(3 1.90473e-15 0)
(3 9.51331e-16 0)
(3 1.42244e-16 0)
(3 -2.74399e-16 0)
(3 2.34406e-16 0)
(3 1.82583e-17 0)
(3 -1.40323e-16 0)
(3 -1.39968e-10 0)
(1.23944 0.127034 0)
(0.739034 0.104227 0)
(0.697532 0.095867 0)
(0.663788 0.132099 0)
(0.624183 0.182083 0)
(0.586162 0.216146 0)
(0.55007 0.210368 0)
(0.502773 0.118486 0)
(0.449348 0.0170509 0)
(0.404435 0.0080714 0)
(0.36843 0.115393 0)
(0.366099 0.263869 0)
(0.3604 0.286325 0)
(0.302015 0.237228 0)
(0.18779 0.103963 0)
(0.111689 0.099681 0)
(0.103769 0.166618 0)
(0.0987724 0.124296 0)
(0.0496059 0.0286237 0)
(3 -7.6839e-17 0)
(3 -3.37149e-16 0)
(3 -1.14424e-16 0)
(3 3.44212e-16 0)
(3 -2.87981e-16 0)
(3 -1.19965e-15 0)
(3 -1.00362e-15 0)
(3 -8.72522e-16 0)
(3 -4.41084e-16 0)
(3 -1.4965e-16 0)
(3 1.13021e-15 0)
(3 1.06551e-15 0)
(3 5.50617e-16 0)
(3 8.58789e-16 0)
(3 7.86592e-16 0)
(3 1.0379e-15 0)
(3 8.23819e-16 0)
(3 3.7165e-16 0)
(3 3.9081e-18 0)
(3 -2.52742e-16 0)
(3 2.49816e-11 0)
(1.27374 0.145521 0)
(0.736945 0.117404 0)
(0.704519 0.137211 0)
(0.671893 0.153405 0)
(0.635377 0.166856 0)
(0.593719 0.194593 0)
(0.532218 0.18893 0)
(0.46779 0.116618 0)
(0.419256 0.0686381 0)
(0.418152 0.0697457 0)
(0.422569 0.191196 0)
(0.384724 0.303294 0)
(0.335752 0.309331 0)
(0.246465 0.0995421 0)
(0.184837 0.0260907 0)
(0.144628 0.103774 0)
(0.118759 0.152707 0)
(0.0641735 0.142353 0)
(0.0360783 0.0582502 0)
(3 1.97572e-16 0)
(3 -8.48801e-16 0)
(3 -9.26777e-16 0)
(3 -3.96249e-16 0)
(3 1.36084e-16 0)
(3 -1.27199e-15 0)
(3 -8.83414e-16 0)
(3 -6.04855e-16 0)
(3 1.33926e-17 0)
(3 -2.32803e-17 0)
(3 1.30928e-16 0)
(3 6.41839e-16 0)
(3 5.51161e-16 0)
(3 5.55814e-16 0)
(3 1.05448e-17 0)
(3 4.66776e-16 0)
(3 1.63711e-15 0)
(3 1.45584e-15 0)
(3 3.21077e-16 0)
(3 -3.66922e-16 0)
(3 2.82645e-11 0)
(1.3061 0.169613 0)
(0.743546 0.14214 0)
(0.69998 0.167036 0)
(0.668244 0.165428 0)
(0.636343 0.157259 0)
(0.598315 0.146846 0)
(0.528129 0.135216 0)
(0.454894 0.144402 0)
(0.421163 0.171696 0)
(0.433057 0.237293 0)
(0.430499 0.257274 0)
(0.401174 0.252767 0)
(0.289223 0.154662 0)
(0.209438 0.0670369 0)
(0.173178 0.0922905 0)
(0.169024 0.173235 0)
(0.126343 0.25055 0)
(0.0582835 0.222503 0)
(0.0298091 0.148535 0)
(3 -2.39054e-16 0)
(3 -3.88712e-16 0)
(3 -2.89545e-16 0)
(3 -4.77905e-16 0)
(3 2.97685e-16 0)
(3 2.59973e-16 0)
(3 2.07086e-16 0)
(3 -8.27846e-16 0)
(3 -3.08181e-16 0)
(3 1.22669e-16 0)
(3 1.58541e-16 0)
(3 1.06735e-16 0)
(3 2.93784e-16 0)
(3 1.75463e-16 0)
(3 -1.88476e-18 0)
(3 -4.02855e-16 0)
(3 8.83039e-17 0)
(3 3.67921e-16 0)
(3 1.26452e-15 0)
(3 9.53188e-16 0)
(3 -2.35829e-15 0)
(1.34908 0.186741 0)
(0.757347 0.162759 0)
(0.704769 0.185145 0)
(0.669555 0.189003 0)
(0.625573 0.178805 0)
(0.580081 0.123544 0)
(0.525978 0.0856638 0)
(0.484132 0.120283 0)
(0.467527 0.257825 0)
(0.454124 0.350924 0)
(0.421397 0.339186 0)
(0.358657 0.190779 0)
(0.250851 0.0343387 0)
(0.229736 0.0444311 0)
(0.219631 0.156825 0)
(0.210587 0.272261 0)
(0.132086 0.361093 0)
(0.0206549 0.304175 0)
(0.0266029 0.241813 0)
(3 -5.70575e-16 0)
(3 -2.08347e-16 0)
(3 4.04619e-16 0)
(3 6.27749e-16 0)
(3 1.04414e-16 0)
(3 1.1479e-15 0)
(3 4.15529e-16 0)
(3 -4.9848e-16 0)
(3 -8.53108e-16 0)
(3 -2.38641e-16 0)
(3 -5.78619e-16 0)
(3 -5.79917e-16 0)
(3 -1.21885e-16 0)
(3 6.05031e-16 0)
(3 4.16822e-16 0)
(3 -6.11402e-16 0)
(3 -1.73912e-15 0)
(3 -8.60204e-17 0)
(3 5.24614e-16 0)
(3 1.4069e-15 0)
(3 -2.46392e-15 0)
(1.39854 0.197094 0)
(0.769353 0.174194 0)
(0.706412 0.19322 0)
(0.662057 0.195643 0)
(0.612838 0.163531 0)
(0.559509 0.123352 0)
(0.523047 0.114443 0)
(0.525125 0.210453 0)
(0.502921 0.293894 0)
(0.469173 0.337498 0)
(0.404497 0.285051 0)
(0.298949 0.12365 0)
(0.237322 0.0785328 0)
(0.257155 0.153632 0)
(0.238655 0.243704 0)
(0.246055 0.308415 0)
(0.145784 0.32434 0)
(0.0184055 0.326436 0)
(0.0436383 0.359219 0)
(3 1.61848e-16 0)
(3 -1.05709e-16 0)
(3 3.28076e-16 0)
(3 1.46529e-16 0)
(3 1.48003e-16 0)
(3 8.06309e-16 0)
(3 7.04524e-16 0)
(3 1.6944e-16 0)
(3 -3.53156e-16 0)
(3 -8.61392e-16 0)
(3 -9.06559e-16 0)
(3 3.26761e-16 0)
(3 7.30298e-16 0)
(3 1.18584e-15 0)
(3 1.31646e-15 0)
(3 8.5201e-18 0)
(3 -1.82575e-15 0)
(3 -9.77457e-16 0)
(3 -1.94456e-16 0)
(3 3.56109e-16 0)
(3 1.0972e-15 0)
(1.45507 0.20293 0)
(0.778105 0.182528 0)
(0.707948 0.183977 0)
(0.65567 0.171199 0)
(0.603215 0.164186 0)
(0.557531 0.175838 0)
(0.548449 0.231763 0)
(0.53906 0.267096 0)
(0.511989 0.269087 0)
(0.466525 0.243178 0)
(0.349533 0.140376 0)
(0.282294 0.15472 0)
(0.258359 0.249599 0)
(0.299696 0.377185 0)
(0.251105 0.414246 0)
(0.229086 0.348335 0)
(0.137466 0.231718 0)
(0.0432854 0.303392 0)
(0.0498533 0.383837 0)
(3 3.17843e-16 0)
(3 3.37597e-16 0)
(3 1.55813e-16 0)
(3 -1.95782e-17 0)
(3 8.35885e-16 0)
(3 1.47187e-16 0)
(3 7.99989e-16 0)
(3 8.89317e-16 0)
(3 6.31958e-16 0)
(3 -9.29263e-16 0)
(3 -6.56693e-16 0)
(3 9.32128e-16 0)
(3 9.17727e-16 0)
(3 5.26897e-16 0)
(3 8.48684e-16 0)
(3 6.2312e-16 0)
(3 -8.04929e-17 0)
(3 -1.09905e-15 0)
(3 6.40736e-16 0)
(3 6.47096e-16 0)
(3 -1.40947e-15 0)
(1.52295 0.206349 0)
(0.776136 0.1921 0)
(0.701156 0.166288 0)
(0.655264 0.158585 0)
(0.611274 0.174751 0)
(0.586123 0.252531 0)
(0.56392 0.316154 0)
(0.541496 0.328432 0)
(0.494394 0.29279 0)
(0.411855 0.115157 0)
(0.351911 0.076663 0)
(0.330571 0.172656 0)
(0.311935 0.379321 0)
(0.304786 0.484649 0)
(0.245167 0.443897 0)
(0.18348 0.337206 0)
(0.126957 0.20443 0)
(0.114976 0.284595 0)
(0.0645087 0.431913 0)
(3 -2.94872e-16 0)
(3 4.96168e-16 0)
(3 1.20039e-16 0)
(3 2.21468e-16 0)
(3 1.20487e-16 0)
(3 7.13922e-16 0)
(3 4.89244e-16 0)
(3 2.99153e-16 0)
(3 6.24853e-16 0)
(3 2.79039e-16 0)
(3 1.86175e-16 0)
(3 4.10144e-16 0)
(3 8.12417e-16 0)
(3 9.7491e-16 0)
(3 2.06067e-16 0)
(3 3.33276e-16 0)
(3 5.99448e-16 0)
(3 8.9042e-16 0)
(3 4.68322e-16 0)
(3 6.33899e-16 0)
(3 -2.17071e-15 0)
(1.59603 0.208033 0)
(0.77378 0.18578 0)
(0.695075 0.171136 0)
(0.65795 0.181132 0)
(0.632218 0.240712 0)
(0.602405 0.28152 0)
(0.574226 0.315227 0)
(0.540534 0.332258 0)
(0.449299 0.213115 0)
(0.389126 0.143526 0)
(0.370738 0.13161 0)
(0.378534 0.241075 0)
(0.382223 0.399481 0)
(0.315519 0.514548 0)
(0.220874 0.47139 0)
(0.125731 0.303329 0)
(0.129161 0.287568 0)
(0.139198 0.290931 0)
(0.0718613 0.236531 0)
(3 -1.34203e-16 0)
(3 -1.98803e-16 0)
(3 -5.64158e-17 0)
(3 -3.79577e-16 0)
(3 -9.14716e-16 0)
(3 7.483e-16 0)
(3 6.65484e-16 0)
(3 4.41672e-16 0)
(3 6.08517e-16 0)
(3 6.9248e-16 0)
(3 4.15783e-16 0)
(3 -6.40547e-16 0)
(3 1.75059e-16 0)
(3 6.61275e-16 0)
(3 5.97136e-16 0)
(3 1.21746e-16 0)
(3 1.43855e-15 0)
(3 1.72935e-15 0)
(3 5.37506e-16 0)
(3 1.84704e-16 0)
(3 -4.29727e-17 0)
(1.66803 0.216152 0)
(0.767719 0.186715 0)
(0.70764 0.20766 0)
(0.673128 0.246274 0)
(0.639427 0.256181 0)
(0.611638 0.263076 0)
(0.590245 0.264882 0)
(0.507678 0.185061 0)
(0.43627 0.167118 0)
(0.372866 0.218537 0)
(0.393552 0.273883 0)
(0.398861 0.357875 0)
(0.408731 0.347592 0)
(0.317184 0.30913 0)
(0.184689 0.238707 0)
(0.126054 0.311763 0)
(0.135185 0.348758 0)
(0.120524 0.287293 0)
(0.0534358 0.168927 0)
(3 -1.01337e-16 0)
(3 -3.88351e-16 0)
(3 -2.95935e-16 0)
(3 -1.55547e-17 0)
(3 6.61193e-16 0)
(3 2.476e-16 0)
(3 9.20361e-16 0)
(3 7.96842e-16 0)
(3 8.17356e-16 0)
(3 7.59388e-16 0)
(3 -1.47321e-16 0)
(3 8.84156e-17 0)
(3 1.09094e-15 0)
(3 7.08846e-16 0)
(3 9.9799e-16 0)
(3 4.06515e-16 0)
(3 7.9384e-16 0)
(3 3.8719e-16 0)
(3 -4.56645e-16 0)
(3 2.75427e-16 0)
(3 -1.39163e-15 0)
(1.7344 0.238662 0)
(0.785464 0.208881 0)
(0.711564 0.267594 0)
(0.671415 0.274688 0)
(0.638958 0.268343 0)
(0.607349 0.248603 0)
(0.559434 0.173332 0)
(0.4996 0.113144 0)
(0.456036 0.126688 0)
(0.420871 0.225968 0)
(0.42302 0.394329 0)
(0.39952 0.382749 0)
(0.379279 0.310087 0)
(0.271822 0.126248 0)
(0.214264 0.181278 0)
(0.146747 0.2968 0)
(0.131533 0.334018 0)
(0.0840584 0.278861 0)
(0.0486232 0.166175 0)
(3 1.1727e-16 0)
(3 1.04396e-16 0)
(3 -3.37841e-16 0)
(3 1.43852e-17 0)
(3 9.20233e-16 0)
(3 1.33628e-16 0)
(3 -9.77257e-17 0)
(3 1.13192e-15 0)
(3 9.84565e-16 0)
(3 2.66709e-16 0)
(3 2.08949e-16 0)
(3 1.02093e-15 0)
(3 1.19756e-15 0)
(3 1.34538e-15 0)
(3 1.04792e-15 0)
(3 1.13943e-15 0)
(3 9.19536e-16 0)
(3 -6.39805e-17 0)
(3 -2.44655e-16 0)
(3 2.74889e-16 0)
(3 -1.92454e-15 0)
(1.81153 0.263464 0)
(0.808986 0.254128 0)
(0.717076 0.288091 0)
(0.673877 0.291849 0)
(0.630873 0.287727 0)
(0.586112 0.232307 0)
(0.537622 0.150683 0)
(0.499825 0.109431 0)
(0.478628 0.14569 0)
(0.48476 0.310633 0)
(0.447083 0.429144 0)
(0.377585 0.437996 0)
(0.296634 0.258918 0)
(0.265392 0.0729931 0)
(0.248117 0.0981722 0)
(0.192009 0.244624 0)
(0.137215 0.326189 0)
(0.0578854 0.288561 0)
(0.0397858 0.192607 0)
(3 1.04789e-16 0)
(3 5.04528e-17 0)
(3 -6.72301e-16 0)
(3 7.74376e-17 0)
(3 4.78981e-16 0)
(3 4.37683e-16 0)
(3 -1.90338e-16 0)
(3 3.61876e-18 0)
(3 2.0294e-16 0)
(3 8.11212e-17 0)
(3 6.7142e-16 0)
(3 6.697e-16 0)
(3 5.08987e-16 0)
(3 1.09526e-15 0)
(3 9.95102e-16 0)
(3 7.30546e-16 0)
(3 7.66789e-16 0)
(3 -2.76917e-16 0)
(3 -4.38199e-16 0)
(3 1.05092e-16 0)
(3 -4.81126e-16 0)
(1.90993 0.272167 0)
(0.827225 0.284575 0)
(0.718837 0.293768 0)
(0.67968 0.281755 0)
(0.626606 0.240668 0)
(0.572989 0.211201 0)
(0.519562 0.205749 0)
(0.499251 0.22932 0)
(0.515879 0.334561 0)
(0.506445 0.363624 0)
(0.47688 0.376298 0)
(0.370603 0.345305 0)
(0.233197 0.239244 0)
(0.231804 0.171387 0)
(0.245996 0.164487 0)
(0.24813 0.279479 0)
(0.149107 0.414715 0)
(0.0313259 0.331243 0)
(0.0372727 0.271902 0)
(3 -2.88173e-16 0)
(3 -4.18534e-16 0)
(3 -7.64798e-17 0)
(3 8.19132e-17 0)
(3 3.53962e-16 0)
(3 4.99645e-16 0)
(3 -3.84115e-16 0)
(3 -1.10176e-15 0)
(3 -3.74086e-17 0)
(3 -1.42509e-16 0)
(3 7.20393e-16 0)
(3 1.16704e-15 0)
(3 3.94718e-16 0)
(3 1.66281e-16 0)
(3 -6.21555e-17 0)
(3 -2.3735e-16 0)
(3 -1.08984e-16 0)
(3 -7.20717e-16 0)
(3 -1.01883e-15 0)
(3 -1.62386e-16 0)
(3 5.49255e-16 0)
(2.01978 0.27592 0)
(0.844451 0.29799 0)
(0.717683 0.280225 0)
(0.667168 0.237577 0)
(0.619943 0.214349 0)
(0.576048 0.212566 0)
(0.544674 0.27499 0)
(0.541605 0.40323 0)
(0.518711 0.429403 0)
(0.501825 0.405023 0)
(0.456602 0.314081 0)
(0.344897 0.187386 0)
(0.237939 0.28791 0)
(0.247191 0.375449 0)
(0.279445 0.468588 0)
(0.269251 0.480407 0)
(0.164502 0.476687 0)
(0.0133404 0.490636 0)
(0.044603 0.483783 0)
(3 -1.74611e-16 0)
(3 -2.10932e-16 0)
(3 6.04941e-16 0)
(3 -1.09528e-16 0)
(3 -6.87542e-16 0)
(3 -4.43209e-16 0)
(3 3.55192e-16 0)
(3 2.68526e-16 0)
(3 2.33427e-16 0)
(3 3.09081e-16 0)
(3 2.51121e-16 0)
(3 3.26661e-16 0)
(3 2.26769e-16 0)
(3 -5.61687e-16 0)
(3 -9.62621e-16 0)
(3 7.83089e-17 0)
(3 1.04669e-17 0)
(3 -6.27698e-16 0)
(3 -1.09483e-15 0)
(3 -1.5218e-16 0)
(3 -1.03883e-17 0)
(2.13973 0.275263 0)
(0.856052 0.305014 0)
(0.705171 0.263619 0)
(0.66287 0.219752 0)
(0.623513 0.206583 0)
(0.599274 0.270249 0)
(0.587428 0.372309 0)
(0.557373 0.438387 0)
(0.52073 0.473594 0)
(0.478114 0.43122 0)
(0.391234 0.201673 0)
(0.359408 0.162076 0)
(0.318214 0.263333 0)
(0.325872 0.557065 0)
(0.273167 0.648086 0)
(0.237994 0.599829 0)
(0.167342 0.493251 0)
(0.0740006 0.588337 0)
(0.0640828 0.695293 0)
(3 1.2511e-16 0)
(3 2.27652e-16 0)
(3 4.42563e-16 0)
(3 6.41032e-16 0)
(3 -9.83663e-16 0)
(3 -9.67153e-16 0)
(3 6.11236e-16 0)
(3 5.37106e-16 0)
(3 2.99784e-16 0)
(3 1.32396e-15 0)
(3 -8.82428e-17 0)
(3 -6.33127e-16 0)
(3 -1.93972e-16 0)
(3 -4.44915e-16 0)
(3 -5.13724e-16 0)
(3 4.40958e-16 0)
(3 -1.18018e-16 0)
(3 -4.42597e-16 0)
(3 -1.39346e-15 0)
(3 -8.74028e-16 0)
(3 -8.37921e-16 0)
(2.26974 0.261878 0)
(0.864469 0.306364 0)
(0.695213 0.259362 0)
(0.662825 0.243888 0)
(0.646155 0.290087 0)
(0.62755 0.337813 0)
(0.60475 0.366957 0)
(0.585217 0.392353 0)
(0.541191 0.396253 0)
(0.41916 0.250592 0)
(0.364817 0.225366 0)
(0.350648 0.229769 0)
(0.380093 0.388247 0)
(0.372057 0.565499 0)
(0.291475 0.633898 0)
(0.215822 0.6159 0)
(0.160429 0.497569 0)
(0.128541 0.607207 0)
(0.0754903 0.714325 0)
(3 2.28897e-16 0)
(3 -6.29039e-17 0)
(3 -1.75861e-16 0)
(3 -6.35027e-17 0)
(3 -7.48657e-17 0)
(3 -5.69159e-16 0)
(3 -3.08448e-16 0)
(3 6.16306e-16 0)
(3 9.24526e-16 0)
(3 9.0136e-16 0)
(3 5.09474e-16 0)
(3 -3.26722e-16 0)
(3 -3.4771e-16 0)
(3 -5.51168e-16 0)
(3 6.1686e-16 0)
(3 6.50374e-16 0)
(3 8.09736e-17 0)
(3 -2.01181e-16 0)
(3 -6.13229e-16 0)
(3 -1.20326e-15 0)
(3 -3.53697e-16 0)
(2.39873 0.246538 0)
(0.869422 0.291937 0)
(0.700414 0.269942 0)
(0.688763 0.315935 0)
(0.665458 0.356299 0)
(0.635466 0.355778 0)
(0.616065 0.355322 0)
(0.583566 0.319876 0)
(0.490736 0.186323 0)
(0.422128 0.192942 0)
(0.385381 0.24041 0)
(0.404788 0.374791 0)
(0.421545 0.477192 0)
(0.404731 0.527787 0)
(0.30427 0.539195 0)
(0.171176 0.433944 0)
(0.163471 0.45032 0)
(0.164152 0.467299 0)
(0.0711557 0.432434 0)
(3 -8.61534e-17 0)
(3 -2.076e-16 0)
(3 -4.06412e-16 0)
(3 -4.46041e-16 0)
(3 -2.17596e-16 0)
(3 -1.58959e-16 0)
(3 2.40896e-16 0)
(3 8.45996e-16 0)
(3 1.15319e-15 0)
(3 6.47689e-16 0)
(3 2.63812e-16 0)
(3 3.11075e-16 0)
(3 4.00743e-16 0)
(3 4.81722e-17 0)
(3 2.20513e-16 0)
(3 -4.56145e-17 0)
(3 1.68811e-16 0)
(3 -3.03106e-16 0)
(3 -5.28005e-16 0)
(3 -3.56029e-17 0)
(3 -1.36172e-15 0)
(2.51791 0.252776 0)
(0.880697 0.313089 0)
(0.727728 0.327689 0)
(0.711869 0.36205 0)
(0.675501 0.37009 0)
(0.64013 0.373574 0)
(0.607826 0.340119 0)
(0.539537 0.211408 0)
(0.494473 0.162357 0)
(0.446867 0.191551 0)
(0.449973 0.37601 0)
(0.439622 0.522691 0)
(0.424228 0.529528 0)
(0.376464 0.470552 0)
(0.25423 0.254524 0)
(0.206478 0.296607 0)
(0.179631 0.384496 0)
(0.146272 0.355034 0)
(0.0696416 0.293458 0)
(3 1.74936e-16 0)
(3 1.37132e-16 0)
(3 4.70048e-16 0)
(3 -1.6328e-16 0)
(3 -1.84431e-16 0)
(3 -6.9143e-16 0)
(3 7.50949e-16 0)
(3 1.1191e-15 0)
(3 -6.3821e-17 0)
(3 3.12195e-16 0)
(3 7.96282e-16 0)
(3 4.06721e-16 0)
(3 5.70574e-17 0)
(3 2.25824e-16 0)
(3 -4.49071e-16 0)
(3 -7.08326e-16 0)
(3 -2.59752e-16 0)
(3 3.18291e-16 0)
(3 3.15818e-16 0)
(3 -1.19332e-16 0)
(3 -1.15004e-15 0)
(2.65619 0.268637 0)
(0.939681 0.385921 0)
(0.765407 0.359288 0)
(0.738491 0.363022 0)
(0.692289 0.367064 0)
(0.654607 0.35176 0)
(0.580089 0.260733 0)
(0.523094 0.23033 0)
(0.481924 0.227696 0)
(0.486721 0.34054 0)
(0.499464 0.488545 0)
(0.456885 0.515361 0)
(0.429848 0.525009 0)
(0.305688 0.280413 0)
(0.239483 0.257087 0)
(0.216878 0.305256 0)
(0.192883 0.368361 0)
(0.141714 0.368592 0)
(0.0704039 0.308703 0)
(3 2.50334e-16 0)
(3 4.69836e-16 0)
(3 5.7127e-16 0)
(3 1.27086e-17 0)
(3 1.69498e-16 0)
(3 -3.16188e-16 0)
(3 -2.51868e-16 0)
(3 1.05603e-15 0)
(3 1.47414e-15 0)
(3 1.52675e-15 0)
(3 1.11279e-15 0)
(3 -6.49841e-18 0)
(3 -2.68439e-16 0)
(3 -5.71557e-16 0)
(3 -7.25782e-16 0)
(3 -4.76909e-16 0)
(3 -6.72541e-16 0)
(3 3.23717e-16 0)
(3 1.73791e-15 0)
(3 1.36945e-15 0)
(3 -4.82132e-16 0)
(2.86998 0.22194 0)
(1.02536 0.443967 0)
(0.808472 0.382226 0)
(0.775346 0.368852 0)
(0.713191 0.359358 0)
(0.641359 0.281127 0)
(0.580074 0.261907 0)
(0.538091 0.257281 0)
(0.53123 0.376377 0)
(0.538633 0.502302 0)
(0.506022 0.532591 0)
(0.456897 0.542359 0)
(0.369586 0.359635 0)
(0.282617 0.264451 0)
(0.256928 0.292493 0)
(0.240939 0.359938 0)
(0.200561 0.404621 0)
(0.134881 0.421102 0)
(0.0645214 0.315947 0)
(3 -4.38174e-16 0)
(3 5.1308e-16 0)
(3 6.60409e-16 0)
(3 8.54329e-16 0)
(3 5.03172e-16 0)
(3 -2.32542e-16 0)
(3 -3.22551e-17 0)
(3 1.63694e-16 0)
(3 9.16139e-16 0)
(3 1.23172e-15 0)
(3 7.0284e-16 0)
(3 2.11121e-16 0)
(3 3.41553e-16 0)
(3 -5.02681e-18 0)
(3 -5.22044e-16 0)
(3 -5.48889e-16 0)
(3 -4.89559e-16 0)
(3 3.47658e-16 0)
(3 1.7352e-15 0)
(3 2.23542e-15 0)
(3 3.12224e-16 0)
(3.03123 0.101591 0)
(1.11985 0.433464 0)
(0.850399 0.400434 0)
(0.806329 0.379636 0)
(0.720823 0.30873 0)
(0.652417 0.26568 0)
(0.603812 0.262216 0)
(0.586238 0.396897 0)
(0.583122 0.506253 0)
(0.547958 0.52305 0)
(0.522446 0.523705 0)
(0.429099 0.380493 0)
(0.318292 0.270685 0)
(0.30383 0.256765 0)
(0.27039 0.309047 0)
(0.286091 0.473964 0)
(0.215391 0.563845 0)
(0.0958729 0.468501 0)
(0.0572197 0.333662 0)
(3 1.3927e-16 0)
(3 -3.4349e-16 0)
(3 -1.51119e-16 0)
(3 1.26734e-15 0)
(3 1.21205e-15 0)
(3 2.51968e-16 0)
(3 1.99689e-16 0)
(3 -5.79898e-16 0)
(3 -1.60434e-16 0)
(3 6.35043e-16 0)
(3 2.88598e-16 0)
(3 1.24885e-15 0)
(3 9.22146e-16 0)
(3 6.28948e-16 0)
(3 -8.52291e-16 0)
(3 -8.81632e-16 0)
(3 -9.49563e-17 0)
(3 1.32712e-16 0)
(3 6.00789e-16 0)
(3 4.96657e-16 0)
(3 3.32783e-16 0)
(3.03903 0.0271121 0)
(1.17264 0.382516 0)
(0.870275 0.3786 0)
(0.824151 0.333331 0)
(0.735438 0.296717 0)
(0.677769 0.29117 0)
(0.658142 0.391633 0)
(0.64244 0.477951 0)
(0.599156 0.50114 0)
(0.560743 0.485522 0)
(0.491216 0.388212 0)
(0.386795 0.261069 0)
(0.317567 0.284483 0)
(0.31709 0.378479 0)
(0.346678 0.64831 0)
(0.31098 0.728811 0)
(0.186718 0.727608 0)
(0.0307723 0.491331 0)
(0.0547811 0.355298 0)
(3 9.40757e-17 0)
(3 2.13792e-17 0)
(3 -4.17805e-16 0)
(3 -5.66386e-16 0)
(3 1.12239e-16 0)
(3 3.01556e-17 0)
(3 -6.93548e-16 0)
(3 -4.48438e-16 0)
(3 8.32667e-19 0)
(3 5.49984e-16 0)
(3 6.25078e-16 0)
(3 4.24252e-16 0)
(3 3.67493e-16 0)
(3 -1.82748e-16 0)
(3 -5.4932e-16 0)
(3 -1.76371e-15 0)
(3 -1.45263e-15 0)
(3 -5.18568e-16 0)
(3 6.84715e-16 0)
(3 7.73384e-16 0)
(3 1.0075e-15 0)
(3.01042 0.0127666 0)
(1.18242 0.315995 0)
(0.851626 0.3326 0)
(0.822914 0.311782 0)
(0.761035 0.313912 0)
(0.740174 0.412602 0)
(0.71719 0.485749 0)
(0.667689 0.502914 0)
(0.609854 0.50413 0)
(0.54101 0.43217 0)
(0.441236 0.253876 0)
(0.405629 0.26703 0)
(0.363126 0.371639 0)
(0.429546 0.665846 0)
(0.382677 0.746981 0)
(0.308814 0.75792 0)
(0.193537 0.751939 0)
(0.0142824 0.792134 0)
(0.0689349 0.767725 0)
(3 -4.16207e-17 0)
(3 2.46383e-16 0)
(3 -4.10403e-17 0)
(3 -1.33723e-15 0)
(3 -1.06334e-15 0)
(3 -5.05115e-16 0)
(3 -5.94517e-16 0)
(3 -2.66009e-16 0)
(3 -3.82495e-16 0)
(3 -9.72327e-17 0)
(3 8.17333e-16 0)
(3 9.93517e-16 0)
(3 5.13688e-16 0)
(3 1.3635e-16 0)
(3 2.76742e-16 0)
(3 -1.51811e-15 0)
(3 -1.81258e-15 0)
(3 3.7454e-17 0)
(3 1.33837e-15 0)
(3 1.89442e-15 0)
(3 1.17766e-15 0)
(3.00377 0.00485127 0)
(1.19461 0.294984 0)
(0.813923 0.325876 0)
(0.819555 0.321973 0)
(0.803534 0.436036 0)
(0.77967 0.495532 0)
(0.732168 0.509113 0)
(0.690777 0.497801 0)
(0.61037 0.410482 0)
(0.491736 0.282931 0)
(0.445224 0.276682 0)
(0.431062 0.325349 0)
(0.468243 0.617172 0)
(0.44976 0.752511 0)
(0.390352 0.79389 0)
(0.311253 0.812065 0)
(0.196347 0.743704 0)
(0.0916258 0.915449 0)
(0.102623 1.08059 0)
(3 1.20596e-17 0)
(3 -2.94565e-16 0)
(3 -3.08458e-16 0)
(3 -3.23843e-16 0)
(3 -6.33629e-17 0)
(3 1.22455e-16 0)
(3 -3.08083e-16 0)
(3 -2.24021e-16 0)
(3 -2.28049e-16 0)
(3 -1.24447e-16 0)
(3 1.07373e-15 0)
(3 9.06677e-16 0)
(3 -4.25217e-16 0)
(3 2.47265e-16 0)
(3 -1.77721e-16 0)
(3 -9.56178e-18 0)
(3 -1.04137e-15 0)
(3 5.53587e-16 0)
(3 1.10752e-15 0)
(3 1.37453e-15 0)
(3 1.25689e-15 0)
(3.00107 0.000849105 0)
(1.2182 0.313259 0)
(0.799127 0.34922 0)
(0.829522 0.441882 0)
(0.818123 0.480143 0)
(0.792526 0.495696 0)
(0.755191 0.491099 0)
(0.693119 0.421994 0)
(0.57861 0.284828 0)
(0.506575 0.291949 0)
(0.476378 0.330048 0)
(0.523198 0.570691 0)
(0.506147 0.655299 0)
(0.473843 0.737719 0)
(0.405848 0.74146 0)
(0.270391 0.527416 0)
(0.250711 0.588257 0)
(0.183115 0.96285 0)
(0.119696 1.16309 0)
(3 -4.8571e-17 0)
(3 1.25735e-16 0)
(3 4.50139e-16 0)
(3 3.19616e-16 0)
(3 3.99302e-16 0)
(3 2.63301e-16 0)
(3 3.64316e-16 0)
(3 4.70041e-16 0)
(3 3.24528e-16 0)
(3 -3.09275e-16 0)
(3 6.97876e-16 0)
(3 4.04331e-16 0)
(3 -1.63061e-18 0)
(3 1.94978e-16 0)
(3 -4.59579e-16 0)
(3 2.12231e-16 0)