/*--------------------------------*- C++ -*----------------------------------*\
  =========                 |
  \\      /  F ield         | OpenFOAM: The Open Source CFD Toolbox
   \\    /   O peration     | Website:  https://openfoam.org
    \\  /    A nd           | Version:  6.0
     \\/     M anipulation  |
\*---------------------------------------------------------------------------*/
FoamFile
{
    version     2.0;
    format      ascii;
    class       volScalarField;
    location    "0.499462";
    object      p;
}
// * * * * * * * * * * * * * * * * * * * * * * * * * * * * * * * * * * * * * //

dimensions      [1 -1 -2 0 0 0 0];

internalField   nonuniform List<scalar> 
4800
(
1
1
1
1
1
1
1
1
1
1
1
1
1
1
1
1
1
1
1
1
1
1
1
1
1
3.17841
10.2107
11.3031
11.5516
11.7982
11.8053
11.7149
11.7056
11.8124
12.0101
12.3759
12.8137
12.6439
12.1924
12.0066
1
1
1
1
1
1
1
1
1
1
1
1
1
1
1
1
1
1
1
1
1
1
1
1
1
3.17323
10.1962
11.3099
11.5432
11.7703
11.7799
11.7527
11.8017
11.9734
12.205
12.4795
12.5751
12.643
12.7451
12.769
1
1
1
1
1
1
1
1
1
1
1
1
1
1
1
1
1
1
1
1
1
1
1
1
1
3.15697
10.1801
11.3113
11.5296
11.7426
11.7575
11.7912
11.8955
12.1016
12.4167
12.4345
12.3369
12.7413
13.1168
13.192
1
1
1
1
1
1
1
1
1
1
1
1
1
1
1
1
1
1
1
1
1
1
1
1
1
3.12643
10.1588
11.3125
11.5142
11.7266
11.7615
11.8471
11.9486
12.0929
12.4063
12.5326
12.4484
12.6207
12.6764
12.5672
1
1
1
1
1
1
1
1
1
1
1
1
1
1
1
1
1
1
1
1
1
1
1
1
1
3.0839
10.1278
11.3055
11.5035
11.7316
11.8015
11.871
11.9457
11.98
12.175
12.5739
12.5737
12.2866
12.0664
11.951
1
1
1
1
1
1
1
1
1
1
1
1
1
1
1
1
1
1
1
1
1
1
1
1
1
3.03164
10.0802
11.2896
11.5038
11.7617
11.8496
11.8725
11.8976
11.8523
11.9072
12.4123
12.7872
12.5202
12.204
11.9237
1
1
1
1
1
1
1
1
1
1
1
1
1
1
1
1
1
1
1
1
1
1
1
1
1
2.96758
10.0159
11.2766
11.5048
11.7928
11.8684
11.8507
11.8589
11.8506
11.8047
12.1182
12.6743
12.823
12.6627
12.5297
1
1
1
1
1
1
1
1
1
1
1
1
1
1
1
1
1
1
1
1
1
1
1
1
1
2.89414
9.93354
11.2757
11.5041
11.8019
11.8505
11.8006
11.8115
11.9361
11.9388
11.9407
12.3376
12.7364
12.6902
12.7297
1
1
1
1
1
1
1
1
1
1
1
1
1
1
1
1
1
1
1
1
1
1
1
1
1
2.8167
9.83981
11.2796
11.5
11.7925
11.8236
11.7484
11.752
11.9821
12.168
11.9852
11.9049
12.2897
12.6639
12.8271
1
1
1
1
1
1
1
1
1
1
1
1
1
1
1
1
1
1
1
1
1
1
1
1
1
2.73611
9.7379
11.2782
11.4785
11.7672
11.812
11.7502
11.7157
11.9112
12.3394
12.1486
11.9333
12.1969
12.7699
12.9372
1
1
1
1
1
1
1
1
1
1
1
1
1
1
1
1
1
1
1
1
1
1
1
1
1
2.64893
9.62066
11.2531
11.442
11.7395
11.8228
11.8111
11.7296
11.7588
12.2471
12.6177
12.4043
12.4092
12.4634
12.5894
1
1
1
1
1
1
1
1
1
1
1
1
1
1
1
1
1
1
1
1
1
1
1
1
1
2.54913
9.47754
11.1963
11.403
11.7323
11.8462
11.8512
11.7805
11.6733
12.0182
12.8601
13.1529
12.3577
11.7609
11.5546
1
1
1
1
1
1
1
1
1
1
1
1
1
1
1
1
1
1
1
1
1
1
1
1
1
2.43869
9.31437
11.1452
11.3828
11.7373
11.8504
11.8438
11.8136
11.7008
11.8453
12.6318
13.3434
13.3764
12.7728
12.6326
1
1
1
1
1
1
1
1
1
1
1
1
1
1
1
1
1
1
1
1
1
1
1
1
1
2.32421
9.14893
11.131
11.3983
11.7353
11.8223
11.7872
11.748
11.7825
11.9122
12.2704
12.84
13.3204
13.5649
13.7769
1
1
1
1
1
1
1
1
1
1
1
1
1
1
1
1
1
1
1
1
1
1
1
1
1
2.205
8.98933
11.1349
11.351
11.704
11.73
11.7016
11.6586
11.797
12.0633
12.1189
12.2861
13.022
13.7959
14.0658
1
1
1
1
1
1
1
1
1
1
1
1
1
1
1
1
1
1
1
1
1
1
1
1
1
2.07166
8.81209
11.1246
11.256
11.6191
11.6456
11.6129
11.5947
11.7628
12.2005
12.1471
11.7969
11.7898
11.9171
11.8692
1
1
1
1
1
1
1
1
1
1
1
1
1
1
1
1
1
1
1
1
1
1
1
1
1
1.92009
8.61496
11.1131
11.1516
11.5186
11.6196
11.6756
11.7149
11.8407
12.0693
12.0611
11.7439
11.4488
11.1326
10.9395
1
1
1
1
1
1
1
1
1
1
1
1
1
1
1
1
1
1
1
1
1
1
1
1
1
1.75491
8.38431
11.1166
11.0786
11.4391
11.729
12.0261
12.1247
11.8475
11.739
11.921
11.6707
11.1895
10.6863
10.3577
1
1
1
1
1
1
1
1
1
1
1
1
1
1
1
1
1
1
1
1
1
1
1
1
1
1.58414
8.11561
11.1261
11.0402
11.4219
11.9725
12.1751
12.1375
11.775
11.4038
11.6944
11.9027
11.3146
10.7463
10.3609
1
1
1
1
1
1
1
1
1
1
1
1
1
1
1
1
1
1
1
1
1
1
1
1
1
1.42282
7.81041
11.1313
11.0778
11.4286
11.8991
12.1132
11.9664
11.6847
11.4607
11.8899
12.8845
13.04
11.9074
11.553
1
1
1
1
1
1
1
1
1
1
1
1
1
1
1
1
1
1
1
1
1
1
1
1
1
1.27135
7.49456
11.1226
11.1881
11.4046
11.6813
11.7931
11.7753
11.7438
12.0182
12.4586
12.981
13.6501
14.3654
14.7184
1
1
1
1
1
1
1
1
1
1
1
1
1
1
1
1
1
1
1
1
1
1
1
1
1
1.12517
7.17342
11.1101
11.254
11.3613
11.4103
11.4403
11.7099
12.0438
12.1971
12.3493
12.7941
13.6809
14.4832
15.1168
1
1
1
1
1
1
1
1
1
1
1
1
1
1
1
1
1
1
1
1
1
1
1
1
1
1.01309
6.76891
11.0351
11.3008
11.3372
11.2265
11.2606
11.769
12.0881
12.0402
12.0892
12.3561
12.7946
13.7247
14.2971
1
1
1
1
1
1
1
1
1
1
1
1
1
1
1
1
1
1
1
1
1
1
1
1
1
1.0002
6.32623
10.8929
11.1835
11.3839
11.2497
11.2572
11.6426
11.9418
11.8582
11.4613
11.3973
11.4295
11.2578
11.0682
1
1
1
1
1
1
1
1
1
1
1
1
1
1
1
1
1
1
1
1
1
1
1
1
1
1
5.93339
10.7532
10.9833
11.3871
11.5501
11.437
11.4691
11.7664
11.6376
11.2129
11.0367
11.1625
10.9411
10.6825
1
1
1
1
1
1
1
1
1
1
1
1
1
1
1
1
1
1
1
1
1
1
1
1
1
1
5.56511
10.649
10.8209
11.3087
11.7641
11.7011
11.4409
11.5845
11.3869
11.0566
10.8138
11.0103
11.085
10.9746
1
1
1
1
1
1
1
1
1
1
1
1
1
1
1
1
1
1
1
1
1
1
1
1
1
1
5.15828
10.5587
10.8131
11.2241
11.7446
11.8902
11.4899
11.2911
11.573
11.1405
10.7668
10.8496
11.2121
11.4666
1
1
1
1
1
1
1
1
1
1
1
1
1
1
1
1
1
1
1
1
1
1
1
1
1
1
4.73608
10.4181
11.0503
11.2907
11.6545
11.9425
11.4914
11.094
11.8351
12.0289
10.9845
10.7836
11.1064
11.3777
1
1
1
1
1
1
1
1
1
1
1
1
1
1
1
1
1
1
1
1
1
1
1
1
1
1
4.40035
10.2873
11.215
11.4899
11.6308
11.803
11.5944
11.0566
11.4801
12.5923
12.6151
11.1703
10.9801
10.9856
1
1
1
1
1
1
1
1
1
1
1
1
1
1
1
1
1
1
1
1
1
1
1
1
1
1
4.09492
10.3282
11.1113
11.4659
11.5737
11.5535
11.6467
11.1862
11.0284
12.3251
13.1933
12.5732
10.9296
10.5126
1
1
1
1
1
1
1
1
1
1
1
1
1
1
1
1
1
1
1
1
1
1
1
1
1
1
3.65368
10.1662
10.8478
11.1933
11.4774
11.3213
11.3936
11.226
10.7972
11.3018
12.8984
13.3539
12.1715
10.9017
1
1
1
1
1
1
1
1
1
1
1
1
1
1
1
1
1
1
1
1
1
1
1
1
1
1
3.14935
9.80555
10.6929
10.944
11.3839
11.2694
11.115
11.2829
11.043
10.6119
11.8237
13.0679
13.1067
13.2071
1
1
1
1
1
1
1
1
1
1
1
1
1
1
1
1
1
1
1
1
1
1
1
1
1
1
2.73115
9.5275
10.7193
10.8304
11.3857
11.5274
11.1422
11.3103
11.0641
10.4143
10.2971
12.4246
12.9394
13.1549
1
1
1
1
1
1
1
1
1
1
1
1
1
1
1
1
1
1
1
1
1
1
1
1
1
1
2.40012
9.42517
11.0314
11.1115
11.2425
11.6447
11.6399
11.2486
10.8456
10.3563
10.0585
10.6151
11.4917
11.9072
1
1
1
1
1
1
1
1
1
1
1
1
1
1
1
1
1
1
1
1
1
1
1
1
1
1
2.10821
9.31014
11.1987
11.0587
11.0171
11.5206
11.6123
11.1589
10.6393
10.4435
10.4924
10.0473
9.98091
10.7633
1
1
1
1
1
1
1
1
1
1
1
1
1
1
1
1
1
1
1
1
1
1
1
1
1
1
1.83261
8.90113
11.0846
10.7877
10.7507
10.8868
11.3856
11.2366
10.7494
10.6903
10.4497
9.64122
9.63167
10.3516
1
1
1
1
1
1
1
1
1
1
1
1
1
1
1
1
1
1
1
1
1
1
1
1
1
1
1.48913
8.43525
10.6675
10.4449
10.5782
10.6075
11.0232
11.7729
11.5612
10.7777
9.9445
9.57008
10.8805
11.8974
1
1
1
1
1
1
1
1
1
1
1
1
1
1
1
1
1
1
1
1
1
1
1
1
1
1
1.20143
7.35687
10.2694
10.2481
10.3744
10.5633
11.1808
11.7143
11.5935
10.7671
9.74404
9.7497
10.6518
11.6485
1
1
1
1
1
1
1
1
1
1
1
1
1
1
1
1
1
1
1
1
1
1
1
1
1
1
1.09689
6.76614
10.0199
10.4614
11.0079
11.3082
11.1809
11.1232
11.4812
10.8736
9.65115
9.6958
9.72052
9.57788
1
1
1
1
1
1
1
1
1
1
1
1
1
1
1
1
1
1
1
1
1
1
1
1
1
1
1.04328
6.52322
10.1586
10.8776
11.1853
11.3632
11.0463
10.3983
10.6386
11.2201
10.8012
9.72457
8.45969
7.80373
1
1
1
1
1
1
1
1
1
1
1
1
1
1
1
1
1
1
1
1
1
1
1
1
1
1
1.00458
5.13822
10.1725
10.5959
10.7575
10.8694
10.8791
10.6835
10.2895
10.3876
10.5145
9.81461
8.21141
5.85306
1
1
1
1
1
1
1
1
1
1
1
1
1
1
1
1
1
1
1
1
1
1
1
1
1
1
1.00001
2.45817
9.07288
10.3156
10.3151
10.418
10.5195
10.5794
10.451
9.87507
9.27831
8.76923
7.92671
6.12622
1
1
1
1
1
1
1
1
1
1
1
1
1
1
1
1
1
1
1
1
1
1
1
1
1
1
1
1.09129
6.45199
10.1304
10.0782
10.1532
10.2292
10.1432
9.96383
9.57311
8.98894
8.19193
7.17855
5.94346
1
1
1
1
1
1
1
1
1
1
1
1
1
1
1
1
1
1
1
1
1
1
1
1
1
1
1
1.00042
3.00846
9.07299
9.92834
9.94564
9.96731
9.7593
9.43445
9.11011
8.68527
7.96241
6.91503
5.85307
1
1
1
1
1
1
1
1
1
1
1
1
1
1
1
1
1
1
1
1
1
1
1
1
1
1
1
1
1.16389
6.33868
9.67283
9.66005
9.5802
9.38697
9.14674
8.78354
8.31533
7.66584
6.81439
5.90568
1
1
1
1
1
1
1
1
1
1
1
1
1
1
1
1
1
1
1
1
1
1
1
1
1
1
1
1
1.00143
2.523
8.45893
9.44229
9.16919
9.08622
8.88093
8.56855
8.09866
7.47501
6.74259
5.9793
1
1
1
1
1
1
1
1
1
1
1
1
1
1
1
1
1
1
1
1
1
1
1
1
1
1
1
1
1
1.08914
5.07752
8.93716
8.96665
8.7429
8.55486
8.27184
7.8645
7.3446
6.73092
6.07003
1
1
1
1
1
1
1
1
1
1
1
1
1
1
1
1
1
1
1
1
1
1
1
1
1
1
1
1
1
1.00047
1.61268
6.89259
8.92746
8.60809
8.33716
7.99239
7.61961
7.20124
6.69835
6.13031
1
1
1
1
1
1
1
1
1
1
1
1
1
1
1
1
1
1
1
1
1
1
1
1
1
1
1
1
1
1
1.01599
2.70998
7.87174
8.60022
8.19005
7.84275
7.48438
7.09408
6.63908
6.1529
1
1
1
1
1
1
1
1
1
1
1
1
1
1
1
1
1
1
1
1
1
1
1
1
1
1
1
1
1
1
1.00004
1.10866
4.06917
8.0817
8.19208
7.7803
7.42623
7.04052
6.6127
6.18144
1
1
1
1
1
1
1
1
1
1
1
1
1
1
1
1
1
1
1
1
1
1
1
1
1
1
1
1
1
1
1
1.00078
1.35066
4.94866
7.85033
7.90264
7.47242
7.05007
6.64332
6.26412
1
1
1
1
1
1
1
1
1
1
1
1
1
1
1
1
1
1
1
1
1
1
1
1
1
1
1
1
1
1
1
1
1.00559
1.6417
5.40658
7.57961
7.55423
7.13081
6.72072
6.3722
1
1
1
1
1
1
1
1
1
1
1
1
1
1
1
1
1
1
1
1
1
1
1
1
1
1
1
1
1
1
1
1
1.00001
1.01694
1.90401
5.50453
7.25388
7.25769
6.84749
6.47091
1
1
1
1
1
1
1
1
1
1
1
1
1
1
1
1
1
1
1
1
1
1
1
1
1
1
1
1
1
1
1
1
1
1.00006
1.03197
2.02411
5.32094
6.9107
6.97308
6.62632
1
1
1
1
1
1
1
1
1
1
1
1
1
1
1
1
1
1
1
1
1
1
1
1
1
1
1
1
1
1
1
1
1
1
1.00014
1.04151
1.99604
4.91859
6.55272
6.68952
1
1
1
1
1
1
1
1
1
1
1
1
1
1
1
1
1
1
1
1
1
1
1
1
1
1
1
1
1
1
1
1
1
1
1
1.00022
1.04057
1.83749
4.37375
6.27304
1
1
1
1
1
1
1
1
1
1
1
1
1
1
1
1
1
1
1
1
1
1
1
1
1
1
1
1
1
1
1
1
1
1
1
1
1.00022
1.03115
1.60751
4.1187
1
1
1
1
1
1
1
1
1
1
1
1
1
1
1
1
1
1
1
1
1
1
1
1
1
1
1
1
1
1
1
1
1
1
1
1
1
1.00016
1.01725
1.56164
1
1
1
1
1
1
1
1
1
1
1
1
1
1
1
1
1
1
1
1
1
1
1
1
1
1
1
1
1
1
1
1
1
1
1
1
1
1
1.00007
1.01516
1
1
1
1
1
1
1
1
1
1
1
1
1
1
1
1
1
1
1
1
1
1
1
1
1
1
1
1
1
1
1
1
1
1
1
1
1
1
1
1.00003
1
1
1
1
1
1
1
1
1
1
1
1
1
1
1
1
1
1
1
1
1
1
1
1
1
1
1
1
1
1
1
1
1
1
1
1
1
1
1
1
1
1
1
1
1
1
1
1
1
1
1
1
1
1
1
1
1
1
1
1
1
1
1
1
1
1
1
1
1
1
1
1
1
1
1
1
1
1
1
1
1
1
1
1
1
1
1
1
1
1
1
1
1
1
1
1
1
1
1
1
1
1
1
1
1
1
1
1
1
1
1
1
1
1
1
1
1
1
1
1
1
1
1
1
1
1
1
1
1
1
1
1
1
1
1
1
1
1
1
1
1
1
1
1
1
1
1
1
1
1
1
1
1
1
1
1
1
1
1
1
1
1
1
1
1
1
1
1
1
1
1
1
1
1
1
1
1
1
1
1
1
1
1
1
1
1
1
1
1
1
1
1
1
1
1
1
1
1
1
1
1
1
1
1
1
1
1
1
1
1
1
1
1
1
1
1
1
1
1
1
1
1
1
1
1
1
1
1
1
1
1
1
1
1
1
1
1
1
1
1
1
1
1
1
1
1
1
1
1
1
1
1
1
1
1
1
1
1
1
1
1
1
1
1
1
1
1
1
1
1
1
1
1
1
1
1
1
1
1
1
1
1
1
1
1
1
1
1
1
1
1
1
1
1
1
1
1
1
1
1
1
1
1
1
1
1
1
1
1
1
1
1
1
1
1
1
1
1
1
1
1
1
1
1
1
1
1
1
1
1
1
1
1
1
1
1
1
1
1
1
1
1
1
1
1
1
1
1
1
1
1
1
1
1
1
1
1
1
1
1
1
1
1
1
1
1
1
1
1
1
1
1
1
1
1
1
1
1
1
1
1
1
1
1
1
1
1
1
1
1
1
1
1
1
1
1
1
1
1
1
1
1
1
1
1
1
1
1
1
1
1
1
1
1
1
1
1
1
1
1
1
1
1
1
1
1
1
1
1
1
1
1
1
1
1
1
1
1
1
1
1
1
1
1
1
1
1
1
1
1
1
1
1
1
1
1
1
1
1
1
1
1
1
1
1
1
1
1
1
1
1
1
1
1
1
1
1
1
1
1
1
1
1
1
1
1
1
1
1
1
1
1
1
1
1
1
1
1
1
1
1
1
1
1
1
1
1
1
1
1
1
1
1
1
1
1
1
1
1
1
1
1
1
1
1
1
1
1
1
1
1
1
1
1
1
1
1
1
1
1
1
1
1
1
1
1
1
1
1
1
1
1
1
1
1
1
1
1
1
1
1
1
1
1
1
1
1
1
1
1
1
1
1
1
1
1
1
1
1
1
1
1
1
1
1
1
1
1
1
1
1
1
1
1
1
1
1
1
1
1
1
1
1
1
1
1
1
1
1
1
1
1
1
1
1
1
1
1
1
1
1
1
1
1
1
1
1
1
1
1
1
1
1
1
1
1
1
1
1
1
1
1
1
1
1
1
1
1
1
1
1
1
1
1
1
1
1
1
1
1
1
1
1
1
1
1
1
1
1
1
1
1
1
1
1
1
1
1
1
1
1
1
1
1
1
1
1
1
1
1
1
1
1
1
1
1
1
1
1
1
1
1
1
1
1
1
1
1
1
1
1
1
1
1
1
1
1
1
1
1
1
1
1
1
1
1
1
1
1
1
1
1
1
1
1
1
1
1
1
1
1
1
1
1
1
1
1
1
1
1
1
1
1
1
1
1
1
1
1
1
1
1
1
1
1
1
1
1
1
1
1
1
1
1
1
1
1
1
1
1
1
1
1
1
1
1
1
1
1
1
1
1
1
1
1
1
1
1
1
1
0.699683
0.531666
0.675977
0.875434
0.973218
1.0145
0.982714
0.925313
0.859718
0.836545
0.829382
0.832939
0.850801
0.869351
0.861241
0.854646
0.854615
0.86627
0.89069
0.916765
0.942301
0.973028
1.00178
0.999356
0.97841
0.980008
0.992799
1.01069
1.02661
1.02899
1.02733
1.02454
1.01999
1.01276
1.00485
1.00068
1.00002
1
1
1
2.12593
0.754818
0.723462
0.806447
0.900525
0.950716
0.936214
0.902453
0.857092
0.831271
0.827378
0.833465
0.851595
0.865165
0.857642
0.847798
0.842507
0.854151
0.879142
0.905728
0.930473
0.961008
0.986586
0.985645
0.97113
0.976982
0.991008
1.00895
1.02517
1.02831
1.02692
1.02439
1.02011
1.01293
1.00477
1.00064
1.00002
1
1
1
2.95664
0.996623
0.78871
0.797905
0.88013
0.943165
0.930372
0.900728
0.858442
0.829482
0.826861
0.82885
0.85504
0.869572
0.862853
0.858203
0.856325
0.864784
0.881893
0.904313
0.933102
0.964652
0.993416
0.992381
0.978917
0.983428
0.995433
1.01134
1.02621
1.02917
1.02782
1.02502
1.02022
1.0126
1.0045
1.00057
1.00001
1
1
1
3.51417
1.54179
0.998334
0.779802
0.803774
0.860359
0.881511
0.866611
0.849264
0.834535
0.839541
0.840983
0.860638
0.862323
0.852206
0.847023
0.84638
0.85958
0.882793
0.908801
0.935055
0.965888
0.991231
0.988611
0.97931
0.985418
0.996751
1.01206
1.02611
1.02902
1.02804
1.02552
1.02048
1.01237
1.00415
1.00048
1.00001
1
1
1
3.93091
2.06449
1.2291
0.831633
0.791751
0.824999
0.847765
0.84627
0.837983
0.831193
0.837582
0.84413
0.865562
0.865536
0.851854
0.843767
0.839658
0.850798
0.872933
0.904159
0.938774
0.971611
0.993503
0.987919
0.981174
0.988095
0.998641
1.01326
1.02609
1.02889
1.02833
1.02605
1.02071
1.01203
1.00372
1.00038
1.00001
1
1
1
4.22311
2.50088
1.51066
1.07026
0.854294
0.841315
0.823186
0.827506
0.844152
0.853848
0.852898
0.856466
0.868987
0.861309
0.844981
0.835122
0.836695
0.848232
0.873155
0.906957
0.941001
0.969289
0.98628
0.981979
0.981403
0.989754
1.00041
1.01499
1.02657
1.02896
1.02869
1.02658
1.02076
1.01151
1.00325
1.00028
1
1
1
1
4.50075
2.86002
1.84431
1.28806
0.952525
0.877166
0.827443
0.822524
0.848738
0.87743
0.883529
0.877986
0.876347
0.860962
0.843204
0.834288
0.836695
0.849686
0.874245
0.906058
0.938927
0.971505
0.989682
0.983681
0.984272
0.991453
1.00189
1.01706
1.02778
1.02959
1.02947
1.02723
1.02067
1.01081
1.00276
1.0002
1
1
1
1
4.73821
3.18292
2.14773
1.52175
1.11899
0.968879
0.863788
0.825765
0.843322
0.865192
0.877536
0.878522
0.872806
0.857134
0.839761
0.831975
0.835474
0.850767
0.875195
0.906709
0.945708
0.988788
1.00147
0.987086
0.985174
0.990922
1.00235
1.01927
1.02946
1.03082
1.03076
1.02809
1.0206
1.01006
1.00228
1.00014
1
1
1
1
4.89216
3.47502
2.43052
1.76116
1.28306
1.05001
0.930088
0.833717
0.833275
0.841547
0.849118
0.853045
0.855759
0.851191
0.835572
0.826689
0.830064
0.84736
0.874108
0.907331
0.949511
0.992072
0.995272
0.983676
0.983715
0.990219
1.00366
1.02184
1.03064
1.03176
1.03176
1.0288
1.02051
1.00932
1.00184
1.00009
1
1
1
1
5.01629
3.67091
2.69172
1.99895
1.45946
1.1512
1.01407
0.868738
0.825215
0.823487
0.820371
0.81611
0.831798
0.843518
0.829981
0.818904
0.81908
0.835622
0.862714
0.894722
0.941394
0.982396
0.984853
0.979326
0.982003
0.990386
1.0066
1.02497
1.03181
1.03265
1.03253
1.02923
1.0202
1.00852
1.00145
1.00006
1
1
1
1
5.14824
3.82578
2.90822
2.21509
1.63135
1.27694
1.10434
0.921981
0.819639
0.814068
0.808121
0.802411
0.805662
0.821744
0.821221
0.811467
0.808515
0.820447
0.847659
0.889744
0.94817
0.983099
0.979676
0.977162
0.981353
0.991317
1.01049
1.0288
1.03385
1.03445
1.03407
1.02989
1.01971
1.00761
1.0011
1.00003
1
1
1
1
5.29626
3.96445
3.10065
2.43375
1.79775
1.37962
1.20395
1.0215
0.863094
0.832167
0.804735
0.788154
0.782907
0.796074
0.807842
0.806874
0.806711
0.820814
0.859456
0.918644
0.978256
0.994089
0.984459
0.981129
0.984864
0.994929
1.01466
1.03155
1.03545
1.03614
1.03574
1.03077
1.01932
1.00667
1.00079
1.00002
1
1
1
1
5.46732
4.14604
3.26798
2.61011
1.95793
1.49598
1.30854
1.12506
0.925996
0.869013
0.820356
0.790371
0.777857
0.781145
0.796018
0.803156
0.810897
0.840388
0.896502
0.94414
0.976467
0.994651
0.990405
0.98794
0.991337
1.00067
1.01836
1.03301
1.03635
1.03708
1.03675
1.03155
1.01874
1.00566
1.00053
1.00001
1
1
1
1
5.61984
4.35701
3.43448
2.75734
2.10207
1.60429
1.41955
1.24811
1.00971
0.926183
0.86382
0.814721
0.794958
0.789467
0.798504
0.810944
0.829191
0.859653
0.894687
0.926839
0.95863
0.985532
0.990509
0.991779
0.995913
1.00478
1.02173
1.03581
1.03877
1.03944
1.03876
1.03191
1.01753
1.00456
1.00033
1
1
1
1
1
5.79618
4.59134
3.58226
2.87688
2.2681
1.7506
1.53538
1.36
1.103
0.989852
0.922377
0.845387
0.817248
0.802915
0.805626
0.816318
0.83005
0.845148
0.863541
0.901352
0.940192
0.969034
0.986116
0.991265
0.997004
1.00683
1.02426
1.03851
1.04139
1.04229
1.04124
1.03279
1.01626
1.00347
1.00018
1
1
1
1
1
5.92418
4.816
3.71943
2.98645
2.42132
1.89912
1.65319
1.47934
1.21769
1.05904
0.98616
0.886973
0.847329
0.825872
0.817675
0.819556
0.821172
0.82225
0.832002
0.866239
0.906206
0.941084
0.972287
0.987766
0.996374
1.00852
1.02736
1.0411
1.0437
1.04467
1.04335
1.03279
1.01446
1.00244
1.00009
1
1
1
1
1
5.81774
5.01935
3.82712
3.0973
2.59496
2.06118
1.75051
1.57577
1.32751
1.13518
1.06381
0.951055
0.882912
0.850787
0.832878
0.824376
0.812179
0.810339
0.829672
0.85051
0.878836
0.911804
0.951787
0.978604
0.992571
1.00975
1.03394
1.04743
1.04956
1.05013
1.04636
1.03165
1.01198
1.00157
1.00004
1
1
1
1
1
5.2824
4.85375
3.98543
3.23957
2.74899
2.23122
1.87131
1.68363
1.43582
1.19394
1.12417
1.0239
0.93129
0.892269
0.867008
0.844048
0.821086
0.820645
0.837994
0.852531
0.871824
0.895908
0.930956
0.96536
0.988794
1.01106
1.03785
1.05093
1.0533
1.05413
1.04892
1.03055
1.00945
1.00087
1.00001
1
1
1
1
1
4.18877
4.74673
4.21189
3.4557
2.91829
2.38885
1.97737
1.78501
1.55132
1.28152
1.19445
1.09806
0.979035
0.93028
0.896924
0.869649
0.851627
0.853252
0.857838
0.859535
0.873188
0.894096
0.925124
0.95918
0.98943
1.01888
1.04672
1.05501
1.0565
1.05676
1.04982
1.02845
1.00683
1.00039
1
1
1
1
1
1
2.78841
4.72029
4.37519
3.65674
3.07694
2.56358
2.10483
1.87961
1.65172
1.37211
1.2707
1.18237
1.04898
0.98374
0.940047
0.90817
0.896869
0.899332
0.89644
0.88826
0.889546
0.899369
0.922437
0.955137
0.985902
1.02111
1.05564
1.06531
1.06652
1.06523
1.05305
1.02449
1.00391
1.00011
1
1
1
1
1
1
1.56676
4.21294
4.41188
3.85613
3.2369
2.73992
2.23519
1.97133
1.76019
1.47057
1.34708
1.26195
1.12686
1.04031
0.992501
0.965055
0.953079
0.948628
0.940336
0.929606
0.921334
0.925184
0.93804
0.96474
0.995128
1.026
1.05965
1.07423
1.07686
1.07541
1.0537
1.01772
1.0015
1.00002
1
1
1
1
1
1
1.06388
3.35083
4.35121
4.0249
3.42073
2.89463
2.37154
2.05919
1.86739
1.58186
1.4346
1.346
1.20811
1.10873
1.06762
1.03479
1.00828
0.992766
0.98497
0.973471
0.95693
0.94982
0.955883
0.97675
1.00951
1.04756
1.08358
1.095
1.09654
1.08743
1.04704
1.00893
1.0003
1
1
1
1
1
1
1
1.00177
2.19119
4.03148
4.0976
3.60846
3.05226
2.5345
2.15842
1.97302
1.70194
1.51986
1.43318
1.29539
1.18824
1.1493
1.11205
1.07465
1.05332
1.03824
1.02177
0.996796
0.973461
0.974489
0.986891
1.01524
1.06647
1.11239
1.12176
1.12094
1.08809
1.03023
1.00248
1.00002
1
1
1
1
1
1
1
1.00001
1.31661
3.30379
3.97973
3.75606
3.23754
2.69288
2.28246
2.07184
1.83679
1.60999
1.5129
1.38464
1.28101
1.2366
1.19139
1.14124
1.11131
1.0921
1.07051
1.04066
1.02058
1.02347
1.03743
1.06934
1.12225
1.15373
1.15725
1.13672
1.06996
1.01147
1.00028
1
1
1
1
1
1
1
1
1
1.03134
2.20609
3.69282
3.79667
3.4459
2.89711
2.44644
2.16711
1.94702
1.70588
1.59581
1.47906
1.3717
1.32325
1.2758
1.21849
1.17476
1.14451
1.11242
1.07554
1.06283
1.06794
1.08694
1.13162
1.18557
1.20047
1.19132
1.12603
1.03489
1.00188
1.00001
1
1
1
1
1
1
1
1
1
1.00096
1.31762
2.97019
3.69635
3.59926
3.15046
2.65303
2.30923
2.0518
1.81183
1.67831
1.57683
1.46624
1.40758
1.35452
1.29315
1.24172
1.20219
1.16161
1.1299
1.12734
1.13654
1.16486
1.21854
1.25216
1.2511
1.19315
1.07888
1.00809
1.00009
1
1
1
1
1
1
1
1
1
1
1.00001
1.03129
1.94731
3.35158
3.53454
3.36387
2.91106
2.49547
2.17837
1.93561
1.77044
1.67119
1.56019
1.49413
1.43414
1.36446
1.30668
1.25807
1.21148
1.19206
1.19468
1.21218
1.25832
1.30945
1.31694
1.26882
1.14366
1.02466
1.00059
1
1
1
1
1
1
1
1
1
1
1
1
1.00092
1.20914
2.55221
3.41623
3.34646
3.14712
2.73029
2.35104
2.07226
1.88908
1.77305
1.65881
1.57708
1.51475
1.44106
1.37512
1.3162
1.27447
1.26813
1.27713
1.31292
1.37219
1.39202
1.35136
1.22409
1.05722
1.00254
1.00001
1
1
1
1
1
1
1
1
1
1
1
1
1.00001
1.01512
1.56315
2.87255
3.27429
3.16239
2.94079
2.58942
2.27411
2.04973
1.89587
1.77344
1.66999
1.59984
1.5208
1.44643
1.38312
1.35865
1.36146
1.38878
1.44709
1.47663
1.43796
1.31167
1.10711
1.00782
1.00005
1
1
1
1
1
1
1
1
1
1
1
1
1
1
1.00026
1.07409
1.88816
2.94492
3.10909
3.00215
2.84561
2.56299
2.28824
2.07783
1.91642
1.78893
1.70389
1.61673
1.52944
1.47969
1.47538
1.49559
1.5452
1.5686
1.52333
1.39857
1.16888
1.01811
1.00021
1
1
1
1
1
1
1
1
1
1
1
1
1
1
1
1
1.00242
1.16773
2.06242
2.85312
2.97638
2.90634
2.80124
2.58486
2.34389
2.13082
1.96659
1.85303
1.75482
1.66085
1.63579
1.64407
1.66809
1.66234
1.60103
1.47754
1.23093
1.03255
1.00056
1
1
1
1
1
1
1
1
1
1
1
1
1
1
1
1
1
1.00001
1.00796
1.23682
2.08028
2.76324
2.87676
2.81637
2.72899
2.58363
2.39333
2.21576
2.07656
1.96119
1.87131
1.83243
1.79832
1.74463
1.66995
1.54098
1.27818
1.04619
1.00106
1
1
1
1
1
1
1
1
1
1
1
1
1
1
1
1
1
1
1
1.00006
1.01345
1.26113
2.00629
2.60313
2.75093
2.72265
2.62426
2.49263
2.35767
2.23073
2.11054
2.00154
1.90696
1.82042
1.7309
1.5778
1.29453
1.05151
1.00137
1
1
1
1
1
1
1
1
1
1
1
1
1
1
1
1
1
1
1
1
1
1.00013
1.01493
1.21184
1.77832
2.3189
2.5517
2.55527
2.47374
2.35926
2.23908
2.11938
2.0036
1.89188
1.76532
1.56614
1.26515
1.04379
1.00119
1
1
1
1
1
1
1
1
1
1
1
1
1
1
1
1
1
1
1
1
1
1
1
1.00012
1.00874
1.11032
1.4382
1.85304
2.12662
2.20893
2.18379
2.10767
1.99682
1.86276
1.6924
1.45663
1.1833
1.02617
1.00066
1
1
1
1
1
1
1
1
1
1
1
1
1
1
1
1
1
1
1
1
1
1
1
1
1
1.00004
1.00232
1.02939
1.13455
1.31803
1.49556
1.57429
1.56012
1.49969
1.38549
1.22718
1.07724
1.00931
1.00021
1
1
1
1
1
1
1
1
1
1
1
1
1
1
1
1
1
1
1
1
1
1
1
1
1
1
1
1
1.00021
1.00275
1.01471
1.04197
1.06678
1.0693
1.06019
1.03726
1.01248
1.00143
1.00003
1
1
1
1
1
1
1
1
1
1
1
1
1
1
1
1
1
1
1
1
1
1
1
1
1
1
1
1
1
1
1
1.00006
1.00034
1.00079
1.00089
1.00073
1.00033
1.00005
1
1
1
1
1
1
1
1
1
1
1
1
1
1
1
1
1
1
1
1
1
1
1
1
1
1
1
1
1
1
1
1
1
1
1
1
1
1
1
1
1
1
1
1
1
1
1
1
1
1
1
1
1
1
1
1
1
1
1
1
1
1
1
1
1
1
1
1
1
1
1
1
1
1
1
1
1
1
1
1
1
1
1
1
1
1
1
1
1
1
1
1
1
1
1
1
1
1
1
1
1
)
;

boundaryField
{
    inlet
    {
        type            fixedValue;
        value           uniform 1;
    }
    outlet
    {
        type            zeroGradient;
    }
    top
    {
        type            symmetryPlane;
    }
    bottom
    {
        type            symmetryPlane;
    }
    step
    {
        type            zeroGradient;
    }
    defaultFaces
    {
        type            empty;
    }
}


// ************************************************************************* //
