/*--------------------------------*- C++ -*----------------------------------*\
  =========                 |
  \\      /  F ield         | OpenFOAM: The Open Source CFD Toolbox
   \\    /   O peration     | Website:  https://openfoam.org
    \\  /    A nd           | Version:  6.0
     \\/     M anipulation  |
\*---------------------------------------------------------------------------*/
FoamFile
{
    version     2.0;
    format      ascii;
    class       volScalarField;
    location    "0.499462";
    object      T;
}
// * * * * * * * * * * * * * * * * * * * * * * * * * * * * * * * * * * * * * //

dimensions      [0 0 0 1 0 0 0];

internalField   nonuniform List<scalar> 
4800
(
1
1
1
1
1
1
1
1
1
1
1
1
1
1
1
1
1
1
1
1
1
1
1
1
1
1.80137
2.76231
2.82462
2.85628
2.89198
2.90702
2.90633
2.91133
2.93605
2.99405
3.11204
3.28663
3.42058
3.47981
3.4962
1
1
1
1
1
1
1
1
1
1
1
1
1
1
1
1
1
1
1
1
1
1
1
1
1
1.8019
2.76193
2.82548
2.85626
2.8904
2.90521
2.90911
2.91844
2.94762
3.00873
3.12031
3.26866
3.42016
3.52376
3.55727
1
1
1
1
1
1
1
1
1
1
1
1
1
1
1
1
1
1
1
1
1
1
1
1
1
1.79976
2.76145
2.82609
2.8564
2.88936
2.90375
2.91187
2.92544
2.95722
3.02435
3.11896
3.25114
3.42744
3.55178
3.58937
1
1
1
1
1
1
1
1
1
1
1
1
1
1
1
1
1
1
1
1
1
1
1
1
1
1.79248
2.75906
2.82644
2.85614
2.88884
2.90415
2.91567
2.9292
2.95717
3.02467
3.12739
3.26099
3.4188
3.51691
3.5387
1
1
1
1
1
1
1
1
1
1
1
1
1
1
1
1
1
1
1
1
1
1
1
1
1
1.78123
2.75403
2.82594
2.8557
2.88951
2.90705
2.91705
2.92887
2.94979
3.00944
3.13196
3.27244
3.39301
3.46728
3.48755
1
1
1
1
1
1
1
1
1
1
1
1
1
1
1
1
1
1
1
1
1
1
1
1
1
1.76743
2.74666
2.82419
2.85563
2.89176
2.91026
2.91688
2.92548
2.94127
2.99118
3.12148
3.28995
3.41155
3.47804
3.48476
1
1
1
1
1
1
1
1
1
1
1
1
1
1
1
1
1
1
1
1
1
1
1
1
1
1.75038
2.73788
2.82219
2.85534
2.89389
2.91141
2.91488
2.92264
2.94119
2.98444
3.10072
3.28179
3.43606
3.51541
3.53427
1
1
1
1
1
1
1
1
1
1
1
1
1
1
1
1
1
1
1
1
1
1
1
1
1
1.73144
2.7283
2.82089
2.85492
2.89444
2.90989
2.91106
2.9192
2.94723
2.99483
3.08821
3.25679
3.42964
3.51703
3.54939
1
1
1
1
1
1
1
1
1
1
1
1
1
1
1
1
1
1
1
1
1
1
1
1
1
1.7118
2.71851
2.82006
2.85438
2.89375
2.90754
2.90716
2.91492
2.95077
3.01172
3.09134
3.22395
3.394
3.51393
3.5564
1
1
1
1
1
1
1
1
1
1
1
1
1
1
1
1
1
1
1
1
1
1
1
1
1
1.69093
2.70811
2.81911
2.85289
2.89205
2.9064
2.9072
2.91229
2.94515
3.02318
3.10392
3.22501
3.38481
3.52131
3.56504
1
1
1
1
1
1
1
1
1
1
1
1
1
1
1
1
1
1
1
1
1
1
1
1
1
1.6671
2.69568
2.81673
2.85036
2.89012
2.90704
2.91111
2.91306
2.93381
3.01562
3.13683
3.25799
3.40135
3.49605
3.53588
1
1
1
1
1
1
1
1
1
1
1
1
1
1
1
1
1
1
1
1
1
1
1
1
1
1.63862
2.67979
2.81211
2.84749
2.88982
2.90873
2.91368
2.91626
2.92706
2.99659
3.1521
3.3154
3.39325
3.43446
3.44711
1
1
1
1
1
1
1
1
1
1
1
1
1
1
1
1
1
1
1
1
1
1
1
1
1
1.60612
2.66079
2.80699
2.84582
2.89056
2.90934
2.91297
2.91811
2.92841
2.98304
3.13216
3.32579
3.47142
3.51628
3.53426
1
1
1
1
1
1
1
1
1
1
1
1
1
1
1
1
1
1
1
1
1
1
1
1
1
1.57119
2.63992
2.80384
2.84651
2.89082
2.90761
2.90904
2.91322
2.93335
2.98697
3.10285
3.28265
3.46314
3.57501
3.62066
1
1
1
1
1
1
1
1
1
1
1
1
1
1
1
1
1
1
1
1
1
1
1
1
1
1.53239
2.61726
2.80175
2.84254
2.88934
2.90148
2.90291
2.90665
2.93388
2.99628
3.08848
3.23584
3.4335
3.58699
3.63849
1
1
1
1
1
1
1
1
1
1
1
1
1
1
1
1
1
1
1
1
1
1
1
1
1
1.48648
2.59042
2.79871
2.83517
2.88387
2.89572
2.89601
2.90158
2.93086
3.00434
3.08685
3.19489
3.33568
3.44078
3.46775
1
1
1
1
1
1
1
1
1
1
1
1
1
1
1
1
1
1
1
1
1
1
1
1
1
1.43022
2.55865
2.79535
2.82811
2.87803
2.89431
2.89991
2.90901
2.93529
2.9933
3.07779
3.18836
3.30305
3.36955
3.38459
1
1
1
1
1
1
1
1
1
1
1
1
1
1
1
1
1
1
1
1
1
1
1
1
1
1.36399
2.52114
2.7933
2.82423
2.87409
2.90252
2.92398
2.93732
2.93536
2.96768
3.06282
3.17714
3.27629
3.32656
3.32937
1
1
1
1
1
1
1
1
1
1
1
1
1
1
1
1
1
1
1
1
1
1
1
1
1
1.2898
2.47863
2.79263
2.82443
2.87463
2.91968
2.93321
2.93635
2.92945
2.94125
3.04227
3.18947
3.27724
3.32803
3.32815
1
1
1
1
1
1
1
1
1
1
1
1
1
1
1
1
1
1
1
1
1
1
1
1
1
1.21454
2.43411
2.79415
2.8321
2.8768
2.91357
2.92753
2.92236
2.92073
2.94173
3.05233
3.25647
3.41497
3.42582
3.42693
1
1
1
1
1
1
1
1
1
1
1
1
1
1
1
1
1
1
1
1
1
1
1
1
1
1.13882
2.39324
2.79922
2.84499
2.87558
2.89623
2.90358
2.90763
2.92297
2.97933
3.08902
3.25687
3.45495
3.61573
3.68084
1
1
1
1
1
1
1
1
1
1
1
1
1
1
1
1
1
1
1
1
1
1
1
1
1
1.06359
2.36192
2.80732
2.8531
2.87182
2.87403
2.87619
2.90196
2.94264
2.99014
3.0783
3.23485
3.44834
3.61806
3.70186
1
1
1
1
1
1
1
1
1
1
1
1
1
1
1
1
1
1
1
1
1
1
1
1
1
1.00503
2.32799
2.81197
2.85754
2.86699
2.85791
2.86125
2.90494
2.94437
2.97591
3.05483
3.19875
3.37577
3.55553
3.63671
1
1
1
1
1
1
1
1
1
1
1
1
1
1
1
1
1
1
1
1
1
1
1
1
1
1.00006
2.28781
2.81158
2.84913
2.8666
2.85616
2.85893
2.89387
2.93146
2.96072
3.00746
3.12346
3.26582
3.35811
3.3832
1
1
1
1
1
1
1
1
1
1
1
1
1
1
1
1
1
1
1
1
1
1
1
1
1
1
2.24653
2.80946
2.83235
2.86164
2.87188
2.86813
2.8792
2.91688
2.94282
2.98659
3.08959
3.23778
3.32637
3.34577
1
1
1
1
1
1
1
1
1
1
1
1
1
1
1
1
1
1
1
1
1
1
1
1
1
1
2.20312
2.80745
2.81789
2.84959
2.88196
2.88272
2.87403
2.90329
2.92276
2.97281
3.06762
3.2176
3.33549
3.36974
1
1
1
1
1
1
1
1
1
1
1
1
1
1
1
1
1
1
1
1
1
1
1
1
1
1
2.14959
2.80337
2.81303
2.83794
2.87662
2.89215
2.87621
2.88084
2.93397
2.97603
3.06025
3.19754
3.33945
3.40852
1
1
1
1
1
1
1
1
1
1
1
1
1
1
1
1
1
1
1
1
1
1
1
1
1
1
2.08683
2.79001
2.82403
2.83642
2.86398
2.89281
2.87338
2.86355
2.95155
3.0407
3.06834
3.18582
3.32201
3.39602
1
1
1
1
1
1
1
1
1
1
1
1
1
1
1
1
1
1
1
1
1
1
1
1
1
1
2.0333
2.77179
2.82835
2.84336
2.85602
2.87841
2.87864
2.85919
2.92163
3.07722
3.19574
3.20261
3.30901
3.35795
1
1
1
1
1
1
1
1
1
1
1
1
1
1
1
1
1
1
1
1
1
1
1
1
1
1
1.97473
2.75983
2.80775
2.83351
2.8454
2.85672
2.88083
2.86848
2.89043
3.04118
3.22862
3.3205
3.29309
3.31251
1
1
1
1
1
1
1
1
1
1
1
1
1
1
1
1
1
1
1
1
1
1
1
1
1
1
1.8762
2.72205
2.77514
2.80335
2.83225
2.83706
2.86204
2.87076
2.87158
2.96512
3.18475
3.37128
3.39774
3.34391
1
1
1
1
1
1
1
1
1
1
1
1
1
1
1
1
1
1
1
1
1
1
1
1
1
1
1.75407
2.6679
2.75469
2.77867
2.8204
2.83267
2.84172
2.87339
2.88987
2.91185
3.09229
3.33196
3.46587
3.52909
1
1
1
1
1
1
1
1
1
1
1
1
1
1
1
1
1
1
1
1
1
1
1
1
1
1
1.64712
2.62673
2.7496
2.766
2.81586
2.84753
2.84348
2.87658
2.88927
2.89252
2.97582
3.26023
3.43789
3.5181
1
1
1
1
1
1
1
1
1
1
1
1
1
1
1
1
1
1
1
1
1
1
1
1
1
1
1.55494
2.60301
2.76508
2.78038
2.8017
2.85482
2.88126
2.87284
2.8711
2.88257
2.95018
3.11524
3.30749
3.40934
1
1
1
1
1
1
1
1
1
1
1
1
1
1
1
1
1
1
1
1
1
1
1
1
1
1
1.46658
2.57909
2.77381
2.77481
2.78742
2.84681
2.87942
2.86734
2.85286
2.88556
2.9788
3.05806
3.17406
3.3063
1
1
1
1
1
1
1
1
1
1
1
1
1
1
1
1
1
1
1
1
1
1
1
1
1
1
1.36868
2.5349
2.76177
2.75649
2.77314
2.8045
2.86366
2.87391
2.85841
2.90167
2.97012
3.01217
3.13334
3.26264
1
1
1
1
1
1
1
1
1
1
1
1
1
1
1
1
1
1
1
1
1
1
1
1
1
1
1.23761
2.48319
2.73172
2.73904
2.7669
2.78737
2.83595
2.91002
2.91703
2.90651
2.91836
2.99422
3.23469
3.38227
1
1
1
1
1
1
1
1
1
1
1
1
1
1
1
1
1
1
1
1
1
1
1
1
1
1
1.10033
2.38017
2.71013
2.73134
2.7563
2.78611
2.8461
2.90285
2.91605
2.89976
2.89261
2.99639
3.2033
3.33733
1
1
1
1
1
1
1
1
1
1
1
1
1
1
1
1
1
1
1
1
1
1
1
1
1
1
1.04222
2.32374
2.70702
2.7565
2.81005
2.84215
2.84263
2.85074
2.89791
2.90113
2.87051
2.97864
3.09789
3.14049
1
1
1
1
1
1
1
1
1
1
1
1
1
1
1
1
1
1
1
1
1
1
1
1
1
1
1.01482
2.32084
2.73965
2.80172
2.82403
2.84182
2.82472
2.78481
2.82581
2.92032
2.95722
2.96556
2.96786
2.99654
1
1
1
1
1
1
1
1
1
1
1
1
1
1
1
1
1
1
1
1
1
1
1
1
1
1
1.00159
2.15743
2.76599
2.77635
2.77709
2.78076
2.78969
2.79278
2.78416
2.82932
2.90542
2.94488
2.9191
2.86105
1
1
1
1
1
1
1
1
1
1
1
1
1
1
1
1
1
1
1
1
1
1
1
1
1
1
1
1.58169
2.6167
2.71854
2.71236
2.71977
2.73945
2.76745
2.78278
2.76584
2.76174
2.78871
2.82715
2.79736
1
1
1
1
1
1
1
1
1
1
1
1
1
1
1
1
1
1
1
1
1
1
1
1
1
1
1
1.04123
2.28642
2.67089
2.67523
2.69043
2.71072
2.71977
2.72973
2.72387
2.70665
2.67732
2.64914
2.63214
1
1
1
1
1
1
1
1
1
1
1
1
1
1
1
1
1
1
1
1
1
1
1
1
1
1
1
1.00016
1.68978
2.53239
2.65358
2.6679
2.68391
2.68307
2.67635
2.66835
2.65367
2.61627
2.55122
2.49973
1
1
1
1
1
1
1
1
1
1
1
1
1
1
1
1
1
1
1
1
1
1
1
1
1
1
1
1
1.07168
2.23449
2.61914
2.63628
2.64548
2.64534
2.63846
2.62185
2.59726
2.55629
2.49396
2.42755
1
1
1
1
1
1
1
1
1
1
1
1
1
1
1
1
1
1
1
1
1
1
1
1
1
1
1
1
1.00055
1.55802
2.45794
2.60152
2.59051
2.59902
2.59438
2.58075
2.55238
2.50813
2.45114
2.38894
1
1
1
1
1
1
1
1
1
1
1
1
1
1
1
1
1
1
1
1
1
1
1
1
1
1
1
1
1
1.03947
2.05245
2.52016
2.55127
2.54425
2.5391
2.52599
2.50207
2.46664
2.42009
2.36593
1
1
1
1
1
1
1
1
1
1
1
1
1
1
1
1
1
1
1
1
1
1
1
1
1
1
1
1
1
1.00018
1.25576
2.25236
2.5149
2.49736
2.48555
2.46911
2.45004
2.42446
2.38826
2.34337
1
1
1
1
1
1
1
1
1
1
1
1
1
1
1
1
1
1
1
1
1
1
1
1
1
1
1
1
1
1
1.00669
1.58164
2.34228
2.46489
2.4381
2.42356
2.40736
2.38502
2.35357
2.31773
1
1
1
1
1
1
1
1
1
1
1
1
1
1
1
1
1
1
1
1
1
1
1
1
1
1
1
1
1
1
1.00001
1.04714
1.84674
2.35994
2.41598
2.38963
2.37116
2.35017
2.32274
2.29305
1
1
1
1
1
1
1
1
1
1
1
1
1
1
1
1
1
1
1
1
1
1
1
1
1
1
1
1
1
1
1
1.00028
1.1496
1.96767
2.3375
2.3712
2.34424
2.31912
2.29394
2.27041
1
1
1
1
1
1
1
1
1
1
1
1
1
1
1
1
1
1
1
1
1
1
1
1
1
1
1
1
1
1
1
1
1.00223
1.25785
2.01896
2.2938
2.31925
2.29357
2.26719
2.24669
1
1
1
1
1
1
1
1
1
1
1
1
1
1
1
1
1
1
1
1
1
1
1
1
1
1
1
1
1
1
1
1
1
1.00693
1.34278
2.01629
2.24047
2.27116
2.24579
2.22148
1
1
1
1
1
1
1
1
1
1
1
1
1
1
1
1
1
1
1
1
1
1
1
1
1
1
1
1
1
1
1
1
1
1.00002
1.01326
1.37467
1.97657
2.18443
2.2232
2.20171
1
1
1
1
1
1
1
1
1
1
1
1
1
1
1
1
1
1
1
1
1
1
1
1
1
1
1
1
1
1
1
1
1
1
1.00005
1.01717
1.36146
1.90838
2.12015
2.17441
1
1
1
1
1
1
1
1
1
1
1
1
1
1
1
1
1
1
1
1
1
1
1
1
1
1
1
1
1
1
1
1
1
1
1
1.00007
1.0166
1.31035
1.80643
2.08699
1
1
1
1
1
1
1
1
1
1
1
1
1
1
1
1
1
1
1
1
1
1
1
1
1
1
1
1
1
1
1
1
1
1
1
1
1.00007
1.01247
1.22836
1.78786
1
1
1
1
1
1
1
1
1
1
1
1
1
1
1
1
1
1
1
1
1
1
1
1
1
1
1
1
1
1
1
1
1
1
1
1
1
1.00005
1.00669
1.22083
1
1
1
1
1
1
1
1
1
1
1
1
1
1
1
1
1
1
1
1
1
1
1
1
1
1
1
1
1
1
1
1
1
1
1
1
1
1
1.00002
1.00608
1
1
1
1
1
1
1
1
1
1
1
1
1
1
1
1
1
1
1
1
1
1
1
1
1
1
1
1
1
1
1
1
1
1
1
1
1
1
1
1.00001
1
1
1
1
1
1
1
1
1
1
1
1
1
1
1
1
1
1
1
1
1
1
1
1
1
1
1
1
1
1
1
1
1
1
1
1
1
1
1
1
1
1
1
1
1
1
1
1
1
1
1
1
1
1
1
1
1
1
1
1
1
1
1
1
1
1
1
1
1
1
1
1
1
1
1
1
1
1
1
1
1
1
1
1
1
1
1
1
1
1
1
1
1
1
1
1
1
1
1
1
1
1
1
1
1
1
1
1
1
1
1
1
1
1
1
1
1
1
1
1
1
1
1
1
1
1
1
1
1
1
1
1
1
1
1
1
1
1
1
1
1
1
1
1
1
1
1
1
1
1
1
1
1
1
1
1
1
1
1
1
1
1
1
1
1
1
1
1
1
1
1
1
1
1
1
1
1
1
1
1
1
1
1
1
1
1
1
1
1
1
1
1
1
1
1
1
1
1
1
1
1
1
1
1
1
1
1
1
1
1
1
1
1
1
1
1
1
1
1
1
1
1
1
1
1
1
1
1
1
1
1
1
1
1
1
1
1
1
1
1
1
1
1
1
1
1
1
1
1
1
1
1
1
1
1
1
1
1
1
1
1
1
1
1
1
1
1
1
1
1
1
1
1
1
1
1
1
1
1
1
1
1
1
1
1
1
1
1
1
1
1
1
1
1
1
1
1
1
1
1
1
1
1
1
1
1
1
1
1
1
1
1
1
1
1
1
1
1
1
1
1
1
1
1
1
1
1
1
1
1
1
1
1
1
1
1
1
1
1
1
1
1
1
1
1
1
1
1
1
1
1
1
1
1
1
1
1
1
1
1
1
1
1
1
1
1
1
1
1
1
1
1
1
1
1
1
1
1
1
1
1
1
1
1
1
1
1
1
1
1
1
1
1
1
1
1
1
1
1
1
1
1
1
1
1
1
1
1
1
1
1
1
1
1
1
1
1
1
1
1
1
1
1
1
1
1
1
1
1
1
1
1
1
1
1
1
1
1
1
1
1
1
1
1
1
1
1
1
1
1
1
1
1
1
1
1
1
1
1
1
1
1
1
1
1
1
1
1
1
1
1
1
1
1
1
1
1
1
1
1
1
1
1
1
1
1
1
1
1
1
1
1
1
1
1
1
1
1
1
1
1
1
1
1
1
1
1
1
1
1
1
1
1
1
1
1
1
1
1
1
1
1
1
1
1
1
1
1
1
1
1
1
1
1
1
1
1
1
1
1
1
1
1
1
1
1
1
1
1
1
1
1
1
1
1
1
1
1
1
1
1
1
1
1
1
1
1
1
1
1
1
1
1
1
1
1
1
1
1
1
1
1
1
1
1
1
1
1
1
1
1
1
1
1
1
1
1
1
1
1
1
1
1
1
1
1
1
1
1
1
1
1
1
1
1
1
1
1
1
1
1
1
1
1
1
1
1
1
1
1
1
1
1
1
1
1
1
1
1
1
1
1
1
1
1
1
1
1
1
1
1
1
1
1
1
1
1
1
1
1
1
1
1
1
1
1
1
1
1
1
1
1
1
1
1
1
1
1
1
1
1
1
1
1
1
1
1
1
1
1
1
1
1
1
1
1
1
1
1
1
1
1
1
1
1
1
1
1
1
1
1
1
1
1
1
1
1
1
1
1
1
1
1
1
1
1
1
1
1
1
1
1
1
1
1
1
1
1
1
1
1
1
1
1
1
1
1
1
1
1
1
1
1
1
1
1
1
1
1
1
1
1
1
1
1
1
1
1
1
1
1
1
1
1
1
1
1
1
1
1
1
1
1
1
1
1
1
1
1
1
1
1
1
1
1
1
1
1
1
1
1.93391
1.8205
1.99031
2.24467
2.29241
2.24988
2.16681
2.11048
2.09204
2.08752
2.07057
2.03228
1.98229
1.95904
1.94996
1.95101
1.95032
1.94609
1.91784
1.83552
1.68991
1.49712
1.28652
1.10876
1.01755
0.998048
0.997322
0.99988
1.00538
1.007
1.00691
1.00669
1.00582
1.00384
1.00146
1.0002
1.00001
1
1
1
2.44957
1.92301
1.95261
2.08159
2.16638
2.14043
2.08124
2.04145
2.03939
2.04507
2.03755
2.00964
1.96279
1.93203
1.92155
1.92254
1.92111
1.91912
1.89538
1.81815
1.67588
1.48436
1.27378
1.09977
1.01407
0.997156
0.996799
0.999399
1.00494
1.00683
1.00679
1.00664
1.00585
1.0039
1.00144
1.00019
1.00001
1
1
1
2.35508
1.88373
1.84403
1.88207
1.97333
1.9793
1.94515
1.91223
1.91384
1.93781
1.94668
1.93266
1.902
1.86532
1.85202
1.85716
1.86459
1.86547
1.8463
1.77781
1.64558
1.45791
1.25239
1.08887
1.01319
0.998312
0.997838
1.00015
1.00533
1.00715
1.00709
1.00685
1.00589
1.0038
1.00136
1.00017
1
1
1
1
2.28344
1.94565
1.78927
1.72122
1.75305
1.78153
1.76814
1.75198
1.76063
1.79687
1.82701
1.82378
1.80472
1.76211
1.741
1.74421
1.75473
1.76444
1.75576
1.70221
1.57988
1.40085
1.20875
1.06689
1.00802
0.997863
0.997775
1.00042
1.00552
1.00729
1.00727
1.00704
1.00598
1.00372
1.00125
1.00014
1
1
1
1
2.24348
1.98443
1.77826
1.64284
1.64809
1.65592
1.64294
1.63662
1.6423
1.67142
1.70288
1.70791
1.70114
1.6667
1.63804
1.6363
1.64128
1.64845
1.64039
1.59398
1.48449
1.32171
1.1551
1.04325
1.00311
0.997687
0.997893
1.00086
1.00579
1.00747
1.0075
1.00724
1.00605
1.00361
1.00111
1.00011
1
1
1
1
2.22005
2.00736
1.80083
1.67937
1.61089
1.58795
1.56024
1.56062
1.57514
1.60211
1.61911
1.62182
1.61579
1.58493
1.55369
1.54537
1.54739
1.54755
1.53486
1.48439
1.37818
1.23334
1.10044
1.02234
0.999291
0.997269
0.997915
1.0015
1.00626
1.00772
1.00777
1.00744
1.00604
1.00342
1.00096
1.00008
1
1
1
1
2.21654
2.02289
1.84251
1.70179
1.59067
1.55206
1.51867
1.515
1.53209
1.55994
1.57104
1.56684
1.55368
1.52354
1.49359
1.48057
1.47616
1.46827
1.4439
1.38318
1.27933
1.15854
1.06163
1.01071
0.997794
0.996894
0.99791
1.00233
1.00702
1.00814
1.00816
1.00768
1.00598
1.00318
1.00081
1.00006
1
1
1
1
2.21462
2.03914
1.87492
1.73423
1.61042
1.55252
1.50383
1.48583
1.49664
1.51405
1.52169
1.51769
1.50049
1.47301
1.44613
1.43013
1.41937
1.40311
1.36703
1.29822
1.20265
1.10859
1.03981
1.00515
0.996652
0.996006
0.997671
1.00332
1.00792
1.00868
1.00868
1.00798
1.00591
1.00291
1.00066
1.00004
1
1
1
1
2.20671
2.05505
1.90241
1.76782
1.63379
1.55166
1.50549
1.46833
1.46675
1.47009
1.46971
1.46386
1.44973
1.42909
1.40562
1.38611
1.36888
1.34469
1.30013
1.22829
1.14373
1.0721
1.02334
1.00072
0.995461
0.995255
0.99784
1.00452
1.00856
1.00908
1.00907
1.00821
1.00584
1.00266
1.00053
1.00003
1
1
1
1
2.19467
2.05386
1.9232
1.79934
1.66506
1.566
1.51591
1.46699
1.4434
1.43456
1.42422
1.41005
1.40344
1.39064
1.36887
1.34483
1.32005
1.2881
1.23743
1.16623
1.09645
1.04513
1.01185
0.997548
0.994714
0.995007
0.998847
1.00597
1.00912
1.00943
1.00936
1.00835
1.00573
1.00241
1.00041
1.00002
1
1
1
1
2.18015
2.04766
1.9341
1.82255
1.69207
1.59031
1.53281
1.47076
1.42523
1.40969
1.39357
1.37537
1.36111
1.35068
1.33266
1.3058
1.27417
1.23468
1.18143
1.11867
1.06596
1.02995
1.00573
0.996003
0.994515
0.995349
1.00054
1.00762
1.00984
1.01
1.00984
1.00854
1.00556
1.00214
1.00031
1.00001
1
1
1
1
2.16332
2.03613
1.93825
1.84295
1.71492
1.60384
1.55086
1.49153
1.42948
1.3998
1.37088
1.34388
1.32413
1.31234
1.29641
1.26966
1.23435
1.1918
1.14247
1.09218
1.05229
1.02305
1.0042
0.996686
0.995748
0.997025
1.00268
1.00886
1.01036
1.0105
1.01033
1.00878
1.00544
1.00187
1.00022
1.00001
1
1
1
1
2.14624
2.02844
1.93529
1.8484
1.72993
1.61871
1.56785
1.51272
1.43876
1.39663
1.35789
1.32561
1.29952
1.28122
1.26303
1.23497
1.19863
1.15977
1.11767
1.07037
1.03464
1.01584
1.0039
0.998631
0.998088
0.999591
1.00477
1.00967
1.01067
1.01078
1.01062
1.00899
1.00527
1.00159
1.00015
1
1
1
1
1
2.12662
2.02167
1.92968
1.84538
1.73642
1.62635
1.58122
1.53423
1.45434
1.40266
1.35692
1.31848
1.28648
1.26142
1.2367
1.20598
1.17049
1.13087
1.08391
1.04022
1.01664
1.00848
1.0027
0.999918
0.999898
1.00167
1.00663
1.01077
1.01139
1.01146
1.01119
1.00908
1.00492
1.00128
1.00009
1
1
1
1
1
2.11017
2.01464
1.9173
1.83413
1.74336
1.64102
1.59172
1.54628
1.4671
1.40952
1.36074
1.31254
1.27551
1.24291
1.21191
1.17654
1.13709
1.09319
1.04502
1.0142
1.00397
1.00123
1.00056
0.999925
1.00064
1.00305
1.00793
1.01166
1.01215
1.01229
1.01189
1.00931
1.00457
1.00098
1.00005
1
1
1
1
1
2.08078
2.00503
1.89856
1.81602
1.74078
1.64916
1.59716
1.55563
1.48297
1.41693
1.36622
1.30929
1.26732
1.22795
1.18876
1.14715
1.10254
1.05735
1.01372
0.991327
0.989776
0.99146
0.996265
0.999322
1.00105
1.00406
1.00904
1.01243
1.01285
1.01298
1.01249
1.0093
1.00406
1.00069
1.00003
1
1
1
1
1
2.04895
1.98801
1.87155
1.79535
1.73883
1.65592
1.59449
1.55505
1.49208
1.42326
1.37391
1.31152
1.26063
1.21289
1.16714
1.12027
1.07203
1.03142
0.999713
0.979105
0.978044
0.981801
0.990715
0.99735
1.00036
1.00457
1.01094
1.01419
1.01451
1.01457
1.01332
1.00896
1.00337
1.00044
1.00001
1
1
1
1
1
1.99239
1.95482
1.871
1.7899
1.73496
1.66095
1.59638
1.55702
1.49835
1.42145
1.37229
1.3133
1.25559
1.20275
1.15263
1.1012
1.0525
1.01785
0.992026
0.974681
0.973528
0.976635
0.9851
0.993939
0.999403
1.00491
1.01201
1.01519
1.0156
1.01572
1.01403
1.00865
1.00267
1.00025
1
1
1
1
1
1
1.86428
1.94426
1.88743
1.8002
1.73697
1.66407
1.59441
1.55643
1.50415
1.42634
1.37242
1.31285
1.24657
1.18915
1.13639
1.0864
1.04389
1.0135
0.989435
0.972871
0.972514
0.975969
0.983852
0.992422
0.999555
1.00699
1.01452
1.01641
1.01655
1.0165
1.01427
1.00806
1.00193
1.00011
1
1
1
1
1
1
1.53997
1.91666
1.88489
1.80828
1.74051
1.67236
1.59768
1.55415
1.50303
1.42728
1.37043
1.31169
1.24011
1.18041
1.12572
1.07835
1.04161
1.01519
0.995663
0.980793
0.976333
0.977853
0.983458
0.991418
0.998483
1.00748
1.01702
1.0193
1.01938
1.01887
1.01513
1.00694
1.00111
1.00003
1
1
1
1
1
1
1.16685
1.77037
1.86872
1.81099
1.74082
1.67845
1.59928
1.54875
1.50119
1.42596
1.36382
1.3049
1.2331
1.17202
1.1191
1.07728
1.04413
1.02115
1.00604
0.994444
0.985918
0.985981
0.988385
0.994296
1.00105
1.00882
1.01817
1.02187
1.02228
1.02166
1.01527
1.00505
1.00043
1
1
1
1
1
1
1
1.0187
1.58713
1.82063
1.79702
1.7375
1.67509
1.59764
1.53863
1.49406
1.42077
1.35454
1.29596
1.22672
1.16705
1.12075
1.08104
1.04924
1.02907
1.0176
1.00762
0.997466
0.992569
0.993567
0.9977
1.00486
1.01471
1.02479
1.02758
1.02772
1.02488
1.01339
1.00256
1.00009
1
1
1
1
1
1
1
1.00049
1.32798
1.70112
1.76637
1.72467
1.66312
1.59134
1.52399
1.48003
1.41059
1.34101
1.28679
1.22252
1.16575
1.1251
1.08957
1.06024
1.04312
1.0319
1.02166
1.00963
0.999598
0.998972
1.00052
1.00635
1.02005
1.03268
1.03483
1.03433
1.02495
1.00867
1.00072
1.00001
1
1
1
1
1
1
1
1
1.09437
1.52955
1.70727
1.69362
1.6436
1.57509
1.50667
1.459
1.39948
1.32832
1.27698
1.2201
1.16854
1.1327
1.101
1.07361
1.05732
1.04622
1.03491
1.0218
1.013
1.01274
1.01428
1.02108
1.03529
1.04367
1.04428
1.03842
1.01994
1.00334
1.00008
1
1
1
1
1
1
1
1
1
1.00923
1.31296
1.60091
1.65992
1.62597
1.55978
1.49146
1.43667
1.38471
1.3192
1.27088
1.22083
1.17329
1.14203
1.11535
1.09074
1.0732
1.05983
1.04577
1.03102
1.02492
1.02494
1.02742
1.03786
1.05209
1.05577
1.05308
1.03547
1.01014
1.00055
1
1
1
1
1
1
1
1
1
1
1.00027
1.09426
1.45238
1.61057
1.60337
1.5548
1.48816
1.42933
1.37458
1.31497
1.2672
1.22464
1.18167
1.15337
1.12981
1.10752
1.08951
1.07407
1.05791
1.04498
1.04245
1.04277
1.04744
1.06047
1.06898
1.0685
1.05341
1.02269
1.0024
1.00003
1
1
1
1
1
1
1
1
1
1
1
1.00938
1.2533
1.51862
1.57183
1.55059
1.49331
1.43125
1.37248
1.31618
1.26776
1.2308
1.19304
1.16745
1.14551
1.1234
1.10464
1.08705
1.06964
1.06073
1.05983
1.06141
1.07075
1.08306
1.08475
1.07276
1.04051
1.00734
1.00018
1
1
1
1
1
1
1
1
1
1
1
1
1.00026
1.06399
1.375
1.52702
1.52891
1.50286
1.44289
1.37961
1.323
1.27675
1.2419
1.20818
1.1823
1.16165
1.13991
1.11982
1.0998
1.08408
1.07968
1.07975
1.08521
1.09806
1.10249
1.09279
1.06158
1.0169
1.00077
1
1
1
1
1
1
1
1
1
1
1
1
1
1
1.00456
1.1636
1.42502
1.50105
1.48968
1.45828
1.40294
1.34603
1.29808
1.2601
1.22787
1.1996
1.17829
1.15623
1.13485
1.11385
1.10327
1.10195
1.10492
1.11576
1.12174
1.11276
1.08328
1.03113
1.0024
1.00002
1
1
1
1
1
1
1
1
1
1
1
1
1
1
1.00007
1.0233
1.24093
1.43369
1.46924
1.45474
1.43114
1.38473
1.33389
1.28972
1.25284
1.22153
1.19795
1.17496
1.15179
1.13376
1.12967
1.13109
1.13839
1.14203
1.13156
1.1037
1.04804
1.00559
1.00006
1
1
1
1
1
1
1
1
1
1
1
1
1
1
1
1
1.00072
1.05328
1.27607
1.41757
1.44305
1.43159
1.41269
1.37556
1.33138
1.28892
1.25293
1.22512
1.20082
1.17763
1.1661
1.16461
1.16569
1.16207
1.1481
1.1216
1.06434
1.01003
1.00018
1
1
1
1
1
1
1
1
1
1
1
1
1
1
1
1
1
1
1.00245
1.07457
1.27924
1.40145
1.42043
1.40958
1.39141
1.36434
1.32886
1.2934
1.26326
1.2374
1.21617
1.20387
1.19312
1.17958
1.16307
1.13572
1.07647
1.01423
1.00034
1
1
1
1
1
1
1
1
1
1
1
1
1
1
1
1
1
1
1
1.00002
1.0042
1.08235
1.26468
1.37167
1.39354
1.38674
1.36685
1.34063
1.31268
1.28612
1.26091
1.23733
1.21591
1.19618
1.1764
1.14412
1.08095
1.01591
1.00044
1
1
1
1
1
1
1
1
1
1
1
1
1
1
1
1
1
1
1
1
1
1.00004
1.00474
1.06833
1.21638
1.32018
1.35605
1.35189
1.33512
1.31066
1.2857
1.2611
1.23654
1.21201
1.18461
1.14264
1.07428
1.01362
1.00038
1
1
1
1
1
1
1
1
1
1
1
1
1
1
1
1
1
1
1
1
1
1
1
1.00004
1.00279
1.03661
1.13413
1.22961
1.27833
1.28657
1.27784
1.26058
1.23763
1.20897
1.1723
1.12058
1.05358
1.00818
1.0002
1
1
1
1
1
1
1
1
1
1
1
1
1
1
1
1
1
1
1
1
1
1
1
1
1
1.00001
1.00073
1.00979
1.04472
1.09961
1.14344
1.15808
1.1535
1.13754
1.10826
1.06647
1.02366
1.00289
1.00006
1
1
1
1
1
1
1
1
1
1
1
1
1
1
1
1
1
1
1
1
1
1
1
1
1
1
1
1
1.00006
1.00088
1.00485
1.01385
1.02166
1.02233
1.01924
1.01177
1.00389
1.00044
1.00001
1
1
1
1
1
1
1
1
1
1
1
1
1
1
1
1
1
1
1
1
1
1
1
1
1
1
1
1
1
1
1
1.00002
1.0001
1.00025
1.00028
1.00023
1.0001
1.00001
1
1
1
1
1
1
1
1
1
1
1
1
1
1
1
1
1
1
1
1
1
1
1
1
1
1
1
1
1
1
1
1
1
1
1
1
1
1
1
1
1
1
1
1
1
1
1
1
1
1
1
1
1
1
1
1
1
1
1
1
1
1
1
1
1
1
1
1
1
1
1
1
1
1
1
1
1
1
1
1
1
1
1
1
1
1
1
1
1
1
1
1
1
1
1
1
1
1
1
1
1
)
;

boundaryField
{
    inlet
    {
        type            fixedValue;
        value           uniform 1;
    }
    outlet
    {
        type            inletOutlet;
        inletValue      uniform 1;
        value           nonuniform List<scalar> 
40
(
1
1
1
1
1
1
1
1
1
1
1
1
1
1
1
1
1
1
1
1
1
1
1
1
1
1
1
1
1
1
1
1
1
1
1
1
1
1
1
1
)
;
    }
    top
    {
        type            symmetryPlane;
    }
    bottom
    {
        type            symmetryPlane;
    }
    step
    {
        type            zeroGradient;
    }
    defaultFaces
    {
        type            empty;
    }
}


// ************************************************************************* //
