/*--------------------------------*- C++ -*----------------------------------*\
  =========                 |
  \\      /  F ield         | OpenFOAM: The Open Source CFD Toolbox
   \\    /   O peration     | Website:  https://openfoam.org
    \\  /    A nd           | Version:  6.0
     \\/     M anipulation  |
\*---------------------------------------------------------------------------*/
FoamFile
{
    version     2.0;
    format      ascii;
    class       volVectorField;
    location    "0.499462";
    object      U;
}
// * * * * * * * * * * * * * * * * * * * * * * * * * * * * * * * * * * * * * //

dimensions      [0 1 -1 0 0 0 0];

internalField   nonuniform List<vector> 
4800
(
(3 2.40623e-16 0)
(3 -1.65261e-16 0)
(3 -5.2205e-16 0)
(3 8.58192e-16 0)
(3 5.12113e-16 0)
(3 2.68898e-16 0)
(3 2.7975e-16 0)
(3 3.4161e-16 0)
(3 1.57949e-16 0)
(3 4.50008e-16 0)
(3 6.3946e-16 0)
(3 6.90724e-16 0)
(3 -2.95296e-17 0)
(3 -1.30062e-15 0)
(3 -3.96398e-16 0)
(3 -1.04335e-16 0)
(3 -2.32257e-16 0)
(3 2.0665e-16 0)
(3 -6.76764e-17 0)
(3 -2.21281e-16 0)
(3 5.31717e-17 0)
(3 4.55771e-16 0)
(3 2.95698e-16 0)
(3 -5.77518e-16 0)
(3 -8.34996e-16 0)
(2.0356 0.00434742 0)
(0.747291 0.00692833 0)
(0.613136 0.00742416 0)
(0.549278 0.00663466 0)
(0.478575 0.00649902 0)
(0.42524 0.00512518 0)
(0.387413 0.00620158 0)
(0.360204 0.00982029 0)
(0.332019 0.0137541 0)
(0.296875 0.0118743 0)
(0.24466 -0.000609305 0)
(0.175023 -0.0107303 0)
(0.12003 0.01229 0)
(0.0736578 0.0348815 0)
(0.0218941 0.0414169 0)
(3 1.63964e-16 0)
(3 9.28915e-17 0)
(3 -1.69929e-16 0)
(3 1.31805e-15 0)
(3 1.8746e-15 0)
(3 1.26801e-15 0)
(3 2.14961e-16 0)
(3 -3.55944e-16 0)
(3 -3.40594e-16 0)
(3 4.3711e-17 0)
(3 1.00753e-15 0)
(3 8.8144e-16 0)
(3 8.07293e-16 0)
(3 -9.81825e-16 0)
(3 -1.36515e-15 0)
(3 -2.92056e-16 0)
(3 -5.65973e-17 0)
(3 2.06593e-16 0)
(3 4.42865e-16 0)
(3 9.08737e-17 0)
(3 -2.05326e-16 0)
(3 -3.00571e-16 0)
(3 3.29294e-16 0)
(3 -3.85674e-16 0)
(3 2.44947e-17 0)
(2.03106 0.0139171 0)
(0.740642 0.0211185 0)
(0.607476 0.0199339 0)
(0.544581 0.0190265 0)
(0.473795 0.0202859 0)
(0.420556 0.0172909 0)
(0.385816 0.0147262 0)
(0.360127 0.0194299 0)
(0.331398 0.0287001 0)
(0.286134 0.0215698 0)
(0.239853 -0.00680424 0)
(0.185517 -0.00588712 0)
(0.128866 0.0207989 0)
(0.0755904 0.0230602 0)
(0.0236024 0.0197072 0)
(3 -1.87971e-16 0)
(3 -6.56609e-17 0)
(3 7.70748e-16 0)
(3 1.6668e-15 0)
(3 1.43311e-15 0)
(3 1.52343e-15 0)
(3 1.00674e-15 0)
(3 -4.86639e-16 0)
(3 -1.00402e-15 0)
(3 -4.95772e-16 0)
(3 2.34902e-16 0)
(3 4.16976e-16 0)
(3 3.9848e-16 0)
(3 -1.18663e-15 0)
(3 -1.16843e-15 0)
(3 -1.00816e-15 0)
(3 1.88848e-16 0)
(3 6.3459e-16 0)
(3 -1.19195e-16 0)
(3 -1.16658e-16 0)
(3 -1.75444e-16 0)
(3 6.60844e-17 0)
(3 1.49227e-17 0)
(3 2.43293e-16 0)
(3 -5.66916e-16 0)
(2.03502 0.0278649 0)
(0.737714 0.0368185 0)
(0.603688 0.0336996 0)
(0.540851 0.0308074 0)
(0.46862 0.0310872 0)
(0.414722 0.029412 0)
(0.380773 0.0301575 0)
(0.358237 0.0340791 0)
(0.329083 0.0406339 0)
(0.279231 0.041721 0)
(0.229832 0.0155038 0)
(0.190909 0.00469226 0)
(0.131963 0.00455034 0)
(0.0762298 0.0195663 0)
(0.0239736 0.0334719 0)
(3 -1.24109e-16 0)
(3 -2.8011e-16 0)
(3 1.13689e-15 0)
(3 1.93753e-15 0)
(3 1.17369e-15 0)
(3 3.67958e-16 0)
(3 4.98366e-16 0)
(3 6.63505e-16 0)
(3 1.67236e-16 0)
(3 -8.35194e-17 0)
(3 -4.48377e-17 0)
(3 4.1716e-16 0)
(3 -8.40591e-16 0)
(3 -1.20213e-15 0)
(3 -1.15417e-15 0)
(3 -9.99012e-16 0)
(3 2.53954e-16 0)
(3 8.87193e-16 0)
(3 1.47208e-16 0)
(3 -5.35352e-16 0)
(3 -3.80447e-16 0)
(3 -2.42288e-16 0)
(3 -1.01918e-17 0)
(3 4.55823e-16 0)
(3 -7.58119e-16 0)
(2.04951 0.0419961 0)
(0.739572 0.0536645 0)
(0.602678 0.0474966 0)
(0.539995 0.0417707 0)
(0.467605 0.0418428 0)
(0.413688 0.0432705 0)
(0.377494 0.0480931 0)
(0.353074 0.0486414 0)
(0.325771 0.0422511 0)
(0.276106 0.0492077 0)
(0.218006 0.0567639 0)
(0.175839 0.0211752 0)
(0.13765 0.00986839 0)
(0.0930867 0.0334189 0)
(0.0267031 0.0624396 0)
(3 2.11413e-16 0)
(3 5.40882e-16 0)
(3 7.37952e-16 0)
(3 6.36019e-16 0)
(3 2.13087e-18 0)
(3 -5.37464e-16 0)
(3 -4.52604e-16 0)
(3 -7.00077e-16 0)
(3 -7.58769e-16 0)
(3 -2.9809e-16 0)
(3 8.69367e-16 0)
(3 8.49973e-16 0)
(3 -5.99185e-16 0)
(3 -5.72232e-16 0)
(3 -7.18685e-16 0)
(3 -1.0514e-15 0)
(3 -2.95303e-16 0)
(3 9.0303e-16 0)
(3 1.17729e-15 0)
(3 -5.58431e-16 0)
(3 -4.32013e-16 0)
(3 1.64707e-17 0)
(3 -2.69632e-16 0)
(3 -2.51204e-16 0)
(3 -5.20931e-16 0)
(2.07019 0.0543148 0)
(0.743199 0.0707025 0)
(0.602818 0.0609674 0)
(0.541409 0.0533256 0)
(0.470843 0.0524943 0)
(0.417244 0.0550225 0)
(0.378895 0.061689 0)
(0.349514 0.0616782 0)
(0.320579 0.0557899 0)
(0.278417 0.0662916 0)
(0.215913 0.0934829 0)
(0.167096 0.0864168 0)
(0.139954 0.0584215 0)
(0.0995484 0.0462832 0)
(0.0270308 0.0325317 0)
(3 -4.75479e-17 0)
(3 2.20778e-16 0)
(3 1.40906e-16 0)
(3 -3.23994e-16 0)
(3 -5.65442e-16 0)
(3 -2.59982e-16 0)
(3 -4.92319e-16 0)
(3 -1.25526e-15 0)
(3 -1.12958e-15 0)
(3 1.13608e-16 0)
(3 1.08997e-15 0)
(3 5.09162e-16 0)
(3 2.1053e-16 0)
(3 -2.20964e-16 0)
(3 -3.96078e-16 0)
(3 -6.7179e-16 0)
(3 -5.33144e-16 0)
(3 5.76833e-16 0)
(3 3.42672e-16 0)
(3 -4.32195e-16 0)
(3 -2.07308e-17 0)
(3 3.87961e-16 0)
(3 3.55692e-16 0)
(3 -2.67992e-16 0)
(3 7.27386e-16 0)
(2.0938 0.065923 0)
(0.746216 0.087458 0)
(0.603316 0.0743254 0)
(0.544102 0.0655973 0)
(0.475141 0.064683 0)
(0.422424 0.0668878 0)
(0.383167 0.0729187 0)
(0.350683 0.0792439 0)
(0.320483 0.0767584 0)
(0.284061 0.0755078 0)
(0.224983 0.111207 0)
(0.163039 0.137025 0)
(0.130983 0.130931 0)
(0.0867039 0.0863668 0)
(0.0249293 0.0407904 0)
(3 -7.7488e-16 0)
(3 -9.14328e-16 0)
(3 -4.37795e-16 0)
(3 -6.51778e-16 0)
(3 -1.17768e-16 0)
(3 4.65053e-16 0)
(3 -5.11906e-16 0)
(3 9.92907e-17 0)
(3 3.72176e-16 0)
(3 5.31473e-16 0)
(3 3.76215e-16 0)
(3 -1.5728e-16 0)
(3 3.16104e-16 0)
(3 -3.07716e-16 0)
(3 -8.18842e-16 0)
(3 -2.47703e-16 0)
(3 -3.13043e-16 0)
(3 -8.4619e-16 0)
(3 5.88786e-16 0)
(3 4.9045e-16 0)
(3 3.83065e-16 0)
(3 3.28275e-16 0)
(3 2.53996e-16 0)
(3 -3.74644e-16 0)
(3 -9.18491e-16 0)
(2.12358 0.0753879 0)
(0.75071 0.103128 0)
(0.604851 0.0875743 0)
(0.547789 0.0784972 0)
(0.479388 0.0808659 0)
(0.42686 0.0806801 0)
(0.387683 0.0831088 0)
(0.353644 0.0919174 0)
(0.320622 0.0983933 0)
(0.287112 0.0924251 0)
(0.236161 0.109401 0)
(0.175875 0.166083 0)
(0.120855 0.179727 0)
(0.0698476 0.147177 0)
(0.0233045 0.127911 0)
(3 -1.56599e-16 0)
(3 3.8057e-17 0)
(3 8.50324e-17 0)
(3 9.31759e-17 0)
(3 1.44446e-16 0)
(3 6.24829e-16 0)
(3 4.43656e-16 0)
(3 5.16438e-16 0)
(3 -8.02444e-17 0)
(3 4.68575e-16 0)
(3 -4.1519e-16 0)
(3 7.22865e-17 0)
(3 1.24789e-16 0)
(3 -7.9593e-16 0)
(3 -1.03754e-15 0)
(3 -5.93827e-16 0)
(3 -3.38052e-16 0)
(3 5.7249e-16 0)
(3 7.62063e-16 0)
(3 4.05483e-16 0)
(3 -1.2738e-16 0)
(3 4.29145e-17 0)
(3 -5.00519e-16 0)
(3 3.95731e-19 0)
(3 -9.79049e-16 0)
(2.15348 0.0837002 0)
(0.753126 0.118527 0)
(0.605357 0.100504 0)
(0.550284 0.0911925 0)
(0.481588 0.0946901 0)
(0.428861 0.095251 0)
(0.391721 0.0956519 0)
(0.358261 0.103195 0)
(0.321607 0.119895 0)
(0.282251 0.109527 0)
(0.249598 0.107031 0)
(0.186131 0.146295 0)
(0.119945 0.181887 0)
(0.06603 0.182253 0)
(0.0233584 0.179863 0)
(3 3.38396e-16 0)
(3 7.08662e-16 0)
(3 2.83053e-16 0)
(3 2.8372e-16 0)
(3 4.86683e-16 0)
(3 4.81099e-16 0)
(3 4.05579e-16 0)
(3 3.99941e-17 0)
(3 3.33177e-17 0)
(3 -8.23114e-17 0)
(3 -4.53623e-16 0)
(3 6.12501e-17 0)
(3 -7.17944e-16 0)
(3 -7.83699e-16 0)
(3 -1.23226e-15 0)
(3 -1.48037e-15 0)
(3 -7.05055e-16 0)
(3 8.94438e-16 0)
(3 6.95546e-16 0)
(3 8.63427e-16 0)
(3 1.61391e-16 0)
(3 -4.28332e-16 0)
(3 5.52471e-16 0)
(3 1.24691e-15 0)
(3 2.18017e-15 0)
(2.18418 0.0920062 0)
(0.755334 0.134792 0)
(0.605612 0.113587 0)
(0.553193 0.101504 0)
(0.483623 0.106807 0)
(0.429571 0.110682 0)
(0.393082 0.111657 0)
(0.365257 0.117161 0)
(0.329235 0.137382 0)
(0.277455 0.144257 0)
(0.246285 0.117106 0)
(0.201058 0.108779 0)
(0.126491 0.135124 0)
(0.066246 0.152094 0)
(0.023926 0.141812 0)
(3 7.21812e-17 0)
(3 4.55377e-16 0)
(3 -6.90011e-17 0)
(3 -1.36382e-16 0)
(3 2.63816e-16 0)
(3 6.55387e-18 0)
(3 -4.9991e-16 0)
(3 -2.20267e-16 0)
(3 -3.96984e-16 0)
(3 -4.71551e-16 0)
(3 -2.46221e-16 0)
(3 -5.45779e-16 0)
(3 -8.25978e-16 0)
(3 -1.13202e-15 0)
(3 -8.25167e-16 0)
(3 -9.81706e-16 0)
(3 -6.90237e-16 0)
(3 -2.83731e-16 0)
(3 2.11117e-16 0)
(3 -1.49846e-17 0)
(3 -5.84779e-16 0)
(3 -6.91876e-16 0)
(3 8.73726e-17 0)
(3 8.94316e-16 0)
(3 4.58112e-16 0)
(2.2174 0.102262 0)
(0.758987 0.152646 0)
(0.60652 0.125268 0)
(0.556103 0.109341 0)
(0.486355 0.113865 0)
(0.430873 0.124686 0)
(0.393841 0.132654 0)
(0.368236 0.137409 0)
(0.336723 0.151968 0)
(0.278034 0.173381 0)
(0.230843 0.144848 0)
(0.203117 0.0994071 0)
(0.136 0.0856275 0)
(0.0688939 0.0776766 0)
(0.0232458 0.0685536 0)
(3 -2.76432e-17 0)
(3 -3.19185e-16 0)
(3 -1.30468e-16 0)
(3 2.24837e-16 0)
(3 2.12582e-16 0)
(3 1.72008e-17 0)
(3 -2.20227e-16 0)
(3 -6.76001e-16 0)
(3 -1.75447e-16 0)
(3 2.33703e-16 0)
(3 -4.62885e-17 0)
(3 -1.92254e-16 0)
(3 -1.01164e-15 0)
(3 -8.50074e-16 0)
(3 -1.83436e-16 0)
(3 1.68188e-16 0)
(3 7.18263e-16 0)
(3 1.50495e-16 0)
(3 -3.82166e-16 0)
(3 -9.25698e-16 0)
(3 -1.80116e-15 0)
(3 -1.13193e-15 0)
(3 -1.50481e-15 0)
(3 -3.80932e-16 0)
(3 -1.27236e-16 0)
(2.2559 0.113831 0)
(0.765635 0.170582 0)
(0.60842 0.136158 0)
(0.558514 0.117046 0)
(0.489901 0.123032 0)
(0.433783 0.138705 0)
(0.394488 0.154637 0)
(0.36891 0.159368 0)
(0.34424 0.163051 0)
(0.286031 0.193962 0)
(0.215863 0.198069 0)
(0.17773 0.100941 0)
(0.135059 0.0490263 0)
(0.0723799 0.0629483 0)
(0.0260946 0.092905 0)
(3 1.49868e-17 0)
(3 -9.71944e-17 0)
(3 3.43823e-16 0)
(3 3.0723e-16 0)
(3 1.24164e-16 0)
(3 7.82605e-16 0)
(3 5.57809e-16 0)
(3 -3.73871e-16 0)
(3 3.5298e-17 0)
(3 5.72785e-16 0)
(3 3.06373e-17 0)
(3 6.65021e-18 0)
(3 -3.43308e-16 0)
(3 -1.14194e-15 0)
(3 -8.46979e-16 0)
(3 -5.90324e-16 0)
(3 -5.03595e-16 0)
(3 1.24945e-16 0)
(3 -5.28992e-16 0)
(3 -1.26501e-15 0)
(3 -1.10552e-15 0)
(3 -1.00596e-15 0)
(3 -6.81209e-17 0)
(3 6.83715e-17 0)
(3 1.53479e-15 0)
(2.29981 0.124067 0)
(0.774615 0.186455 0)
(0.611965 0.144111 0)
(0.562109 0.127601 0)
(0.494022 0.136713 0)
(0.437482 0.15299 0)
(0.395922 0.169958 0)
(0.370074 0.180526 0)
(0.349732 0.180035 0)
(0.296763 0.190308 0)
(0.217543 0.220754 0)
(0.147865 0.219724 0)
(0.133134 0.152142 0)
(0.0949364 0.156585 0)
(0.0303397 0.187298 0)
(3 6.89579e-17 0)
(3 2.2858e-16 0)
(3 3.17001e-16 0)
(3 -7.42392e-17 0)
(3 4.76278e-16 0)
(3 5.22318e-16 0)
(3 6.91682e-16 0)
(3 6.7565e-16 0)
(3 -3.25211e-16 0)
(3 -4.10055e-16 0)
(3 -2.25187e-17 0)
(3 5.478e-17 0)
(3 6.42438e-16 0)
(3 -8.98714e-16 0)
(3 -1.27034e-15 0)
(3 -1.28456e-15 0)
(3 -7.77172e-16 0)
(3 -1.8116e-16 0)
(3 -7.28948e-16 0)
(3 -1.35541e-16 0)
(3 8.04786e-16 0)
(3 1.39343e-16 0)
(3 1.03147e-15 0)
(3 1.62874e-15 0)
(3 -1.12462e-16 0)
(2.34838 0.132731 0)
(0.784593 0.200665 0)
(0.617459 0.15166 0)
(0.568385 0.142557 0)
(0.498214 0.155046 0)
(0.439458 0.169503 0)
(0.397873 0.182061 0)
(0.371932 0.195222 0)
(0.350573 0.200007 0)
(0.304759 0.19451 0)
(0.228577 0.234992 0)
(0.155784 0.284409 0)
(0.120551 0.308843 0)
(0.0995744 0.296508 0)
(0.0327887 0.262578 0)
(3 4.59573e-16 0)
(3 1.96417e-16 0)
(3 -5.34627e-17 0)
(3 -8.55056e-17 0)
(3 9.39286e-17 0)
(3 -4.38808e-17 0)
(3 6.7378e-16 0)
(3 9.07514e-16 0)
(3 5.31817e-16 0)
(3 -2.57965e-16 0)
(3 -1.62611e-17 0)
(3 2.24617e-16 0)
(3 -7.1011e-17 0)
(3 1.56949e-16 0)
(3 -1.2843e-15 0)
(3 -1.00238e-15 0)
(3 -4.64636e-16 0)
(3 -4.80522e-16 0)
(3 -3.93121e-16 0)
(3 2.97881e-16 0)
(3 1.7156e-15 0)
(3 1.86246e-15 0)
(3 9.81315e-16 0)
(3 1.93795e-15 0)
(3 -1.55549e-16 0)
(2.40224 0.143983 0)
(0.796292 0.216183 0)
(0.626105 0.161416 0)
(0.576829 0.157555 0)
(0.501842 0.174581 0)
(0.440137 0.18869 0)
(0.400894 0.194454 0)
(0.376639 0.198413 0)
(0.352552 0.211138 0)
(0.30756 0.207333 0)
(0.251602 0.231828 0)
(0.185276 0.315122 0)
(0.135965 0.377653 0)
(0.0905438 0.374385 0)
(0.0316507 0.349692 0)
(3 9.4546e-17 0)
(3 2.2602e-16 0)
(3 -5.98891e-17 0)
(3 -2.79017e-16 0)
(3 -4.13878e-17 0)
(3 6.58243e-16 0)
(3 1.81859e-16 0)
(3 -6.51236e-16 0)
(3 -1.84074e-16 0)
(3 2.97348e-16 0)
(3 -2.31273e-17 0)
(3 -8.02145e-17 0)
(3 2.82749e-16 0)
(3 9.71335e-17 0)
(3 -5.20474e-16 0)
(3 -7.65219e-16 0)
(3 -6.22477e-16 0)
(3 -7.48892e-16 0)
(3 -1.41144e-15 0)
(3 -6.3748e-16 0)
(3 5.23211e-16 0)
(3 1.40623e-15 0)
(3 4.87439e-16 0)
(3 1.53418e-15 0)
(3 4.56513e-16 0)
(2.46355 0.156875 0)
(0.810813 0.23364 0)
(0.636383 0.171486 0)
(0.587475 0.165112 0)
(0.505688 0.188442 0)
(0.437635 0.204594 0)
(0.400335 0.206874 0)
(0.378522 0.202097 0)
(0.360135 0.213119 0)
(0.313525 0.235081 0)
(0.267863 0.245508 0)
(0.214008 0.276201 0)
(0.149425 0.323885 0)
(0.0907365 0.337952 0)
(0.0317873 0.311652 0)
(3 -2.38021e-16 0)
(3 -2.49809e-16 0)
(3 -9.6636e-17 0)
(3 1.75565e-16 0)
(3 1.98519e-17 0)
(3 1.08431e-16 0)
(3 -5.18851e-16 0)
(3 -7.14789e-16 0)
(3 -3.25702e-17 0)
(3 6.08471e-16 0)
(3 7.07623e-17 0)
(3 3.01766e-16 0)
(3 1.0569e-16 0)
(3 5.67579e-17 0)
(3 1.03966e-16 0)
(3 -1.05289e-15 0)
(3 -1.04029e-15 0)
(3 -1.9062e-15 0)
(3 -9.59135e-16 0)
(3 -3.16008e-16 0)
(3 -6.15702e-16 0)
(3 -3.56035e-16 0)
(3 3.62166e-16 0)
(3 2.87383e-16 0)
(3 -5.79609e-16 0)
(2.53387 0.167075 0)
(0.829411 0.250484 0)
(0.64619 0.179806 0)
(0.597382 0.167084 0)
(0.511431 0.196848 0)
(0.435899 0.215212 0)
(0.397702 0.224005 0)
(0.378695 0.217021 0)
(0.368649 0.226912 0)
(0.324503 0.257331 0)
(0.265363 0.257129 0)
(0.212219 0.205667 0)
(0.157448 0.167375 0)
(0.0888326 0.1551 0)
(0.0312111 0.130942 0)
(3 -1.45918e-16 0)
(3 -3.97561e-16 0)
(3 -7.44726e-16 0)
(3 -3.10058e-16 0)
(3 -6.74528e-17 0)
(3 -1.1803e-15 0)
(3 -8.29848e-16 0)
(3 -2.47323e-16 0)
(3 -7.77916e-19 0)
(3 2.15505e-16 0)
(3 5.24209e-16 0)
(3 6.2678e-16 0)
(3 3.93611e-16 0)
(3 -3.25907e-16 0)
(3 -6.14773e-16 0)
(3 -8.43662e-16 0)
(3 -1.91911e-15 0)
(3 -1.27831e-15 0)
(3 -4.4735e-17 0)
(3 -2.10774e-16 0)
(3 -1.34333e-15 0)
(3 -1.18475e-15 0)
(3 -7.33929e-16 0)
(3 2.05134e-16 0)
(3 -1.54104e-15 0)
(2.61644 0.170649 0)
(0.85272 0.265351 0)
(0.652775 0.18947 0)
(0.6047 0.172508 0)
(0.514274 0.203811 0)
(0.437325 0.231051 0)
(0.400271 0.246205 0)
(0.381035 0.251413 0)
(0.378733 0.260051 0)
(0.330058 0.275396 0)
(0.255831 0.251666 0)
(0.193099 0.187141 0)
(0.144297 0.131791 0)
(0.0827864 0.113695 0)
(0.0317939 0.0991451 0)
(3 -1.53368e-16 0)
(3 -2.91174e-16 0)
(3 -9.93279e-16 0)
(3 -7.79996e-16 0)
(3 -7.49632e-16 0)
(3 -1.30671e-15 0)
(3 -8.72873e-16 0)
(3 -8.77174e-16 0)
(3 -9.46862e-16 0)
(3 -2.90081e-16 0)
(3 5.28599e-16 0)
(3 1.13464e-15 0)
(3 4.66052e-16 0)
(3 -7.60158e-16 0)
(3 -1.04938e-16 0)
(3 9.82898e-17 0)
(3 -6.32717e-16 0)
(3 -2.95914e-17 0)
(3 4.58608e-16 0)
(3 1.48839e-17 0)
(3 -6.83461e-16 0)
(3 -6.21224e-16 0)
(3 -5.05265e-16 0)
(3 1.13145e-15 0)
(3 5.34703e-16 0)
(2.70628 0.166661 0)
(0.881007 0.278501 0)
(0.65947 0.199046 0)
(0.610029 0.181148 0)
(0.517324 0.216686 0)
(0.444661 0.260582 0)
(0.409148 0.297391 0)
(0.384849 0.305002 0)
(0.376723 0.289941 0)
(0.329713 0.26991 0)
(0.24454 0.252 0)
(0.176285 0.200454 0)
(0.144097 0.156376 0)
(0.0927157 0.138714 0)
(0.0319085 0.117594 0)
(3 2.36438e-16 0)
(3 1.86925e-16 0)
(3 9.9758e-17 0)
(3 1.89226e-16 0)
(3 -4.55042e-16 0)
(3 -4.90931e-17 0)
(3 3.92455e-16 0)
(3 -1.50328e-16 0)
(3 -4.45449e-16 0)
(3 -5.39927e-16 0)
(3 3.29706e-16 0)
(3 7.59449e-16 0)
(3 5.73763e-16 0)
(3 2.12011e-16 0)
(3 4.98677e-16 0)
(3 1.02957e-15 0)
(3 5.42971e-16 0)
(3 8.01328e-17 0)
(3 -2.82596e-16 0)
(3 -3.85686e-17 0)
(3 3.02837e-16 0)
(3 -2.58744e-16 0)
(3 2.05311e-16 0)
(3 1.22137e-15 0)
(3 6.65408e-16 0)
(2.79825 0.152794 0)
(0.914871 0.286922 0)
(0.662217 0.208079 0)
(0.611227 0.195494 0)
(0.524601 0.237733 0)
(0.456124 0.296885 0)
(0.41511 0.323331 0)
(0.387911 0.322313 0)
(0.367566 0.297302 0)
(0.323915 0.268796 0)
(0.244857 0.27528 0)
(0.16446 0.274201 0)
(0.138444 0.202638 0)
(0.0923654 0.181259 0)
(0.0330437 0.151062 0)
(3 3.12991e-16 0)
(3 7.07993e-17 0)
(3 9.3296e-17 0)
(3 -2.68968e-16 0)
(3 -2.74086e-17 0)
(3 3.10611e-16 0)
(3 1.12624e-16 0)
(3 -1.34479e-16 0)
(3 -1.80179e-16 0)
(3 -3.35205e-16 0)
(3 1.13275e-16 0)
(3 -1.30226e-16 0)
(3 1.07363e-15 0)
(3 1.11184e-15 0)
(3 6.49478e-16 0)
(3 9.37066e-16 0)
(3 2.44382e-16 0)
(3 -2.09285e-16 0)
(3 -5.55669e-16 0)
(3 -5.58078e-16 0)
(3 -2.92206e-16 0)
(3 -2.51186e-16 0)
(3 3.36186e-16 0)
(3 9.18656e-16 0)
(3 -2.55499e-16 0)
(2.88314 0.128103 0)
(0.951278 0.292573 0)
(0.667119 0.214837 0)
(0.612206 0.217311 0)
(0.531206 0.262973 0)
(0.464407 0.312591 0)
(0.419867 0.325712 0)
(0.390578 0.314205 0)
(0.360221 0.303899 0)
(0.324546 0.288133 0)
(0.270818 0.333804 0)
(0.189839 0.412599 0)
(0.111345 0.439678 0)
(0.060107 0.305993 0)
(0.0336788 0.232779 0)
(3 1.16239e-16 0)
(3 2.01257e-16 0)
(3 6.85097e-16 0)
(3 -6.94717e-17 0)
(3 -4.8254e-16 0)
(3 -5.80186e-16 0)
(3 -6.31599e-16 0)
(3 -3.7025e-16 0)
(3 -4.97057e-17 0)
(3 -9.15477e-17 0)
(3 1.10177e-16 0)
(3 -1.03694e-16 0)
(3 5.72692e-16 0)
(3 5.6729e-16 0)
(3 1.06675e-16 0)
(3 -1.30565e-16 0)
(3 -1.1933e-16 0)
(3 3.41602e-16 0)
(3 6.66661e-16 0)
(3 1.58134e-16 0)
(3 -1.92351e-17 0)
(3 2.44886e-16 0)
(3 9.50528e-16 0)
(3 1.38549e-15 0)
(3 4.09581e-16 0)
(2.95041 0.0887019 0)
(0.987994 0.299462 0)
(0.672158 0.224795 0)
(0.610936 0.248001 0)
(0.530927 0.288088 0)
(0.471063 0.313555 0)
(0.424225 0.313216 0)
(0.387794 0.302404 0)
(0.363935 0.313405 0)
(0.340957 0.358937 0)
(0.297367 0.403102 0)
(0.211804 0.461699 0)
(0.12258 0.51669 0)
(0.0533809 0.556005 0)
(0.0333574 0.562368 0)
(3 2.1416e-17 0)
(3 8.75061e-16 0)
(3 1.57589e-15 0)
(3 4.37559e-16 0)
(3 -6.11657e-16 0)
(3 -1.26203e-15 0)
(3 -5.43116e-16 0)
(3 -4.52542e-16 0)
(3 -1.22755e-16 0)
(3 9.48203e-17 0)
(3 -5.98615e-16 0)
(3 -4.5347e-16 0)
(3 3.02791e-16 0)
(3 1.48369e-16 0)
(3 8.19637e-16 0)
(3 1.30724e-16 0)
(3 7.96328e-16 0)
(3 1.61602e-15 0)
(3 1.00153e-15 0)
(3 1.15635e-15 0)
(3 3.74746e-16 0)
(3 5.33342e-16 0)
(3 1.6687e-15 0)
(3 6.73609e-16 0)
(3 5.62199e-17 0)
(2.98481 0.0463215 0)
(1.03082 0.300588 0)
(0.676557 0.240747 0)
(0.607568 0.277386 0)
(0.526529 0.305092 0)
(0.472341 0.306975 0)
(0.431728 0.299499 0)
(0.397647 0.316277 0)
(0.379221 0.356603 0)
(0.356119 0.387287 0)
(0.311213 0.422083 0)
(0.229564 0.461075 0)
(0.141006 0.521198 0)
(0.0728071 0.581564 0)
(0.0393284 0.616073 0)
(3 7.46654e-17 0)
(3 7.84599e-16 0)
(3 1.56978e-17 0)
(3 6.85e-17 0)
(3 -5.36334e-18 0)
(3 -5.40007e-16 0)
(3 -3.03365e-16 0)
(3 7.50639e-17 0)
(3 2.63039e-16 0)
(3 -1.76817e-16 0)
(3 -2.35459e-16 0)
(3 -4.94954e-16 0)
(3 -1.06863e-15 0)
(3 -6.69014e-18 0)
(3 1.30784e-15 0)
(3 1.14998e-15 0)
(3 1.89487e-15 0)
(3 1.47703e-15 0)
(3 4.16149e-16 0)
(3 1.61498e-16 0)
(3 3.54636e-16 0)
(3 1.04982e-15 0)
(3 1.00436e-15 0)
(3 -3.43851e-16 0)
(3 -1.16414e-15 0)
(3.00257 0.00789703 0)
(1.08509 0.296145 0)
(0.678574 0.255624 0)
(0.602066 0.298088 0)
(0.521406 0.321404 0)
(0.474228 0.309369 0)
(0.442698 0.303958 0)
(0.417569 0.345879 0)
(0.391618 0.380192 0)
(0.363447 0.396495 0)
(0.324536 0.408313 0)
(0.245619 0.429531 0)
(0.167602 0.467953 0)
(0.102742 0.572569 0)
(0.0410042 0.617232 0)
(3 5.16147e-17 0)
(3 -7.12958e-17 0)
(3 -8.00714e-17 0)
(3 2.62838e-16 0)
(3 7.63788e-16 0)
(3 3.13206e-16 0)
(3 -5.53991e-16 0)
(3 -2.92587e-17 0)
(3 3.96163e-16 0)
(3 6.5977e-17 0)
(3 7.23361e-16 0)
(3 -6.37944e-18 0)
(3 -1.40028e-15 0)
(3 -8.87344e-16 0)
(3 2.6905e-16 0)
(3 8.76714e-16 0)
(3 1.34546e-15 0)
(3 1.08689e-15 0)
(3 8.13038e-16 0)
(3 -5.87618e-17 0)
(3 2.95807e-16 0)
(3 3.94102e-16 0)
(3 2.65028e-16 0)
(3 2.15536e-16 0)
(3 -1.19363e-15 0)
(3.00009 0.000129472 0)
(1.15115 0.295493 0)
(0.685157 0.265887 0)
(0.600461 0.308183 0)
(0.519566 0.338056 0)
(0.478354 0.322038 0)
(0.461155 0.319033 0)
(0.438736 0.360659 0)
(0.399711 0.396467 0)
(0.362744 0.396768 0)
(0.325876 0.362491 0)
(0.247566 0.350001 0)
(0.174344 0.359688 0)
(0.115118 0.339495 0)
(0.0423495 0.298321 0)
(3 -4.778e-17 0)
(3 -2.28672e-16 0)
(3 2.2949e-16 0)
(3 7.91681e-16 0)
(3 1.63703e-16 0)
(3 4.81711e-16 0)
(3 -3.63231e-16 0)
(3 -3.77137e-16 0)
(3 -2.09621e-16 0)
(3 5.8813e-16 0)
(3 4.10958e-16 0)
(3 -9.98254e-17 0)
(3 -7.77717e-16 0)
(3 -5.04477e-16 0)
(3 -4.86419e-16 0)
(3 -4.76968e-16 0)
(3 5.57208e-16 0)
(3 2.89831e-16 0)
(3 1.15871e-16 0)
(3 5.58325e-16 0)
(3 3.31887e-16 0)
(3 6.72972e-16 0)
(3 1.16149e-15 0)
(3 6.7076e-16 0)
(3 -6.13349e-16 0)
(3 8.40452e-08 0)
(1.21921 0.30944 0)
(0.689968 0.277511 0)
(0.603193 0.30405 0)
(0.525781 0.346981 0)
(0.485362 0.357898 0)
(0.472194 0.344597 0)
(0.459279 0.359159 0)
(0.40929 0.406249 0)
(0.354419 0.395 0)
(0.31386 0.34837 0)
(0.256879 0.342235 0)
(0.178533 0.365531 0)
(0.105833 0.342002 0)
(0.0405183 0.301644 0)
(3 -2.70001e-16 0)
(3 -4.80276e-16 0)
(3 -2.19918e-16 0)
(3 -1.29896e-16 0)
(3 3.02874e-16 0)
(3 7.03995e-16 0)
(3 9.88338e-16 0)
(3 -1.37574e-16 0)
(3 -2.46503e-16 0)
(3 1.06421e-15 0)
(3 5.45175e-16 0)
(3 3.43655e-16 0)
(3 1.99715e-17 0)
(3 -1.18991e-16 0)
(3 -1.5288e-15 0)
(3 -1.50591e-15 0)
(3 -4.53888e-16 0)
(3 1.77804e-16 0)
(3 8.86669e-16 0)
(3 2.65858e-16 0)
(3 2.3957e-16 0)
(3 7.43198e-16 0)
(3 5.43196e-16 0)
(3 7.76699e-16 0)
(3 2.94744e-17 0)
(3 1.19081e-12 0)
(1.29663 0.328729 0)
(0.689166 0.29192 0)
(0.607036 0.308205 0)
(0.546968 0.349074 0)
(0.502119 0.3806 0)
(0.4765 0.372893 0)
(0.475102 0.366815 0)
(0.418655 0.410062 0)
(0.343108 0.400865 0)
(0.303312 0.367341 0)
(0.265873 0.343499 0)
(0.188959 0.370136 0)
(0.101882 0.38785 0)
(0.0408685 0.378501 0)
(3 -1.86886e-16 0)
(3 -6.93339e-16 0)
(3 -4.84764e-16 0)
(3 -4.84942e-16 0)
(3 3.45867e-17 0)
(3 3.67378e-16 0)
(3 1.94881e-16 0)
(3 -1.11828e-16 0)
(3 9.01823e-17 0)
(3 4.78018e-16 0)
(3 4.05114e-16 0)
(3 3.39743e-16 0)
(3 4.13155e-16 0)
(3 6.35646e-16 0)
(3 -4.40913e-16 0)
(3 3.32113e-17 0)
(3 2.70472e-16 0)
(3 2.90235e-17 0)
(3 4.44559e-16 0)
(3 -4.55485e-16 0)
(3 -7.15945e-16 0)
(3 2.84425e-16 0)
(3 -1.14781e-16 0)
(3 1.1357e-15 0)
(3 9.13733e-16 0)
(3 1.03279e-16 0)
(1.38676 0.338481 0)
(0.684423 0.310016 0)
(0.61458 0.326185 0)
(0.56871 0.362768 0)
(0.51941 0.388481 0)
(0.48807 0.400406 0)
(0.482149 0.37981 0)
(0.424377 0.392992 0)
(0.343531 0.434805 0)
(0.288427 0.39503 0)
(0.265452 0.357707 0)
(0.209478 0.380127 0)
(0.126002 0.438536 0)
(0.0480429 0.46331 0)
(3 5.80775e-17 0)
(3 -1.60511e-16 0)
(3 -1.22714e-15 0)
(3 -9.53653e-16 0)
(3 -4.42246e-16 0)
(3 -2.91554e-16 0)
(3 -5.35655e-16 0)
(3 3.18095e-16 0)
(3 6.99668e-16 0)
(3 1.80562e-16 0)
(3 2.30609e-16 0)
(3 -1.88267e-16 0)
(3 4.42435e-16 0)
(3 3.34334e-16 0)
(3 -2.51386e-16 0)
(3 -4.94815e-16 0)
(3 1.62009e-16 0)
(3 5.18487e-16 0)
(3 3.32751e-16 0)
(3 2.19946e-16 0)
(3 1.38542e-16 0)
(3 -6.37879e-16 0)
(3 -6.02928e-16 0)
(3 8.79887e-16 0)
(3 3.91115e-16 0)
(3 2.62193e-15 0)
(1.48922 0.346823 0)
(0.690058 0.322549 0)
(0.628512 0.368152 0)
(0.589352 0.39399 0)
(0.543831 0.406065 0)
(0.500232 0.422582 0)
(0.472986 0.400427 0)
(0.442082 0.390998 0)
(0.361826 0.485218 0)
(0.275274 0.523969 0)
(0.248772 0.413349 0)
(0.233635 0.412893 0)
(0.144535 0.448877 0)
(0.0515923 0.458693 0)
(3 4.99906e-17 0)
(3 -2.08714e-16 0)
(3 -3.97688e-16 0)
(3 -6.86655e-16 0)
(3 -6.1795e-17 0)
(3 -7.39937e-16 0)
(3 -1.98496e-16 0)
(3 5.96742e-16 0)
(3 9.55198e-16 0)
(3 3.04073e-16 0)
(3 1.5308e-16 0)
(3 -3.17829e-16 0)
(3 -2.10232e-16 0)
(3 -6.06381e-16 0)
(3 -2.4073e-17 0)
(3 -4.9418e-16 0)
(3 -1.0496e-15 0)
(3 3.89535e-16 0)
(3 7.74155e-16 0)
(3 1.06509e-15 0)
(3 3.50375e-16 0)
(3 -1.83628e-15 0)
(3 -1.78282e-15 0)
(3 -1.51091e-15 0)
(3 5.62584e-17 0)
(3 -3.24507e-15 0)
(1.59204 0.375162 0)
(0.720235 0.344653 0)
(0.652382 0.399813 0)
(0.612026 0.430405 0)
(0.563214 0.434292 0)
(0.509637 0.439769 0)
(0.466269 0.435896 0)
(0.453418 0.408056 0)
(0.394357 0.487669 0)
(0.301384 0.606172 0)
(0.213549 0.626847 0)
(0.21611 0.473021 0)
(0.153282 0.451874 0)
(0.0568692 0.444291 0)
(3 -1.14764e-16 0)
(3 1.60381e-16 0)
(3 -2.27198e-16 0)
(3 -1.7614e-16 0)
(3 9.58283e-17 0)
(3 4.9669e-17 0)
(3 3.19432e-16 0)
(3 5.16113e-16 0)
(3 9.44325e-16 0)
(3 8.4115e-16 0)
(3 3.68166e-16 0)
(3 -3.10604e-16 0)
(3 -1.40128e-15 0)
(3 -1.46903e-15 0)
(3 -5.74642e-16 0)
(3 -1.20315e-15 0)
(3 -1.51353e-15 0)
(3 -2.63622e-16 0)
(3 4.1394e-16 0)
(3 5.36545e-16 0)
(3 2.22044e-16 0)
(3 -1.38871e-15 0)
(3 -1.44355e-15 0)
(3 -2.11234e-15 0)
(3 -5.45309e-16 0)
(3 -2.7576e-15 0)
(1.72671 0.415868 0)
(0.768223 0.382304 0)
(0.68201 0.402583 0)
(0.639419 0.44379 0)
(0.577113 0.453078 0)
(0.520564 0.442917 0)
(0.465486 0.473218 0)
(0.449343 0.452385 0)
(0.430954 0.466101 0)
(0.338307 0.622634 0)
(0.222265 0.713682 0)
(0.161133 0.667451 0)
(0.142567 0.51081 0)
(0.0599746 0.472611 0)
(3 2.83277e-16 0)
(3 5.67379e-16 0)
(3 -9.74769e-17 0)
(3 -1.15437e-16 0)
(3 -6.87697e-17 0)
(3 4.69547e-16 0)
(3 2.09813e-16 0)
(3 4.3692e-16 0)
(3 1.04716e-15 0)
(3 1.35813e-15 0)
(3 2.88095e-16 0)
(3 -9.90063e-16 0)
(3 -1.0575e-15 0)
(3 -3.60568e-16 0)
(3 -6.46106e-16 0)
(3 -6.52434e-16 0)
(3 -5.02534e-16 0)
(3 -5.64869e-16 0)
(3 7.0731e-16 0)
(3 8.21936e-16 0)
(3 4.99046e-16 0)
(3 -1.29059e-15 0)
(3 -1.46813e-15 0)
(3 -1.25904e-15 0)
(3 -4.15512e-16 0)
(3 -1.5372e-15 0)
(1.90427 0.424687 0)
(0.816532 0.389804 0)
(0.719279 0.388105 0)
(0.66308 0.437066 0)
(0.589739 0.45952 0)
(0.528283 0.445729 0)
(0.470391 0.477894 0)
(0.444965 0.48724 0)
(0.446659 0.478852 0)
(0.387318 0.560776 0)
(0.256939 0.719795 0)
(0.149887 0.781751 0)
(0.0836152 0.698116 0)
(0.0503644 0.565826 0)
(3 -4.83084e-17 0)
(3 2.44417e-16 0)
(3 1.07341e-15 0)
(3 5.38225e-16 0)
(3 -6.95805e-16 0)
(3 1.8999e-17 0)
(3 3.2284e-16 0)
(3 5.82218e-16 0)
(3 6.7848e-16 0)
(3 6.35861e-16 0)
(3 -9.78231e-16 0)
(3 -1.55982e-15 0)
(3 -1.27147e-15 0)
(3 1.80512e-17 0)
(3 -2.5498e-16 0)
(3 4.64022e-16 0)
(3 -2.4022e-16 0)
(3 -6.35897e-16 0)
(3 9.48081e-16 0)
(3 7.26933e-16 0)
(3 -5.43247e-16 0)
(3 -1.56589e-15 0)
(3 -1.98317e-15 0)
(3 -5.56569e-16 0)
(3 -9.93709e-16 0)
(3 -1.89383e-15 0)
(2.12063 0.388833 0)
(0.860679 0.374071 0)
(0.749587 0.388527 0)
(0.688046 0.42898 0)
(0.597214 0.473804 0)
(0.528429 0.467302 0)
(0.480134 0.473744 0)
(0.452014 0.512411 0)
(0.442912 0.520468 0)
(0.43279 0.514047 0)
(0.295842 0.673141 0)
(0.175089 0.796939 0)
(0.0787001 0.825351 0)
(0.0527441 0.845383 0)
(3 -7.85426e-17 0)
(3 -2.57289e-17 0)
(3 1.48324e-16 0)
(3 2.02744e-16 0)
(3 -3.0332e-16 0)
(3 -1.40053e-16 0)
(3 3.45646e-16 0)
(3 3.39797e-16 0)
(3 4.3377e-16 0)
(3 -5.43099e-16 0)
(3 -1.55761e-15 0)
(3 -1.67989e-15 0)
(3 -9.04238e-16 0)
(3 -2.76566e-16 0)
(3 -5.04169e-16 0)
(3 -6.01535e-16 0)
(3 -8.36986e-16 0)
(3 -1.25354e-16 0)
(3 5.53312e-16 0)
(3 5.38479e-16 0)
(3 -3.9805e-16 0)
(3 -1.59255e-15 0)
(3 -1.56391e-15 0)
(3 -1.11116e-15 0)
(3 -1.50219e-16 0)
(3 -9.61413e-16 0)
(2.32202 0.346063 0)
(0.895871 0.378718 0)
(0.764329 0.402239 0)
(0.702333 0.447454 0)
(0.605025 0.493333 0)
(0.527186 0.510355 0)
(0.487261 0.486567 0)
(0.465777 0.535973 0)
(0.440455 0.559839 0)
(0.429707 0.52345 0)
(0.369432 0.545097 0)
(0.225581 0.778895 0)
(0.0882685 0.855513 0)
(0.0560705 0.889861 0)
(3 6.87729e-17 0)
(3 -3.29392e-16 0)
(3 -9.62564e-16 0)
(3 -8.31075e-16 0)
(3 1.00776e-16 0)
(3 -3.57875e-16 0)
(3 -8.22307e-16 0)
(3 -2.54215e-16 0)
(3 3.45736e-16 0)
(3 -4.93228e-16 0)
(3 -1.1832e-15 0)
(3 -5.20234e-16 0)
(3 -2.71144e-16 0)
(3 -8.54032e-16 0)
(3 -9.35948e-16 0)
(3 -7.12668e-16 0)
(3 -1.5715e-15 0)
(3 3.25275e-16 0)
(3 1.40176e-15 0)
(3 2.84058e-16 0)
(3 -5.87279e-16 0)
(3 -2.34224e-16 0)
(3 5.54793e-17 0)
(3 4.21853e-16 0)
(3 3.20872e-16 0)
(3 3.50883e-16 0)
(2.49691 0.297944 0)
(0.921644 0.409866 0)
(0.770167 0.455595 0)
(0.705442 0.491677 0)
(0.61359 0.506124 0)
(0.530603 0.537548 0)
(0.485536 0.547329 0)
(0.47257 0.539116 0)
(0.44517 0.548814 0)
(0.422971 0.54965 0)
(0.393121 0.565759 0)
(0.303354 0.64874 0)
(0.109483 0.780399 0)
(0.0613921 0.834175 0)
(3 -1.64394e-16 0)
(3 -3.77042e-16 0)
(3 -4.78715e-16 0)
(3 -8.59119e-16 0)
(3 -6.84256e-16 0)
(3 -9.11925e-16 0)
(3 -1.17367e-15 0)
(3 -5.27304e-16 0)
(3 -2.67209e-16 0)
(3 9.40957e-17 0)
(3 1.10679e-17 0)
(3 2.11288e-16 0)
(3 -9.3574e-16 0)
(3 -1.31695e-15 0)
(3 -1.32836e-15 0)
(3 -1.2112e-15 0)
(3 -1.10195e-15 0)
(3 -4.21514e-17 0)
(3 6.14329e-16 0)
(3 2.52255e-16 0)
(3 -2.64777e-16 0)
(3 -2.91741e-18 0)
(3 6.5278e-16 0)
(3 1.33679e-15 0)
(3 6.99644e-16 0)
(3 3.83857e-16 0)
(2.6542 0.253511 0)
(0.957539 0.447752 0)
(0.761017 0.497614 0)
(0.699065 0.516404 0)
(0.618645 0.503643 0)
(0.537014 0.545773 0)
(0.487661 0.562135 0)
(0.466807 0.547751 0)
(0.447548 0.546793 0)
(0.442733 0.576135 0)
(0.411392 0.641533 0)
(0.315184 0.624816 0)
(0.153693 0.637339 0)
(0.0833057 0.729173 0)
(3 2.21229e-17 0)
(3 5.70585e-18 0)
(3 1.91534e-16 0)
(3 5.8024e-17 0)
(3 -5.11026e-16 0)
(3 -9.9743e-17 0)
(3 4.12273e-16 0)
(3 -7.3352e-17 0)
(3 -1.57893e-17 0)
(3 -1.91208e-17 0)
(3 -1.65281e-16 0)
(3 -4.67073e-16 0)
(3 -1.14122e-15 0)
(3 -5.08444e-16 0)
(3 2.13179e-16 0)
(3 -6.96267e-16 0)
(3 4.03494e-16 0)
(3 -4.26986e-16 0)
(3 -7.66425e-16 0)
(3 1.40574e-16 0)
(3 8.78689e-16 0)
(3 9.52294e-16 0)
(3 6.9037e-16 0)
(3 -8.90654e-17 0)
(3 1.00973e-16 0)
(3 2.58335e-16 0)
(2.78907 0.209584 0)
(0.999094 0.465968 0)
(0.748075 0.511045 0)
(0.679981 0.51487 0)
(0.607705 0.506484 0)
(0.55472 0.508961 0)
(0.494592 0.552309 0)
(0.470719 0.576566 0)
(0.45316 0.575694 0)
(0.464356 0.625148 0)
(0.420743 0.666714 0)
(0.306076 0.634266 0)
(0.170897 0.678925 0)
(0.0981177 0.783924 0)
(3 1.8335e-16 0)
(3 3.08911e-16 0)
(3 3.44147e-16 0)
(3 3.9246e-16 0)
(3 4.41788e-16 0)
(3 8.6748e-16 0)
(3 7.72278e-16 0)
(3 7.88642e-16 0)
(3 2.00463e-16 0)
(3 1.87818e-16 0)
(3 1.03473e-16 0)
(3 -1.7215e-16 0)
(3 -7.81948e-16 0)
(3 2.85101e-16 0)
(3 -6.19425e-17 0)
(3 1.06668e-16 0)
(3 -2.24992e-17 0)
(3 -1.87129e-16 0)
(3 -5.08489e-17 0)
(3 4.79984e-16 0)
(3 1.09391e-15 0)
(3 8.36171e-16 0)
(3 3.28717e-16 0)
(3 -9.69887e-16 0)
(3 -3.20754e-16 0)
(3 2.62402e-16 0)
(2.90713 0.130088 0)
(1.04497 0.454741 0)
(0.719963 0.478674 0)
(0.657911 0.505804 0)
(0.59987 0.514701 0)
(0.559537 0.501968 0)
(0.520187 0.544729 0)
(0.49749 0.641383 0)
(0.458382 0.676309 0)
(0.458054 0.653315 0)
(0.4235 0.641132 0)
(0.346205 0.676407 0)
(0.274924 0.903083 0)
(0.13839 1.04248 0)
(3 -2.82755e-17 0)
(3 -1.21908e-16 0)
(3 -7.42663e-17 0)
(3 -1.0432e-16 0)