/*--------------------------------*- C++ -*----------------------------------*\
  =========                 |
  \\      /  F ield         | OpenFOAM: The Open Source CFD Toolbox
   \\    /   O peration     | Website:  https://openfoam.org
    \\  /    A nd           | Version:  6.0
     \\/     M anipulation  |
\*---------------------------------------------------------------------------*/
FoamFile
{
    version     2.0;
    format      ascii;
    class       volVectorField;
    location    "3.00020032";
    object      U;
}
// * * * * * * * * * * * * * * * * * * * * * * * * * * * * * * * * * * * * * //

dimensions      [0 1 -1 0 0 0 0];

internalField   nonuniform List<vector> 
24000
(
(3 1.14207e-15 0)
(3 8.66889e-16 0)
(3 4.05833e-16 0)
(3 1.29712e-15 0)
(3 8.70003e-16 0)
(3 5.46598e-16 0)
(3 -4.01781e-16 0)
(3 -1.52743e-15 0)
(3 -4.65028e-16 0)
(3 3.16196e-16 0)
(1.52077 0.0076129 0)
(0.739811 0.00876208 0)
(0.650438 0.0104126 0)
(0.581138 0.0111247 0)
(0.50645 0.0116895 0)
(0.430162 0.012388 0)
(0.349848 0.0132347 0)
(0.262842 0.01479 0)
(0.166211 0.0162895 0)
(0.063636 0.0190558 0)
(3 1.86268e-16 0)
(3 1.19929e-16 0)
(3 7.38231e-16 0)
(3 -1.05672e-15 0)
(3 -4.25395e-16 0)
(3 -2.2579e-16 0)
(3 4.32859e-16 0)
(3 2.96954e-15 0)
(3 1.61898e-15 0)
(3 -5.91324e-16 0)
(1.51785 0.0266518 0)
(0.732976 0.0267626 0)
(0.642185 0.0290992 0)
(0.572892 0.0315773 0)
(0.498421 0.0336779 0)
(0.422807 0.0362876 0)
(0.343802 0.0393721 0)
(0.25879 0.0445256 0)
(0.164152 0.0494135 0)
(0.0633245 0.0579961 0)
(3 -1.63671e-16 0)
(3 -5.48115e-16 0)
(3 -8.27389e-16 0)
(3 1.45711e-15 0)
(3 -1.10041e-15 0)
(3 -2.19749e-15 0)
(3 -1.00129e-15 0)
(3 6.68419e-16 0)
(3 4.38797e-16 0)
(3 -1.31549e-15 0)
(1.52765 0.0489131 0)
(0.73161 0.0462084 0)
(0.637427 0.0493831 0)
(0.566496 0.0530666 0)
(0.490755 0.0561644 0)
(0.41443 0.0600962 0)
(0.335556 0.0648131 0)
(0.252041 0.073191 0)
(0.159774 0.0813794 0)
(0.062279 0.0959476 0)
(3 -6.08155e-16 0)
(3 -3.8048e-16 0)
(3 -2.72781e-16 0)
(3 8.15355e-16 0)
(3 1.13533e-15 0)
(3 -1.07243e-15 0)
(3 -7.04019e-16 0)
(3 -1.22591e-15 0)
(3 -2.42526e-15 0)
(3 1.13892e-16 0)
(1.54818 0.0709072 0)
(0.734515 0.0663691 0)
(0.637168 0.0701695 0)
(0.56461 0.0752587 0)
(0.487077 0.0794603 0)
(0.409123 0.084645 0)
(0.329105 0.0905997 0)
(0.245745 0.101617 0)
(0.154772 0.112631 0)
(0.0606225 0.132984 0)
(3 7.94937e-16 0)
(3 3.77355e-16 0)
(3 1.99092e-16 0)
(3 1.26794e-15 0)
(3 2.14442e-15 0)
(3 8.35865e-16 0)
(3 -7.36133e-17 0)
(3 -2.43919e-15 0)
(3 -1.26412e-15 0)
(3 -2.60656e-15 0)
(1.57639 0.0918368 0)
(0.739209 0.0871405 0)
(0.639091 0.0913318 0)
(0.565691 0.0977853 0)
(0.487054 0.103218 0)
(0.407731 0.109808 0)
(0.326123 0.116942 0)
(0.241876 0.130239 0)
(0.150909 0.14347 0)
(0.0594603 0.168997 0)
(3 1.63584e-16 0)
(3 5.51725e-16 0)
(3 -2.91463e-16 0)
(3 -1.19515e-16 0)
(3 4.91161e-16 0)
(3 -1.49618e-16 0)
(3 -1.02953e-15 0)
(3 -1.70343e-15 0)
(3 -1.32509e-15 0)
(3 -8.04444e-16 0)
(1.61107 0.111982 0)
(0.744511 0.108225 0)
(0.641974 0.112768 0)
(0.56861 0.120487 0)
(0.489745 0.127216 0)
(0.409739 0.135413 0)
(0.326643 0.143902 0)
(0.240785 0.159424 0)
(0.148368 0.174359 0)
(0.0581275 0.204232 0)
(3 5.99049e-17 0)
(3 3.77691e-17 0)
(3 2.20148e-16 0)
(3 1.53979e-15 0)
(3 1.26982e-15 0)
(3 -1.10279e-15 0)
(3 -2.41345e-16 0)
(3 -9.11079e-16 0)
(3 6.62692e-16 0)
(3 -1.56222e-16 0)
(1.65226 0.1318 0)
(0.750016 0.129553 0)
(0.645032 0.134204 0)
(0.572659 0.14313 0)
(0.494477 0.151253 0)
(0.414566 0.161279 0)
(0.330501 0.171368 0)
(0.24323 0.189261 0)
(0.148936 0.205702 0)
(0.0587518 0.239304 0)
(3 -5.47259e-16 0)
(3 2.8031e-16 0)
(3 1.54084e-15 0)
(3 1.03216e-15 0)
(3 2.50716e-15 0)
(3 2.24864e-15 0)
(3 9.23141e-16 0)
(3 7.20653e-16 0)
(3 1.6096e-15 0)
(3 4.86985e-16 0)
(1.70084 0.151587 0)
(0.756197 0.151227 0)
(0.648033 0.155407 0)
(0.577259 0.165465 0)
(0.50045 0.175144 0)
(0.421114 0.187355 0)
(0.335954 0.199526 0)
(0.246429 0.220113 0)
(0.149077 0.237863 0)
(0.0579426 0.274558 0)
(3 -2.858e-16 0)
(3 -4.1365e-16 0)
(3 1.93346e-15 0)
(3 1.81176e-15 0)
(3 7.00013e-16 0)
(3 6.87201e-16 0)
(3 5.46737e-16 0)
(3 2.21831e-15 0)
(3 7.0811e-16 0)
(3 -1.60913e-16 0)
(1.75809 0.171113 0)
(0.763881 0.173405 0)
(0.651267 0.176305 0)
(0.582023 0.187395 0)
(0.506762 0.198859 0)
(0.428604 0.213626 0)
(0.343462 0.228246 0)
(0.253057 0.251796 0)
(0.153219 0.270948 0)
(0.0600147 0.310365 0)
(3 1.15829e-16 0)
(3 -1.58933e-16 0)
(3 2.78272e-16 0)
(3 -4.15152e-17 0)
(3 1.38298e-15 0)
(3 -6.65054e-16 0)
(3 4.7623e-16 0)
(3 -2.04881e-16 0)
(3 -4.45664e-16 0)
(3 -9.25213e-16 0)
(1.82447 0.190041 0)
(0.773232 0.196284 0)
(0.654869 0.196899 0)
(0.587279 0.208733 0)
(0.513952 0.222047 0)
(0.437337 0.23973 0)
(0.352112 0.257463 0)
(0.26002 0.284673 0)
(0.156466 0.305611 0)
(0.0601067 0.347434 0)
(3 2.67266e-18 0)
(3 -1.15322e-15 0)
(3 -1.9177e-15 0)
(3 -1.38583e-15 0)
(3 1.14691e-15 0)
(3 6.69933e-16 0)
(3 -2.54167e-15 0)
(3 -1.8207e-15 0)
(3 -9.14742e-16 0)
(3 -1.24484e-15 0)
(1.90013 0.208371 0)
(0.783974 0.220229 0)
(0.657659 0.217414 0)
(0.590959 0.229631 0)
(0.519581 0.244811 0)
(0.445326 0.265659 0)
(0.36154 0.286926 0)
(0.269805 0.318212 0)
(0.163827 0.341483 0)
(0.0637036 0.385899 0)
(3 1.50592e-16 0)
(3 -2.5617e-16 0)
(3 7.78045e-17 0)
(3 1.58903e-15 0)
(3 -5.81086e-16 0)
(3 7.00758e-16 0)
(3 3.12879e-16 0)
(3 -6.02841e-16 0)
(3 -6.09505e-16 0)
(3 -2.11602e-16 0)
(1.98603 0.225929 0)
(0.796834 0.245672 0)
(0.66034 0.23831 0)
(0.593302 0.250344 0)
(0.523071 0.267145 0)
(0.451051 0.291318 0)
(0.368879 0.316769 0)
(0.277403 0.35312 0)
(0.168304 0.379789 0)
(0.0638467 0.426654 0)
(3 6.31016e-16 0)
(3 1.72344e-15 0)
(3 -3.04239e-16 0)
(3 -1.74551e-16 0)
(3 -3.39559e-16 0)
(3 6.17915e-16 0)
(3 1.69911e-15 0)
(3 7.9467e-16 0)
(3 1.29361e-15 0)
(3 5.52525e-16 0)
(2.08293 0.241592 0)
(0.81348 0.272402 0)
(0.665421 0.259615 0)
(0.597603 0.271007 0)
(0.528087 0.288961 0)
(0.458332 0.316181 0)
(0.378654 0.346005 0)
(0.289428 0.387956 0)
(0.17889 0.419222 0)
(0.0694592 0.469509 0)
(3 -2.46771e-16 0)
(3 1.43347e-16 0)
(3 6.78236e-17 0)
(3 1.26404e-15 0)
(3 1.29087e-15 0)
(3 1.75429e-15 0)
(3 1.35678e-15 0)
(3 1.64222e-15 0)
(3 1.39713e-15 0)
(3 -1.06006e-15 0)
(2.18821 0.254705 0)
(0.832334 0.300708 0)
(0.671468 0.281659 0)
(0.603049 0.292259 0)
(0.534066 0.311046 0)
(0.466264 0.341061 0)
(0.388692 0.375506 0)
(0.301305 0.424095 0)
(0.18714 0.462415 0)
(0.0697103 0.516453 0)
(3 -2.53716e-16 0)
(3 -3.27829e-16 0)
(3 1.38458e-15 0)
(3 -1.38087e-16 0)
(3 8.63376e-16 0)
(3 1.02406e-15 0)
(3 1.53981e-15 0)
(3 -2.02855e-16 0)
(3 1.67342e-15 0)
(3 -1.89212e-15 0)
(2.30263 0.265348 0)
(0.854862 0.330314 0)
(0.681073 0.303174 0)
(0.613825 0.312686 0)
(0.545793 0.332078 0)
(0.479641 0.364758 0)
(0.404575 0.403948 0)
(0.319779 0.459692 0)
(0.204605 0.50706 0)
(0.0794995 0.567059 0)
(3 7.00542e-16 0)
(3 1.8712e-15 0)
(3 5.2033e-16 0)
(3 -3.57383e-17 0)
(3 8.26156e-16 0)
(3 2.18142e-15 0)
(3 3.28921e-15 0)
(3 1.78513e-15 0)
(3 1.14544e-15 0)
(3 -1.52192e-15 0)
(2.42861 0.272833 0)
(0.882217 0.361437 0)
(0.687389 0.324418 0)
(0.620252 0.333811 0)
(0.554524 0.353707 0)
(0.492839 0.388638 0)
(0.422406 0.432089 0)
(0.340236 0.496904 0)
(0.221052 0.558256 0)
(0.0815132 0.626233 0)
(3 1.2258e-16 0)
(3 -1.0575e-16 0)
(3 -2.23692e-16 0)
(3 2.78913e-16 0)
(3 8.63358e-16 0)
(3 2.50003e-15 0)
(3 3.03062e-15 0)
(3 2.27531e-15 0)
(3 1.34207e-15 0)
(3 -1.70629e-15 0)
(2.56981 0.275304 0)
(0.913054 0.399118 0)
(0.696408 0.350495 0)
(0.629415 0.356227 0)
(0.56444 0.374701 0)
(0.508083 0.41053 0)
(0.442671 0.458944 0)
(0.368268 0.533107 0)
(0.252172 0.610597 0)
(0.0989831 0.692601 0)
(3 5.05535e-16 0)
(3 2.56256e-16 0)
(3 2.66536e-16 0)
(3 3.13222e-16 0)
(3 3.32147e-16 0)
(3 5.85704e-16 0)
(3 7.38836e-16 0)
(3 6.64492e-16 0)
(3 -9.36151e-16 0)
(3 2.12119e-15 0)
(2.76553 0.26155 0)
(0.979219 0.432075 0)
(0.734881 0.371736 0)
(0.658546 0.379355 0)
(0.58397 0.396628 0)
(0.525517 0.432119 0)
(0.465151 0.484491 0)
(0.399099 0.569449 0)
(0.283093 0.673612 0)
(0.105046 0.778592 0)
(3 4.76943e-16 0)
(3 1.58468e-15 0)
(3 1.35695e-15 0)
(3 1.31166e-15 0)
(3 -1.85162e-16 0)
(3 -3.72797e-15 0)
(3 -1.457e-15 0)
(3 -3.27519e-16 0)
(3 1.15428e-15 0)
(3 -5.97246e-16 0)
(2.9923 0.186974 0)
(1.08347 0.458806 0)
(0.808017 0.389909 0)
(0.715477 0.40373 0)
(0.621887 0.419622 0)
(0.55146 0.45333 0)
(0.490812 0.508538 0)
(0.436234 0.603992 0)
(0.33703 0.73479 0)
(0.134671 0.876265 0)
(3 -1.72646e-17 0)
(3 8.00636e-16 0)
(3 1.32252e-15 0)
(3 1.21826e-15 0)
(3 -1.00678e-15 0)
(3 -1.07191e-15 0)
(3 -2.08004e-16 0)
(3 6.92392e-16 0)
(3 2.00709e-15 0)
(3 2.17951e-16 0)
(3.09167 0.0607403 0)
(1.1808 0.453662 0)
(0.85571 0.423969 0)
(0.770682 0.43602 0)
(0.669806 0.448082 0)
(0.586479 0.477561 0)
(0.522039 0.532201 0)
(0.478151 0.63432 0)
(0.406081 0.802232 0)
(0.204664 1.03849 0)
(3 5.01538e-16 0)
(3 3.78012e-16 0)
(3 2.86851e-16 0)
(3 5.06766e-16 0)
(3 4.44296e-17 0)
(3 -2.06573e-16 0)
(3 -1.36532e-16 0)
(3 2.87792e-16 0)
(3 1.41764e-16 0)
(3 -8.22269e-16 0)
(1.52077 0.0076129 0)
(0.739811 0.00876208 0)
(0.650438 0.0104126 0)
(0.581138 0.0111247 0)
(0.50645 0.0116895 0)
(0.430162 0.012388 0)
(0.349848 0.0132347 0)
(0.262842 0.01479 0)
(0.166211 0.0162895 0)
(0.063636 0.0190558 0)
(3 -1.7505e-16 0)
(3 -4.45772e-16 0)
(3 1.57588e-16 0)
(3 1.47998e-17 0)
(3 -1.74967e-16 0)
(3 -1.51992e-17 0)
(3 3.1732e-16 0)
(3 1.4033e-15 0)
(3 5.05467e-16 0)
(3 -7.97939e-16 0)
(1.51785 0.0266518 0)
(0.732976 0.0267626 0)
(0.642185 0.0290992 0)
(0.572892 0.0315773 0)
(0.498421 0.0336779 0)
(0.422807 0.0362876 0)
(0.343802 0.0393721 0)
(0.25879 0.0445256 0)
(0.164152 0.0494135 0)
(0.0633245 0.0579961 0)
(3 -1.56377e-16 0)
(3 4.73205e-17 0)
(3 -5.44672e-16 0)
(3 2.83642e-16 0)
(3 2.23115e-16 0)
(3 7.62709e-16 0)
(3 1.0205e-15 0)
(3 8.28925e-16 0)
(3 9.00132e-16 0)
(3 1.29208e-16 0)
(1.52765 0.0489131 0)
(0.73161 0.0462084 0)
(0.637427 0.0493831 0)
(0.566496 0.0530666 0)
(0.490755 0.0561644 0)
(0.41443 0.0600962 0)
(0.335556 0.0648131 0)
(0.252041 0.073191 0)
(0.159774 0.0813794 0)
(0.062279 0.0959476 0)
(3 1.76954e-16 0)
(3 5.40591e-17 0)
(3 -3.70357e-16 0)
(3 -6.06775e-17 0)
(3 -2.43269e-17 0)
(3 5.33623e-16 0)
(3 1.09338e-15 0)
(3 6.03332e-16 0)
(3 -4.60789e-16 0)
(3 6.57656e-16 0)
(1.54818 0.0709072 0)
(0.734515 0.0663691 0)
(0.637168 0.0701695 0)
(0.56461 0.0752587 0)
(0.487077 0.0794603 0)
(0.409123 0.084645 0)
(0.329105 0.0905997 0)
(0.245745 0.101617 0)
(0.154772 0.112631 0)
(0.0606225 0.132984 0)
(3 -2.29991e-16 0)
(3 -1.83951e-16 0)
(3 1.18189e-16 0)
(3 -2.2992e-16 0)
(3 1.00354e-17 0)
(3 -3.9894e-16 0)
(3 2.70283e-16 0)
(3 2.64306e-16 0)
(3 -5.95519e-16 0)
(3 2.98077e-16 0)
(1.57639 0.0918368 0)
(0.739209 0.0871405 0)
(0.639091 0.0913318 0)
(0.565691 0.0977853 0)
(0.487054 0.103218 0)
(0.407731 0.109808 0)
(0.326123 0.116942 0)
(0.241876 0.130239 0)
(0.150909 0.14347 0)
(0.0594603 0.168997 0)
(3 -1.93455e-16 0)
(3 6.22015e-17 0)
(3 -5.54523e-17 0)
(3 -2.20499e-16 0)
(3 4.49383e-16 0)
(3 9.82707e-17 0)
(3 6.54122e-17 0)
(3 6.77225e-17 0)
(3 2.5701e-17 0)
(3 -9.06278e-16 0)
(1.61107 0.111982 0)
(0.744511 0.108225 0)
(0.641974 0.112768 0)
(0.56861 0.120487 0)
(0.489745 0.127216 0)
(0.409739 0.135413 0)
(0.326643 0.143902 0)
(0.240785 0.159424 0)
(0.148368 0.174359 0)
(0.0581275 0.204232 0)
(3 -5.97553e-17 0)
(3 3.4923e-16 0)
(3 4.39596e-16 0)
(3 4.96105e-16 0)
(3 5.7585e-16 0)
(3 1.24052e-16 0)
(3 2.045e-16 0)
(3 -1.4645e-16 0)
(3 3.43204e-16 0)
(3 -8.27074e-16 0)
(1.65226 0.1318 0)
(0.750016 0.129553 0)
(0.645032 0.134204 0)
(0.572659 0.14313 0)
(0.494477 0.151253 0)
(0.414566 0.161279 0)
(0.330501 0.171368 0)
(0.24323 0.189261 0)
(0.148936 0.205702 0)
(0.0587518 0.239304 0)
(3 4.92199e-16 0)
(3 2.92948e-16 0)
(3 1.69686e-17 0)
(3 5.71434e-16 0)
(3 5.71797e-16 0)
(3 9.01555e-16 0)
(3 2.19279e-16 0)
(3 -4.76371e-16 0)
(3 7.22425e-18 0)
(3 -5.17138e-16 0)
(1.70084 0.151587 0)
(0.756197 0.151227 0)
(0.648033 0.155407 0)
(0.577259 0.165465 0)
(0.50045 0.175144 0)
(0.421114 0.187355 0)
(0.335954 0.199526 0)
(0.246429 0.220113 0)
(0.149077 0.237863 0)
(0.0579426 0.274558 0)
(3 -8.41567e-17 0)
(3 -3.27908e-16 0)
(3 -3.49745e-16 0)
(3 8.71572e-16 0)
(3 1.04057e-15 0)
(3 1.23864e-15 0)
(3 5.36837e-16 0)
(3 -3.23528e-16 0)
(3 -8.40237e-16 0)
(3 1.43288e-16 0)
(1.75809 0.171113 0)
(0.763881 0.173405 0)
(0.651267 0.176305 0)
(0.582023 0.187395 0)
(0.506762 0.198859 0)
(0.428604 0.213626 0)
(0.343462 0.228246 0)
(0.253057 0.251796 0)
(0.153219 0.270948 0)
(0.0600147 0.310365 0)
(3 -4.12439e-16 0)
(3 -2.35971e-16 0)
(3 -5.13e-16 0)
(3 -2.71999e-16 0)
(3 1.67205e-16 0)
(3 6.05005e-17 0)
(3 -3.4548e-16 0)
(3 -4.89693e-16 0)
(3 -5.24322e-16 0)
(3 -3.46961e-16 0)
(1.82447 0.190041 0)
(0.773232 0.196284 0)
(0.654869 0.196899 0)
(0.587279 0.208733 0)
(0.513952 0.222047 0)
(0.437337 0.23973 0)
(0.352112 0.257463 0)
(0.26002 0.284673 0)
(0.156466 0.305611 0)
(0.0601067 0.347434 0)
(3 -4.94057e-18 0)
(3 -7.98058e-16 0)
(3 -1.5587e-15 0)
(3 -1.65131e-15 0)
(3 -1.5437e-16 0)
(3 2.95046e-17 0)
(3 -3.13728e-16 0)
(3 -6.97305e-16 0)
(3 -4.79088e-16 0)
(3 -6.06567e-16 0)
(1.90013 0.208371 0)
(0.783974 0.220229 0)
(0.657659 0.217414 0)
(0.590959 0.229631 0)
(0.519581 0.244811 0)
(0.445326 0.265659 0)
(0.36154 0.286926 0)
(0.269805 0.318212 0)
(0.163827 0.341483 0)
(0.0637036 0.385899 0)
(3 4.0185e-16 0)
(3 -1.87716e-17 0)
(3 -5.59379e-16 0)
(3 -8.94689e-16 0)
(3 -7.26739e-16 0)
(3 -1.29723e-16 0)
(3 1.84251e-16 0)
(3 -1.78778e-16 0)
(3 -5.1533e-16 0)
(3 -1.27864e-15 0)
(1.98603 0.225929 0)
(0.796834 0.245672 0)
(0.66034 0.23831 0)
(0.593302 0.250344 0)
(0.523071 0.267145 0)
(0.451051 0.291318 0)
(0.368879 0.316769 0)
(0.277403 0.35312 0)
(0.168304 0.379789 0)
(0.0638467 0.426654 0)
(3 1.06763e-16 0)
(3 2.75853e-16 0)
(3 1.72347e-17 0)
(3 -7.73351e-17 0)
(3 -2.06141e-16 0)
(3 -3.26986e-16 0)
(3 -2.1453e-16 0)
(3 -1.06378e-16 0)
(3 -2.38221e-16 0)
(3 -9.57117e-16 0)
(2.08293 0.241592 0)
(0.81348 0.272402 0)
(0.665421 0.259615 0)
(0.597603 0.271007 0)
(0.528087 0.288961 0)
(0.458332 0.316181 0)
(0.378654 0.346005 0)
(0.289428 0.387956 0)
(0.17889 0.419222 0)
(0.0694592 0.469509 0)
(3 -3.38531e-16 0)
(3 -2.59482e-16 0)
(3 1.55181e-16 0)
(3 1.90816e-16 0)
(3 2.07474e-16 0)
(3 5.12279e-16 0)
(3 2.42488e-16 0)
(3 1.63282e-16 0)
(3 2.5712e-16 0)
(3 -4.52127e-16 0)
(2.18821 0.254705 0)
(0.832334 0.300708 0)
(0.671468 0.281659 0)
(0.603049 0.292259 0)
(0.534066 0.311046 0)
(0.466264 0.341061 0)
(0.388692 0.375506 0)
(0.301305 0.424095 0)
(0.18714 0.462415 0)
(0.0697103 0.516453 0)
(3 5.70636e-17 0)
(3 1.98952e-16 0)
(3 3.46398e-16 0)
(3 1.85416e-16 0)
(3 -2.42928e-16 0)
(3 -5.14117e-16 0)
(3 2.47333e-16 0)
(3 6.0474e-16 0)
(3 4.41435e-16 0)
(3 1.5939e-16 0)
(2.30263 0.265348 0)
(0.854862 0.330314 0)
(0.681073 0.303174 0)
(0.613825 0.312686 0)
(0.545793 0.332078 0)
(0.479641 0.364758 0)
(0.404575 0.403948 0)
(0.319779 0.459692 0)
(0.204605 0.50706 0)
(0.0794995 0.567059 0)
(3 1.59075e-16 0)
(3 7.88842e-16 0)
(3 8.93091e-17 0)
(3 -3.85798e-16 0)
(3 -1.1078e-15 0)
(3 -5.83364e-16 0)
(3 -1.41282e-16 0)
(3 6.73682e-17 0)
(3 -5.81232e-16 0)
(3 -6.17658e-16 0)
(2.42861 0.272833 0)
(0.882217 0.361437 0)
(0.687389 0.324418 0)
(0.620252 0.333811 0)
(0.554524 0.353707 0)
(0.492839 0.388638 0)
(0.422406 0.432089 0)
(0.340236 0.496904 0)
(0.221052 0.558256 0)
(0.0815132 0.626233 0)
(3 1.62841e-16 0)
(3 -8.43326e-17 0)
(3 -1.02342e-16 0)
(3 -3.66898e-16 0)
(3 -6.07796e-16 0)
(3 3.49752e-16 0)
(3 -4.1428e-16 0)
(3 -5.26348e-16 0)
(3 -7.10905e-16 0)
(3 -8.73257e-16 0)
(2.56981 0.275304 0)
(0.913054 0.399118 0)
(0.696408 0.350495 0)
(0.629415 0.356227 0)
(0.56444 0.374701 0)
(0.508083 0.41053 0)
(0.442671 0.458944 0)
(0.368268 0.533107 0)
(0.252172 0.610597 0)
(0.0989831 0.692601 0)
(3 2.60162e-16 0)
(3 -1.75102e-16 0)
(3 -3.03541e-16 0)
(3 2.86458e-16 0)
(3 7.10977e-16 0)
(3 5.57683e-16 0)
(3 3.91465e-16 0)
(3 -5.16939e-16 0)
(3 -6.86776e-16 0)
(3 1.20637e-16 0)
(2.76553 0.26155 0)
(0.979219 0.432075 0)
(0.734881 0.371736 0)
(0.658546 0.379355 0)
(0.58397 0.396628 0)
(0.525517 0.432119 0)
(0.465151 0.484491 0)
(0.399099 0.569449 0)
(0.283093 0.673612 0)
(0.105046 0.778592 0)
(3 4.98234e-17 0)
(3 2.84742e-16 0)
(3 6.87491e-18 0)
(3 8.31469e-16 0)
(3 5.46732e-16 0)
(3 -5.71001e-16 0)
(3 -1.09415e-17 0)
(3 -7.72756e-17 0)
(3 4.39633e-16 0)
(3 -2.45172e-16 0)
(2.9923 0.186974 0)
(1.08347 0.458806 0)
(0.808017 0.389909 0)
(0.715477 0.40373 0)
(0.621887 0.419622 0)
(0.55146 0.45333 0)
(0.490812 0.508538 0)
(0.436234 0.603992 0)
(0.33703 0.73479 0)
(0.134671 0.876265 0)
(3 2.80885e-16 0)
(3 -4.65789e-17 0)
(3 1.12891e-16 0)
(3 1.97974e-16 0)
(3 -1.68556e-16 0)
(3 -1.81101e-16 0)
(3 2.68098e-16 0)
(3 6.18551e-16 0)
(3 7.84927e-16 0)
(3 -2.67732e-16 0)
(3.09167 0.0607403 0)
(1.1808 0.453662 0)
(0.85571 0.423969 0)
(0.770682 0.43602 0)
(0.669806 0.448082 0)
(0.586479 0.477561 0)
(0.522039 0.532201 0)
(0.478151 0.63432 0)
(0.406081 0.802232 0)
(0.204664 1.03849 0)
(3 1.87164e-17 0)
(3 2.84373e-16 0)
(3 1.86436e-16 0)
(3 5.63354e-16 0)
(3 7.08606e-17 0)
(3 -2.08834e-16 0)
(3 -1.36594e-16 0)
(3 4.63435e-18 0)
(3 1.83201e-16 0)
(3 -1.08887e-15 0)
(1.52077 0.0076129 0)
(0.739811 0.00876208 0)
(0.650438 0.0104126 0)
(0.581138 0.0111247 0)
(0.50645 0.0116895 0)
(0.430162 0.012388 0)
(0.349848 0.0132347 0)
(0.262842 0.01479 0)
(0.166211 0.0162895 0)
(0.063636 0.0190558 0)
(3 -1.5154e-16 0)
(3 -2.87323e-17 0)
(3 -5.61729e-17 0)
(3 2.65809e-16 0)
(3 2.40188e-16 0)
(3 4.17155e-16 0)
(3 4.29447e-16 0)
(3 4.08861e-16 0)
(3 3.61914e-16 0)
(3 -6.81919e-16 0)
(1.51785 0.0266518 0)
(0.732976 0.0267626 0)
(0.642185 0.0290992 0)
(0.572892 0.0315773 0)
(0.498421 0.0336779 0)
(0.422807 0.0362876 0)
(0.343802 0.0393721 0)
(0.25879 0.0445256 0)
(0.164152 0.0494135 0)
(0.0633245 0.0579961 0)
(3 -7.92762e-18 0)
(3 -2.09433e-16 0)
(3 -5.40917e-16 0)
(3 4.64837e-17 0)
(3 3.74013e-16 0)
(3 5.78179e-16 0)
(3 3.77373e-16 0)
(3 5.25504e-16 0)
(3 7.34449e-16 0)
(3 1.46348e-16 0)
(1.52765 0.0489131 0)
(0.73161 0.0462084 0)
(0.637427 0.0493831 0)
(0.566496 0.0530666 0)
(0.490755 0.0561644 0)
(0.41443 0.0600962 0)
(0.335556 0.0648131 0)
(0.252041 0.073191 0)
(0.159774 0.0813794 0)
(0.062279 0.0959476 0)
(3 2.45973e-16 0)
(3 -7.40528e-17 0)
(3 -6.01055e-16 0)
(3 -2.87374e-16 0)
(3 -6.56043e-17 0)
(3 1.74853e-17 0)
(3 6.79303e-16 0)
(3 6.31209e-16 0)
(3 5.67506e-16 0)
(3 2.58591e-16 0)
(1.54818 0.0709072 0)
(0.734515 0.0663691 0)
(0.637168 0.0701695 0)
(0.56461 0.0752587 0)
(0.487077 0.0794603 0)
(0.409123 0.084645 0)
(0.329105 0.0905997 0)
(0.245745 0.101617 0)
(0.154772 0.112631 0)
(0.0606225 0.132984 0)
(3 -8.78782e-17 0)
(3 -1.299e-16 0)
(3 -7.41375e-17 0)
(3 -4.93373e-16 0)
(3 -7.87842e-16 0)
(3 -6.13039e-16 0)
(3 6.22783e-16 0)
(3 3.36061e-16 0)
(3 -2.48106e-16 0)
(3 -6.1951e-18 0)
(1.57639 0.0918368 0)
(0.739209 0.0871405 0)
(0.639091 0.0913318 0)
(0.565691 0.0977853 0)
(0.487054 0.103218 0)
(0.407731 0.109808 0)
(0.326123 0.116942 0)
(0.241876 0.130239 0)
(0.150909 0.14347 0)
(0.0594603 0.168997 0)
(3 -1.86927e-16 0)
(3 1.79983e-16 0)
(3 5.17641e-16 0)
(3 2.28746e-16 0)
(3 2.58507e-17 0)
(3 -1.58973e-16 0)
(3 3.7903e-16 0)
(3 6.2052e-17 0)
(3 2.88098e-17 0)
(3 -8.55175e-16 0)
(1.61107 0.111982 0)
(0.744511 0.108225 0)
(0.641974 0.112768 0)
(0.56861 0.120487 0)
(0.489745 0.127216 0)
(0.409739 0.135413 0)
(0.326643 0.143902 0)
(0.240785 0.159424 0)
(0.148368 0.174359 0)
(0.0581275 0.204232 0)
(3 -4.08495e-17 0)
(3 3.09009e-16 0)
(3 6.09325e-16 0)
(3 6.08148e-16 0)
(3 3.42529e-16 0)
(3 8.37106e-17 0)
(3 2.45751e-16 0)
(3 4.3444e-17 0)
(3 3.12347e-17 0)
(3 -9.02772e-16 0)
(1.65226 0.1318 0)
(0.750016 0.129553 0)
(0.645032 0.134204 0)
(0.572659 0.14313 0)
(0.494477 0.151253 0)
(0.414566 0.161279 0)
(0.330501 0.171368 0)
(0.24323 0.189261 0)
(0.148936 0.205702 0)
(0.0587518 0.239304 0)
(3 3.79561e-17 0)
(3 3.11077e-16 0)
(3 1.87666e-16 0)
(3 3.32909e-16 0)
(3 1.80995e-16 0)
(3 4.28784e-16 0)
(3 1.58161e-16 0)
(3 -5.21085e-16 0)
(3 -5.76321e-16 0)
(3 -2.2275e-16 0)
(1.70084 0.151587 0)
(0.756197 0.151227 0)
(0.648033 0.155407 0)
(0.577259 0.165465 0)
(0.50045 0.175144 0)
(0.421114 0.187355 0)
(0.335954 0.199526 0)
(0.246429 0.220113 0)
(0.149077 0.237863 0)
(0.0579426 0.274558 0)
(3 7.19991e-17 0)
(3 -1.0316e-17 0)
(3 -4.05076e-16 0)
(3 -1.17054e-16 0)
(3 1.14608e-16 0)
(3 5.69168e-16 0)
(3 -1.69693e-17 0)
(3 -8.32392e-16 0)
(3 -8.76411e-16 0)
(3 1.36924e-16 0)
(1.75809 0.171113 0)
(0.763881 0.173405 0)
(0.651267 0.176305 0)
(0.582023 0.187395 0)
(0.506762 0.198859 0)
(0.428604 0.213626 0)
(0.343462 0.228246 0)
(0.253057 0.251796 0)
(0.153219 0.270948 0)
(0.0600147 0.310365 0)
(3 -1.11482e-16 0)
(3 -1.02689e-16 0)
(3 -4.23888e-16 0)
(3 -6.99956e-16 0)
(3 -3.01813e-16 0)
(3 -2.64505e-16 0)
(3 -3.37095e-16 0)
(3 -5.17486e-16 0)
(3 -5.27494e-16 0)
(3 -9.62289e-16 0)
(1.82447 0.190041 0)
(0.773232 0.196284 0)
(0.654869 0.196899 0)
(0.587279 0.208733 0)
(0.513952 0.222047 0)
(0.437337 0.23973 0)
(0.352112 0.257463 0)
(0.26002 0.284673 0)
(0.156466 0.305611 0)
(0.0601067 0.347434 0)
(3 1.32797e-16 0)
(3 -6.3225e-16 0)
(3 -1.42848e-15 0)
(3 -9.15037e-16 0)
(3 -4.80576e-16 0)
(3 -6.46822e-17 0)
(3 -9.75659e-17 0)
(3 -1.09415e-16 0)
(3 -3.57006e-16 0)
(3 -1.05642e-15 0)
(1.90013 0.208371 0)
(0.783974 0.220229 0)
(0.657659 0.217414 0)
(0.590959 0.229631 0)
(0.519581 0.244811 0)
(0.445326 0.265659 0)
(0.36154 0.286926 0)
(0.269805 0.318212 0)
(0.163827 0.341483 0)
(0.0637036 0.385899 0)
(3 1.02078e-16 0)
(3 -3.8877e-16 0)
(3 -6.47799e-16 0)
(3 -5.72462e-16 0)
(3 -3.61013e-16 0)
(3 -9.27459e-17 0)
(3 1.09553e-16 0)
(3 -1.71165e-16 0)
(3 -2.23597e-16 0)
(3 -1.20923e-15 0)
(1.98603 0.225929 0)
(0.796834 0.245672 0)
(0.66034 0.23831 0)
(0.593302 0.250344 0)
(0.523071 0.267145 0)
(0.451051 0.291318 0)
(0.368879 0.316769 0)
(0.277403 0.35312 0)
(0.168304 0.379789 0)
(0.0638467 0.426654 0)
(3 2.94139e-19 0)
(3 5.23313e-16 0)
(3 5.40929e-16 0)
(3 -6.81524e-17 0)
(3 3.99289e-16 0)
(3 -2.35737e-16 0)
(3 -9.28199e-17 0)
(3 -2.76503e-16 0)
(3 -3.29377e-16 0)
(3 -8.91838e-16 0)
(2.08293 0.241592 0)
(0.81348 0.272402 0)
(0.665421 0.259615 0)
(0.597603 0.271007 0)
(0.528087 0.288961 0)
(0.458332 0.316181 0)
(0.378654 0.346005 0)
(0.289428 0.387956 0)
(0.17889 0.419222 0)
(0.0694592 0.469509 0)
(3 -4.50554e-17 0)
(3 -1.26796e-16 0)
(3 4.6482e-16 0)
(3 3.43643e-16 0)
(3 3.84689e-16 0)
(3 1.95372e-16 0)
(3 2.79216e-16 0)
(3 1.96141e-16 0)
(3 -1.19436e-17 0)
(3 -5.70213e-16 0)
(2.18821 0.254705 0)
(0.832334 0.300708 0)
(0.671468 0.281659 0)
(0.603049 0.292259 0)
(0.534066 0.311046 0)
(0.466264 0.341061 0)
(0.388692 0.375506 0)
(0.301305 0.424095 0)
(0.18714 0.462415 0)
(0.0697103 0.516453 0)
(3 5.65158e-17 0)
(3 2.65134e-16 0)
(3 -1.33111e-16 0)
(3 1.11445e-17 0)
(3 -4.30036e-16 0)
(3 -3.21368e-18 0)
(3 4.45534e-16 0)
(3 8.8283e-16 0)
(3 3.69057e-16 0)
(3 2.0621e-16 0)
(2.30263 0.265348 0)
(0.854862 0.330314 0)
(0.681073 0.303174 0)
(0.613825 0.312686 0)
(0.545793 0.332078 0)
(0.479641 0.364758 0)
(0.404575 0.403948 0)
(0.319779 0.459692 0)
(0.204605 0.50706 0)
(0.0794995 0.567059 0)
(3 1.45396e-16 0)
(3 3.98012e-16 0)
(3 8.78423e-17 0)
(3 -4.80476e-16 0)
(3 -8.45371e-16 0)
(3 -3.5664e-16 0)
(3 -4.3069e-16 0)
(3 -2.09809e-16 0)
(3 -2.65393e-16 0)
(3 -8.42485e-16 0)
(2.42861 0.272833 0)
(0.882217 0.361437 0)
(0.687389 0.324418 0)
(0.620252 0.333811 0)
(0.554524 0.353707 0)
(0.492839 0.388638 0)
(0.422406 0.432089 0)
(0.340236 0.496904 0)
(0.221052 0.558256 0)
(0.0815132 0.626233 0)
(3 -9.95202e-17 0)
(3 -2.67555e-16 0)
(3 3.53521e-17 0)
(3 -2.06338e-16 0)
(3 -6.22775e-17 0)
(3 -2.5448e-16 0)
(3 -3.11723e-16 0)
(3 -6.34635e-16 0)
(3 -8.2075e-16 0)
(3 -9.99965e-16 0)
(2.56981 0.275304 0)
(0.913054 0.399118 0)
(0.696408 0.350495 0)
(0.629415 0.356227 0)
(0.56444 0.374701 0)
(0.508083 0.41053 0)
(0.442671 0.458944 0)
(0.368268 0.533107 0)
(0.252172 0.610597 0)
(0.0989831 0.692601 0)
(3 4.10502e-17 0)
(3 -3.10316e-16 0)
(3 -1.74846e-16 0)
(3 1.27045e-16 0)
(3 4.16382e-16 0)
(3 1.10239e-16 0)
(3 -1.50101e-17 0)
(3 -6.99913e-16 0)
(3 -9.25694e-16 0)
(3 -7.43686e-18 0)
(2.76553 0.26155 0)
(0.979219 0.432075 0)
(0.734881 0.371736 0)
(0.658546 0.379355 0)
(0.58397 0.396628 0)
(0.525517 0.432119 0)
(0.465151 0.484491 0)
(0.399099 0.569449 0)
(0.283093 0.673612 0)
(0.105046 0.778592 0)
(3 7.02032e-17 0)
(3 -8.64475e-17 0)
(3 6.6236e-17 0)
(3 6.03891e-16 0)
(3 5.64861e-16 0)
(3 2.41748e-16 0)
(3 1.0705e-16 0)
(3 -9.95495e-17 0)
(3 1.50889e-16 0)
(3 -4.67704e-16 0)
(2.9923 0.186974 0)
(1.08347 0.458806 0)
(0.808017 0.389909 0)
(0.715477 0.40373 0)
(0.621887 0.419622 0)
(0.55146 0.45333 0)
(0.490812 0.508538 0)
(0.436234 0.603992 0)
(0.33703 0.73479 0)
(0.134671 0.876265 0)
(3 5.94007e-17 0)
(3 -2.44409e-17 0)
(3 -1.27223e-16 0)
(3 -5.59239e-17 0)
(3 2.45875e-16 0)
(3 1.06725e-16 0)
(3 7.24072e-16 0)
(3 2.67396e-16 0)
(3 1.40708e-16 0)
(3 -2.44256e-16 0)
(3.09167 0.0607403 0)
(1.1808 0.453662 0)
(0.85571 0.423969 0)
(0.770682 0.43602 0)
(0.669806 0.448082 0)
(0.586479 0.477561 0)
(0.522039 0.532201 0)
(0.478151 0.63432 0)
(0.406081 0.802232 0)
(0.204664 1.03849 0)
(3 -2.18028e-16 0)
(3 -6.70165e-18 0)
(3 1.27062e-16 0)
(3 3.70183e-16 0)
(3 1.32762e-16 0)
(3 6.74886e-17 0)
(3 -1.15034e-16 0)
(3 2.03464e-16 0)
(3 6.55493e-17 0)
(3 3.11623e-17 0)
(1.52077 0.0076129 0)
(0.739811 0.00876208 0)
(0.650438 0.0104126 0)
(0.581138 0.0111247 0)
(0.50645 0.0116895 0)
(0.430162 0.012388 0)
(0.349848 0.0132347 0)
(0.262842 0.01479 0)
(0.166211 0.0162895 0)
(0.063636 0.0190558 0)
(3 -3.30069e-16 0)
(3 -3.95926e-16 0)
(3 -2.12659e-16 0)
(3 1.9887e-16 0)
(3 4.66109e-16 0)
(3 3.00638e-16 0)
(3 5.29804e-16 0)
(3 5.79991e-16 0)
(3 2.76123e-16 0)
(3 -8.23302e-17 0)
(1.51785 0.0266518 0)
(0.732976 0.0267626 0)
(0.642185 0.0290992 0)
(0.572892 0.0315773 0)
(0.498421 0.0336779 0)
(0.422807 0.0362876 0)
(0.343802 0.0393721 0)
(0.25879 0.0445256 0)
(0.164152 0.0494135 0)
(0.0633245 0.0579961 0)
(3 1.33814e-17 0)
(3 -4.17576e-16 0)
(3 -7.13507e-16 0)
(3 -1.29064e-16 0)
(3 4.02812e-16 0)
(3 6.29924e-16 0)
(3 5.78106e-16 0)
(3 2.0248e-16 0)
(3 3.83413e-16 0)
(3 -3.35905e-16 0)
(1.52765 0.0489131 0)
(0.73161 0.0462084 0)
(0.637427 0.0493831 0)
(0.566496 0.0530666 0)
(0.490755 0.0561644 0)
(0.41443 0.0600962 0)
(0.335556 0.0648131 0)
(0.252041 0.073191 0)
(0.159774 0.0813794 0)
(0.062279 0.0959476 0)
(3 5.85947e-16 0)
(3 2.69742e-16 0)
(3 -4.71061e-16 0)
(3 -2.81158e-16 0)
(3 -3.53425e-16 0)
(3 -1.2835e-16 0)
(3 -9.32835e-17 0)
(3 -2.64307e-16 0)
(3 1.84783e-16 0)
(3 -2.20702e-16 0)
(1.54818 0.0709072 0)
(0.734515 0.0663691 0)
(0.637168 0.0701695 0)
(0.56461 0.0752587 0)
(0.487077 0.0794603 0)
(0.409123 0.084645 0)
(0.329105 0.0905997 0)
(0.245745 0.101617 0)
(0.154772 0.112631 0)
(0.0606225 0.132984 0)
(3 -5.39191e-17 0)
(3 2.15906e-16 0)
(3 1.54016e-16 0)
(3 2.3429e-17 0)
(3 -3.71756e-16 0)
(3 -6.1462e-16 0)
(3 -6.869e-17 0)
(3 1.23745e-16 0)
(3 5.40798e-17 0)
(3 -7.62175e-18 0)
(1.57639 0.0918368 0)
(0.739209 0.0871405 0)
(0.639091 0.0913318 0)
(0.565691 0.0977853 0)
(0.487054 0.103218 0)
(0.407731 0.109808 0)
(0.326123 0.116942 0)
(0.241876 0.130239 0)
(0.150909 0.14347 0)
(0.0594603 0.168997 0)
(3 -2.90541e-16 0)
(3 2.20396e-16 0)
(3 5.48502e-16 0)
(3 2.64106e-16 0)
(3 -6.69859e-17 0)
(3 1.79032e-17 0)
(3 1.35275e-16 0)
(3 3.04708e-16 0)
(3 -2.37934e-16 0)
(3 -4.13254e-16 0)
(1.61107 0.111982 0)
(0.744511 0.108225 0)
(0.641974 0.112768 0)
(0.56861 0.120487 0)
(0.489745 0.127216 0)
(0.409739 0.135413 0)
(0.326643 0.143902 0)
(0.240785 0.159424 0)
(0.148368 0.174359 0)
(0.0581275 0.204232 0)
(3 -2.79334e-17 0)
(3 2.94318e-16 0)
(3 5.39081e-16 0)
(3 1.47059e-16 0)
(3 2.8752e-17 0)
(3 2.0841e-16 0)
(3 4.99759e-16 0)
(3 -5.73808e-17 0)
(3 -2.81001e-16 0)
(3 3.62101e-16 0)
(1.65226 0.1318 0)
(0.750016 0.129553 0)
(0.645032 0.134204 0)
(0.572659 0.14313 0)
(0.494477 0.151253 0)
(0.414566 0.161279 0)
(0.330501 0.171368 0)
(0.24323 0.189261 0)
(0.148936 0.205702 0)
(0.0587518 0.239304 0)
(3 4.65456e-16 0)
(3 5.16568e-16 0)
(3 4.27852e-16 0)
(3 3.72334e-17 0)
(3 1.79197e-16 0)
(3 1.30951e-16 0)
(3 4.92695e-16 0)
(3 -1.87055e-16 0)
(3 -1.08624e-16 0)
(3 4.73756e-16 0)
(1.70084 0.151587 0)
(0.756197 0.151227 0)
(0.648033 0.155407 0)
(0.577259 0.165465 0)
(0.50045 0.175144 0)
(0.421114 0.187355 0)
(0.335954 0.199526 0)
(0.246429 0.220113 0)
(0.149077 0.237863 0)
(0.0579426 0.274558 0)
(3 9.03111e-17 0)
(3 -1.70625e-16 0)
(3 -4.91552e-16 0)
(3 -2.76611e-16 0)
(3 -1.27256e-17 0)
(3 8.44554e-17 0)
(3 -2.88113e-16 0)
(3 -6.22473e-16 0)
(3 -7.91518e-16 0)
(3 -1.11844e-15 0)
(1.75809 0.171113 0)
(0.763881 0.173405 0)
(0.651267 0.176305 0)
(0.582023 0.187395 0)
(0.506762 0.198859 0)
(0.428604 0.213626 0)
(0.343462 0.228246 0)
(0.253057 0.251796 0)
(0.153219 0.270948 0)
(0.0600147 0.310365 0)
(3 -1.85661e-16 0)
(3 -2.00394e-17 0)
(3 -5.9881e-16 0)
(3 -4.42267e-16 0)
(3 -6.30076e-16 0)
(3 -2.97405e-16 0)
(3 -6.63568e-16 0)
(3 -5.47744e-16 0)
(3 -6.60003e-16 0)
(3 -1.24966e-15 0)
(1.82447 0.190041 0)
(0.773232 0.196284 0)
(0.654869 0.196899 0)
(0.587279 0.208733 0)
(0.513952 0.222047 0)
(0.437337 0.23973 0)
(0.352112 0.257463 0)
(0.26002 0.284673 0)
(0.156466 0.305611 0)
(0.0601067 0.347434 0)
(3 3.23023e-17 0)
(3 -3.36318e-16 0)
(3 -5.48793e-16 0)
(3 -6.32931e-16 0)
(3 -8.29088e-17 0)
(3 -4.87006e-17 0)
(3 -7.24072e-17 0)
(3 9.26051e-17 0)
(3 -2.36924e-16 0)
(3 -1.18745e-15 0)
(1.90013 0.208371 0)
(0.783974 0.220229 0)
(0.657659 0.217414 0)
(0.590959 0.229631 0)
(0.519581 0.244811 0)
(0.445326 0.265659 0)
(0.36154 0.286926 0)
(0.269805 0.318212 0)
(0.163827 0.341483 0)
(0.0637036 0.385899 0)
(3 -3.26456e-17 0)
(3 -7.08634e-16 0)
(3 -9.54549e-16 0)
(3 -4.17315e-16 0)
(3 -9.17418e-17 0)
(3 2.56905e-16 0)
(3 1.73385e-16 0)
(3 -2.42684e-16 0)
(3 -2.35525e-16 0)
(3 -1.34739e-15 0)
(1.98603 0.225929 0)
(0.796834 0.245672 0)
(0.66034 0.23831 0)
(0.593302 0.250344 0)
(0.523071 0.267145 0)
(0.451051 0.291318 0)
(0.368879 0.316769 0)
(0.277403 0.35312 0)
(0.168304 0.379789 0)
(0.0638467 0.426654 0)
(3 -1.19698e-17 0)
(3 1.78189e-16 0)
(3 -3.69531e-16 0)
(3 -7.4393e-17 0)
(3 1.195e-16 0)
(3 1.00565e-16 0)
(3 -1.06896e-17 0)
(3 -3.08293e-16 0)
(3 -7.25007e-17 0)
(3 -1.09361e-15 0)
(2.08293 0.241592 0)
(0.81348 0.272402 0)