/*--------------------------------*- C++ -*----------------------------------*\
  =========                 |
  \\      /  F ield         | OpenFOAM: The Open Source CFD Toolbox
   \\    /   O peration     | Website:  https://openfoam.org
    \\  /    A nd           | Version:  6.0
     \\/     M anipulation  |
\*---------------------------------------------------------------------------*/
FoamFile
{
    version     2.0;
    format      ascii;
    class       volScalarField;
    location    "2.5";
    object      p;
}
// * * * * * * * * * * * * * * * * * * * * * * * * * * * * * * * * * * * * * //

dimensions      [1 -1 -2 0 0 0 0];

internalField   nonuniform List<scalar> 
192000
(
0.758338
0.653488
0.611402
0.584044
0.56645
0.55351
0.543643
0.535795
0.529478
0.524006
0.519613
0.515444
0.512402
0.508963
0.507578
0.507813
0.509562
0.512685
0.530827
0.555763
0.675441
0.873455
1.6672
3.47952
4.75435
4.78408
4.75194
4.67227
4.65539
4.66762
4.71038
4.80053
4.88699
4.97533
5.09315
5.25906
5.5018
5.88912
6.51188
7.78539
0.758337
0.653489
0.611403
0.584046
0.566449
0.553511
0.543643
0.535795
0.529477
0.524006
0.519613
0.515444
0.5124
0.508967
0.507563
0.507798
0.50965
0.512582
0.531256
0.554682
0.677423
0.868703
1.67116
3.47532
4.75583
4.7855
4.75295
4.67269
4.65598
4.66821
4.71089
4.80077
4.88701
4.97533
5.09315
5.25902
5.50171
5.88883
6.51082
7.78537
0.758337
0.653489
0.611403
0.584045
0.566449
0.553511
0.543642
0.535795
0.529477
0.524006
0.519613
0.515444
0.512401
0.508967
0.507562
0.507797
0.509646
0.512575
0.531228
0.554629
0.677226
0.868109
1.67012
3.47217
4.75752
4.78677
4.75381
4.6732
4.65713
4.66945
4.71224
4.80177
4.88712
4.97524
5.0931
5.25894
5.50156
5.88812
6.50821
7.78101
0.758338
0.653488
0.611402
0.584044
0.56645
0.55351
0.543643
0.535795
0.529478
0.524006
0.519614
0.515443
0.512403
0.508962
0.507575
0.507809
0.509554
0.512666
0.530747
0.555611
0.674867
0.872005
1.66364
3.47066
4.75937
4.78799
4.75474
4.67421
4.65918
4.67168
4.71471
4.80382
4.88751
4.97512
5.09307
5.25891
5.50145
5.88711
6.50419
7.77098
0.758338
0.653489
0.611402
0.584043
0.56645
0.55351
0.543644
0.535795
0.529479
0.524006
0.519614
0.515443
0.512404
0.50896
0.507574
0.507804
0.509559
0.51266
0.530744
0.555686
0.674334
0.87232
1.6589
3.46411
4.76133
4.78982
4.75636
4.67603
4.66207
4.67473
4.71793
4.80641
4.88801
4.97498
5.0929
5.25868
5.50099
5.88537
6.49875
7.75905
0.758338
0.653488
0.611402
0.584044
0.56645
0.55351
0.543643
0.535795
0.529478
0.524007
0.519614
0.515444
0.512402
0.508962
0.507569
0.507802
0.509543
0.512645
0.530639
0.555394
0.673858
0.869747
1.6556
3.45383
4.76376
4.79264
4.75901
4.67894
4.66592
4.67873
4.72203
4.80961
4.88892
4.97518
5.09286
5.25842
5.50024
5.88292
6.4923
7.7467
0.758337
0.653489
0.611403
0.584045
0.566449
0.553511
0.543642
0.535796
0.529478
0.524007
0.519613
0.515445
0.512399
0.508966
0.507554
0.507784
0.509643
0.512569
0.531032
0.554397
0.674915
0.864487
1.65339
3.4371
4.76563
4.79594
4.76239
4.68295
4.67076
4.6837
4.72704
4.81307
4.88998
4.97547
5.09273
5.25784
5.49883
5.87936
6.48467
7.73506
0.758336
0.653489
0.611403
0.584046
0.566449
0.553511
0.543642
0.535796
0.529477
0.524008
0.519611
0.515447
0.512396
0.508968
0.507552
0.507784
0.509624
0.512547
0.530898
0.554105
0.673874
0.860617
1.64816
3.41965
4.76674
4.799
4.76594
4.68784
4.67659
4.68977
4.73346
4.81697
4.89169
4.97624
5.09277
5.25716
5.49698
5.87493
6.47613
7.72218
0.758336
0.653488
0.611403
0.584047
0.566449
0.553511
0.543642
0.535796
0.529476
0.524009
0.51961
0.515449
0.512393
0.508971
0.507541
0.507768
0.509619
0.512516
0.530767
0.553826
0.672698
0.857686
1.63959
3.3978
4.76796
4.80249
4.77003
4.69356
4.68332
4.69675
4.74086
4.82142
4.89385
4.97728
5.09288
5.25615
5.49444
5.86949
6.46658
7.70883
0.758336
0.653488
0.611403
0.584047
0.566449
0.553512
0.543641
0.535797
0.529476
0.52401
0.519608
0.515451
0.512389
0.508975
0.507524
0.507748
0.50958
0.512452
0.530556
0.553433
0.67126
0.854126
1.62929
3.37116
4.76987
4.80677
4.77489
4.70003
4.6909
4.70462
4.74926
4.82677
4.89669
4.97873
5.09312
5.25492
5.49132
5.8632
6.45622
7.69507
0.758336
0.653488
0.611403
0.584047
0.566448
0.553512
0.543641
0.535798
0.529474
0.524012
0.519606
0.515455
0.512383
0.508982
0.507501
0.507723
0.509509
0.512357
0.530266
0.55293
0.66949
0.849924
1.61705
3.33945
4.77274
4.81197
4.78056
4.70709
4.69917
4.71327
4.7585
4.83304
4.90031
4.98062
5.09351
5.25346
5.48764
5.85616
6.44517
7.68065
0.758336
0.653488
0.611403
0.584047
0.566448
0.553512
0.543641
0.535798
0.529473
0.524013
0.519604
0.515458
0.512376
0.508991
0.507469
0.507683
0.509459
0.512258
0.529965
0.552349
0.667469
0.845071
1.60238
3.30056
4.777
4.8187
4.78753
4.71489
4.70803
4.7225
4.76827
4.84004
4.90466
4.98285
5.09396
5.25182
5.4834
5.84843
6.43358
7.66665
0.758336
0.653488
0.611403
0.584047
0.566448
0.553512
0.54364
0.535799
0.529472
0.524015
0.519601
0.515463
0.512367
0.509002
0.507431
0.507638
0.509375
0.512125
0.529575
0.551644
0.665065
0.839268
1.58547
3.25456
4.78242
4.82708
4.79587
4.72342
4.71737
4.73219
4.77843
4.84772
4.90972
4.98547
5.09452
5.25006
5.4786
5.84002
6.42159
7.65357
0.758337
0.653488
0.611404
0.584047
0.566447
0.553513
0.543639
0.5358
0.529471
0.524017
0.519597
0.515469
0.512357
0.509015
0.507384
0.507583
0.509272
0.511962
0.52912
0.550818
0.662336
0.833107
1.56548
3.2011
4.78914
4.83722
4.80558
4.73264
4.72718
4.74227
4.78891
4.85602
4.91547
4.98852
5.09518
5.24818
5.47325
5.831
6.40932
7.64161
0.758337
0.653489
0.611403
0.584047
0.566447
0.553513
0.543638
0.535801
0.529469
0.52402
0.519593
0.515475
0.512345
0.50903
0.507329
0.507517
0.509139
0.51176
0.528584
0.549914
0.659215
0.826997
1.54161
3.13969
4.7975
4.84902
4.81666
4.74254
4.73739
4.75268
4.79957
4.86479
4.92182
4.99199
5.09578
5.246
5.46734
5.82137
6.39681
7.63096
0.758339
0.653488
0.611402
0.584045
0.566448
0.553513
0.543638
0.535802
0.529468
0.524022
0.519589
0.515481
0.512334
0.509042
0.507282
0.507461
0.508946
0.511649
0.527675
0.549752
0.654158
0.825531
1.50837
3.07306
4.80776
4.86243
4.82907
4.75305
4.74798
4.76342
4.81041
4.87397
4.92875
4.99592
5.09635
5.24348
5.46079
5.81113
6.38402
7.62109
0.758339
0.653488
0.611402
0.584044
0.566448
0.553513
0.543638
0.535803
0.529466
0.524025
0.519584
0.515488
0.512321
0.509058
0.507226
0.507391
0.508813
0.51143
0.527066
0.548686
0.650246
0.816721
1.47919
2.9945
4.82016
4.87771
4.84301
4.76424
4.75895
4.77447
4.82144
4.88354
4.93623
5.00034
5.09706
5.24069
5.45363
5.8003
6.37095
7.6117
0.758339
0.653488
0.611403
0.584045
0.566447
0.553514
0.543636
0.535805
0.529463
0.524028
0.519578
0.515496
0.512304
0.509078
0.507162
0.507317
0.508686
0.51122
0.52642
0.547391
0.645994
0.80708
1.44653
2.90512
4.83599
4.89517
4.85859
4.77578
4.76986
4.78539
4.83226
4.89313
4.94396
5.00504
5.09786
5.2377
5.44606
5.78915
6.35785
7.60334
0.758338
0.653488
0.611404
0.584047
0.566445
0.553515
0.543634
0.535806
0.52946
0.524032
0.519572
0.515506
0.512286
0.509101
0.507089
0.507231
0.508615
0.510914
0.526061
0.545297
0.642769
0.790438
1.41775
2.80067
4.85562
4.91495
4.87594
4.78784
4.78069
4.79616
4.84277
4.9025
4.95162
5.0097
5.09842
5.23415
5.43791
5.77735
6.34463
7.59687
0.758338
0.653488
0.611404
0.584048
0.566444
0.553515
0.543632
0.535808
0.529457
0.524036
0.519566
0.515515
0.51227
0.509121
0.507023
0.507152
0.508455
0.510655
0.525289
0.543862
0.63782
0.779077
1.37967
2.68998
4.87711
4.93532
4.89376
4.79993
4.79117
4.80656
4.85292
4.91162
4.95921
5.01442
5.09891
5.2301
5.42911
5.765
6.33146
7.59317
0.75834
0.653488
0.611403
0.584045
0.566445
0.553515
0.543632
0.535809
0.529455
0.524039
0.519561
0.515523
0.512257
0.509137
0.506966
0.507083
0.508226
0.510463
0.524167
0.543163
0.630991
0.77428
1.33125
2.58003
4.89802
4.95534
4.91132
4.812
4.80147
4.81664
4.86236
4.91996
4.96609
5.0186
5.0988
5.22517
5.41928
5.75191
6.31829
7.59278
0.758341
0.653488
0.611402
0.584044
0.566445
0.553515
0.543631
0.53581
0.529453
0.524042
0.519556
0.515531
0.512242
0.509155
0.506903
0.507004
0.508076
0.510211
0.523391
0.541767
0.625937
0.761139
1.29415
2.46789
4.90937
4.97423
4.92821
4.82458
4.81202
4.82678
4.87148
4.92794
4.97253
5.02231
5.09801
5.21913
5.40789
5.73735
6.30428
7.59448
0.758341
0.653488
0.611402
0.584044
0.566444
0.553516
0.54363
0.535812
0.52945
0.524047
0.51955
0.51554
0.512226
0.509175
0.506837
0.50693
0.507895
0.509987
0.52255
0.540251
0.620663
0.751438
1.25585
2.37971
4.89252
4.98923
4.94275
4.83738
4.82256
4.8368
4.88029
4.93553
4.97853
5.02562
5.09668
5.21234
5.39531
5.72137
6.28897
7.59636
0.758341
0.653488
0.611402
0.584044
0.566443
0.553516
0.543629
0.535814
0.529448
0.524051
0.519544
0.51555
0.512209
0.509196
0.506769
0.506846
0.507776
0.509813
0.521635
0.539178
0.615446
0.738112
1.23278
2.2964
4.85186
5.00038
4.95486
4.85013
4.83297
4.8465
4.88844
4.94246
4.98376
5.02824
5.09466
5.20463
5.3815
5.7039
6.27185
7.59583
0.758341
0.653488
0.611402
0.584044
0.566442
0.553517
0.543627
0.535817
0.529445
0.524057
0.519537
0.515562
0.51219
0.509219
0.506701
0.506768
0.507605
0.509572
0.520875
0.537584
0.610837
0.727073
1.2055
2.2252
4.79476
5.00706
4.96428
4.86297
4.84352
4.85612
4.89617
4.9487
4.98821
5.03005
5.09181
5.19589
5.36638
5.68485
6.25237
7.5913
0.758342
0.653487
0.611401
0.584044
0.566442
0.553519
0.543625
0.53582
0.529441
0.524064
0.519528
0.515575
0.512168
0.509244
0.506629
0.506685
0.507444
0.509377
0.520013
0.536345
0.606013
0.717276
1.17909
2.16267
4.72215
5.00842
4.97009
4.87493
4.85318
4.86484
4.90285
4.95399
4.9918
5.03104
5.08829
5.18618
5.34994
5.66397
6.22972
7.58027
0.758341
0.653487
0.611401
0.584045
0.566441
0.55352
0.543624
0.535824
0.529437
0.524071
0.519518
0.51559
0.512144
0.509272
0.506549
0.506592
0.507249
0.509061
0.51937
0.534292
0.60253
0.705947
1.15675
2.10211
4.64235
5.00611
4.97266
4.88514
4.86179
4.87261
4.90848
4.95806
4.99409
5.03069
5.08353
5.17531
5.33232
5.6411
6.20375
7.56246
0.758338
0.653489
0.611401
0.584046
0.566442
0.553521
0.543624
0.535825
0.529434
0.524075
0.51951
0.515602
0.512121
0.509297
0.506472
0.506497
0.507081
0.508772
0.518665
0.532656
0.598737
0.695968
1.13427
2.04404
4.55643
5.00035
4.9722
4.89328
4.86912
4.87913
4.91286
4.9607
4.99479
5.0289
5.07725
5.1628
5.31326
5.61501
6.17368
7.53796
0.758335
0.653491
0.611401
0.584047
0.566442
0.553521
0.543623
0.535827
0.529432
0.52408
0.519501
0.515614
0.512098
0.509321
0.506397
0.506403
0.506917
0.508524
0.517898
0.531267
0.594544
0.687412
1.10988
1.98921
4.4606
4.99171
4.9694
4.89989
4.87528
4.88442
4.91592
4.96181
4.994
5.02522
5.06929
5.14857
5.29293
5.58498
6.1389
7.50612
0.75833
0.653493
0.611402
0.584048
0.566444
0.553521
0.543624
0.535827
0.52943
0.524083
0.519494
0.515623
0.51208
0.509338
0.506346
0.506274
0.506753
0.508284
0.517185
0.529879
0.590552
0.678942
1.08601
1.93371
4.35387
4.98045
4.96418
4.90524
4.88015
4.88839
4.91758
4.96131
4.99137
5.01952
5.05932
5.13225
5.27024
5.55124
6.09845
7.46517
0.758324
0.653498
0.611403
0.584049
0.566445
0.55352
0.543625
0.535826
0.529429
0.524084
0.519489
0.51563
0.512067
0.509347
0.506316
0.506155
0.506604
0.507932
0.516741
0.527966
0.588119
0.667357
1.07062
1.86997
4.2428
4.96625
4.95654
4.90957
4.88353
4.89097
4.91779
4.95918
4.98656
5.01173
5.04723
5.11373
5.24468
5.51353
6.051
7.41342
0.75832
0.6535
0.611404
0.58405
0.566446
0.553519
0.543625
0.535825
0.529428
0.524085
0.519485
0.515636
0.512055
0.509355
0.506288
0.506025
0.506448
0.507725
0.516026
0.526739
0.58438
0.659072
1.04938
1.81248
4.12185
4.94962
4.94733
4.91273
4.8854
4.89202
4.91656
4.95466
4.97945
5.00148
5.03268
5.09301
5.21557
5.47193
5.99406
7.34835
0.758319
0.653501
0.611403
0.58405
0.566446
0.553518
0.543625
0.535826
0.529427
0.524088
0.519481
0.515642
0.512044
0.50936
0.506258
0.505878
0.506268
0.507479
0.515323
0.525462
0.580772
0.651656
1.02558
1.75641
3.99016
4.9303
4.94102
4.91331
4.88597
4.89172
4.9135
4.94797
4.96984
4.98852
5.01535
5.06918
5.18157
5.42372
5.92716
7.26861
0.758322
0.653499
0.611402
0.584048
0.566446
0.553519
0.543624
0.535828
0.529424
0.524092
0.519476
0.515648
0.512035
0.509363
0.506236
0.505702
0.506063
0.507304
0.514459
0.524901
0.575516
0.649868
0.988839
1.71002
3.83945
4.90926
4.93697
4.91358
4.88532
4.89001
4.90844
4.93908
4.95766
4.97272
4.99518
5.04147
5.14206
5.36774
5.84896
7.17151
0.758324
0.653499
0.611402
0.584047
0.566445
0.55352
0.543623
0.53583
0.529423
0.524095
0.519473
0.515653
0.512029
0.50936
0.50623
0.505548
0.505878
0.507043
0.513821
0.523745
0.571772
0.643969
0.96053
1.6517
3.67759
4.8872
4.93446
4.91352
4.88307
4.88632
4.90096
4.92743
4.94256
4.95376
4.97146
5.00918
5.09609
5.30247
5.75669
7.05187
0.758325
0.653499
0.611402
0.584046
0.566443
0.553519
0.543622
0.535831
0.529422
0.524097
0.519471
0.515655
0.512027
0.509355
0.506229
0.505428
0.505716
0.506713
0.513377
0.522006
0.569743
0.631664
0.947638
1.5737
3.51498
4.86238
4.93182
4.91252
4.87845
4.88023
4.89081
4.91223
4.92401
4.9313
4.94365
4.97169
5.04298
5.22651
5.64708
6.90213
0.758329
0.653498
0.611401
0.584045
0.566442
0.55352
0.543621
0.535833
0.52942
0.5241
0.519469
0.515657
0.512027
0.509343
0.506239
0.505281
0.505544
0.506525
0.512475
0.520741
0.565272
0.62435
0.919108
1.50965
3.33537
4.83925
4.92913
4.91
4.87102
4.87046
4.87701
4.89239
4.90097
4.90437
4.91035
4.92754
4.98121
5.1376
5.51549
6.71124
0.758338
0.653489
0.611399
0.584045
0.566439
0.553525
0.543616
0.53584
0.529415
0.524107
0.519465
0.515661
0.512027
0.509328
0.50626
0.505084
0.5053
0.506881
0.509596
0.525634
0.546695
0.652401
0.821447
1.51304
3.10106
4.81916
4.92631
4.90558
4.86075
4.85434
4.85801
4.86758
4.87226
4.87191
4.86984
4.87471
4.90937
5.03364
5.35525
6.45913
0.75834
0.653488
0.611398
0.584044
0.566439
0.553526
0.543616
0.53584
0.529415
0.524106
0.519467
0.515656
0.512038
0.509303
0.506289
0.504926
0.505113
0.506659
0.509102
0.524549
0.544075
0.64346
0.797937
1.43616
2.87936
4.79656
4.91987
4.89663
4.84485
4.83001
4.83081
4.83442
4.835
4.83085
4.81864
4.80856
4.82434
4.91058
5.15408
6.1102
0.75834
0.653489
0.611398
0.584044
0.566439
0.553525
0.543616
0.535838
0.529417
0.524102
0.519472
0.515647
0.512054
0.50927
0.506329
0.504769
0.504927
0.506325
0.508572
0.522948
0.541162
0.632889
0.773356
1.35854
2.65743
4.751
4.90669
4.88087
4.82186
4.79557
4.79169
4.79094
4.78755
4.77712
4.75417
4.72693
4.72018
4.76092
4.89125
5.59636
1.05253
1.04336
1.01973
0.992483
0.973643
0.957343
0.944608
0.933949
0.925081
0.917228
0.910858
0.904663
0.900152
0.894928
0.893939
0.894657
0.897273
0.909209
0.931002
1.0125
1.17355
1.6722
3.01586
6.56071
8.32564
8.31117
8.20901
8.07449
8.078
8.11828
8.22529
8.37348
8.50776
8.65624
8.85306
9.13031
9.51923
10.1271
10.9912
12.2821
1.05252
1.04336
1.01973
0.992484
0.973641
0.957344
0.944607
0.93395
0.925081
0.917228
0.910858
0.904664
0.900149
0.894935
0.893885
0.894556
0.898461
0.906701
0.93831
0.997607
1.2004
1.63397
3.04112
6.54808
8.3268
8.31246
8.20945
8.07533
8.07892
8.11932
8.22637
8.37372
8.50758
8.65601
8.85283
9.12996
9.51881
10.1259
10.9851
12.2849
1.05252
1.04336
1.01973
0.992484
0.973641
0.957343
0.944607
0.933949
0.925081
0.917228
0.910858
0.904664
0.900149
0.894934
0.893883
0.894554
0.898456
0.906692
0.938252
0.997529
1.1999
1.63309
3.03841
6.54151
8.32723
8.31254
8.20881
8.07655
8.0805
8.12133
8.22836
8.37433
8.5073
8.65559
8.85237
9.1293
9.51796
10.1232
10.9754
12.2771
1.05253
1.04336
1.01973
0.992482
0.973642
0.957342
0.944608
0.933949
0.925082
0.917228
0.91086
0.904663
0.900153
0.894925
0.893936
0.894653
0.897272
0.909141
0.93086
1.01205
1.17247
1.66931
3.00815
6.54114
8.32694
8.31161
8.20769
8.07859
8.08307
8.12453
8.23136
8.3755
8.50707
8.65509
8.85171
9.12831
9.51658
10.119
10.9637
12.2562
1.05253
1.04336
1.01973
0.992482
0.973642
0.957342
0.944608
0.933949
0.925082
0.917229
0.91086
0.904662
0.900155
0.89492
0.89394
0.894665
0.897343
0.909093
0.930982
1.01173
1.17166
1.6687
2.99866
6.52733
8.32607
8.31083
8.20729
8.08164
8.08672
8.12896
8.23554
8.37732
8.50695
8.65448
8.85078
9.12686
9.51427
10.1128
10.9485
12.2336
1.05253
1.04336
1.01973
0.992482
0.973642
0.957342
0.944608
0.93395
0.925082
0.917229
0.91086
0.904663
0.900153
0.894921
0.89392
0.894634
0.897246
0.909058
0.930675
1.01153
1.17071
1.66456
2.99347
6.50646
8.32498
8.31032
8.20764
8.08551
8.09125
8.13442
8.2408
8.37964
8.50689
8.65369
8.84943
9.12475
9.51066
10.1043
10.93
12.2112
1.05252
1.04336
1.01973
0.992484
0.97364
0.957344
0.944606
0.933952
0.925081
0.917231
0.910857
0.904666
0.900146
0.89493
0.893861
0.894547
0.898347
0.906641
0.937722
0.997589
1.19387
1.62704
3.00611
6.4703
8.32306
8.3101
8.20929
8.09072
8.09715
8.1414
8.24758
8.38268
8.50721
8.65294
8.84775
9.12186
9.5055
10.0933
10.9079
12.1918
1.05252
1.04336
1.01973
0.992484
0.97364
0.957344
0.944606
0.933953
0.92508
0.917232
0.910855
0.904669
0.900141
0.894933
0.893865
0.894564
0.898384
0.90682
0.937531
0.997906
1.19103
1.62289
2.9948
6.43748
8.31893
8.30807
8.21051
8.09637
8.10368
8.14929
8.25544
8.3861
8.50778
8.65216
8.84567
9.11804
9.49862
10.0797
10.8832
12.1701
1.05252
1.04336
1.01973
0.992485
0.97364
0.957345
0.944605
0.933953
0.925079
0.917234
0.910853
0.904672
0.900135
0.894937
0.893844
0.894528
0.898403
0.906489
0.937567
0.99636
1.19086
1.61465
2.98093
6.39657
8.31527
8.30664
8.21272
8.10303
8.11117
8.15814
8.26432
8.39021
8.50879
8.65144
8.84324
9.11337
9.49014
10.0641
10.8566
12.1471
1.05252
1.04336
1.01973
0.992485
0.973639
0.957345
0.944604
0.933954
0.925077
0.917236
0.91085
0.904676
0.900129
0.894942
0.893814
0.894491
0.898334
0.906358
0.937203
0.995527
1.18847
1.60826
2.96208
6.34722
8.31204
8.30577
8.21563
8.11022
8.11922
8.16759
8.27394
8.39508
8.51018
8.65069
8.84031
9.1077
9.47997
10.0464
10.828
12.1233
1.05252
1.04336
1.01973
0.992485
0.973639
0.957345
0.944604
0.933955
0.925076
0.917238
0.910847
0.904679
0.900122
0.894948
0.893774
0.89445
0.898191
0.906421
0.936465
0.995426
1.1838
1.60371
2.93803
6.28894
8.30975
8.30582
8.2193
8.11767
8.12757
8.17734
8.28398
8.40062
8.51205
8.64986
8.83683
9.10099
9.46816
10.0267
10.7978
12.0986
1.05252
1.04336
1.01973
0.992485
0.973639
0.957346
0.944603
0.933956
0.925074
0.91724
0.910843
0.904685
0.900112
0.894956
0.893713
0.894369
0.898115
0.905957
0.936165
0.993228
1.18215
1.59178
2.91349
6.2179
8.30955
8.30796
8.2247
8.12572
8.13637
8.18733
8.29424
8.40677
8.51446
8.649
8.83279
9.09325
9.4548
10.0054
10.7662
12.074
1.05252
1.04336
1.01973
0.992484
0.973638
0.957346
0.944603
0.933957
0.925072
0.917243
0.910838
0.904691
0.9001
0.894967
0.893643
0.894283
0.897968
0.905675
0.935481
0.991703
1.17838
1.58099
2.88359
6.13507
8.31041
8.31222
8.2315
8.13417
8.14541
8.19737
8.30447
8.41334
8.51726
8.64806
8.82811
9.08437
9.43981
9.98242
10.7332
12.0505
1.05252
1.04336
1.01973
0.992484
0.973638
0.957346
0.944602
0.933958
0.92507
0.917246
0.910834
0.904698
0.900086
0.894979
0.893558
0.89418
0.89778
0.905345
0.934651
0.98996
1.17372
1.56947
2.84839
6.03979
8.31278
8.31896
8.23924
8.14297
8.15466
8.20734
8.31449
8.42017
8.52037
8.64696
8.82266
9.07423
9.4231
9.95764
10.6987
12.0283
1.05252
1.04336
1.01973
0.992484
0.973638
0.957346
0.944601
0.933959
0.925068
0.917249
0.910829
0.904704
0.900071
0.894991
0.893454
0.894049
0.897487
0.904996
0.933418
0.988476
1.16711
1.56
2.80511
5.93178
8.31778
8.32804
8.24853
8.15205
8.16401
8.21717
8.32421
8.42715
8.52383
8.64579
8.81642
9.06279
9.40465
9.93115
10.6629
12.0074
1.05253
1.04336
1.01973
0.992483
0.973639
0.957345
0.944601
0.933961
0.925066
0.917253
0.910823
0.904712
0.900057
0.894998
0.893394
0.893993
0.896327
0.906717
0.926191
0.998271
1.14045
1.57695
2.73706
5.81604
8.32496
8.33897
8.25908
8.16107
8.17317
8.22664
8.33337
8.43395
8.52734
8.64445
8.80935
9.05
9.38443
9.90298
10.6257
11.9875
1.05253
1.04336
1.01973
0.992481
0.973639
0.957346
0.9446
0.933962
0.925063
0.917257
0.910816
0.904721
0.900039
0.895013
0.893301
0.893877
0.896146
0.906295
0.925294
0.995843
1.13399
1.56167
2.68496
5.68
8.33497
8.35222
8.27105
8.16992
8.182
8.23569
8.34179
8.44031
8.53063
8.64275
8.80139
9.03581
9.36246
9.87324
10.5873
11.968
1.05253
1.04336
1.01973
0.992482
0.973637
0.957347
0.944598
0.933965
0.925059
0.917262
0.910807
0.904733
0.900016
0.895036
0.893174
0.893724
0.895913
0.905776
0.924259
0.993021
1.12764
1.54238
2.63165
5.52505
8.35032
8.36878
8.28461
8.17856
8.19046
8.2442
8.3495
8.44617
8.53355
8.64061
8.79258
9.02022
9.33878
9.84209
10.5476
11.9491
1.05253
1.04336
1.01973
0.992483
0.973635
0.957348
0.944595
0.933968
0.925054
0.917267
0.910798
0.904746
0.89999
0.895065
0.893018
0.893518
0.896577
0.903268
0.929109
0.97882
1.14063
1.4912
2.59484
5.34434
8.37182
8.38866
8.29949
8.187
8.19854
8.25211
8.35638
8.4513
8.53591
8.63802
8.78286
9.00308
9.31323
9.80952
10.5072
11.9308
1.05253
1.04336
1.01973
0.992483
0.973635
0.957349
0.944593
0.933969
0.92505
0.917272
0.910789
0.904758
0.899969
0.895086
0.892905
0.893373
0.89635
0.902779
0.927836
0.975965
1.13285
1.47026
2.53071
5.15619
8.39704
8.4097
8.31448
8.19521
8.2063
8.25951
8.36249
8.45564
8.53752
8.63479
8.77219
8.98426
9.28553
9.775
10.4653
11.9135
1.05253
1.04336
1.01973
0.992483
0.973636
0.957348
0.944593
0.93397
0.925047
0.917277
0.910782
0.904768
0.899951
0.8951
0.892832
0.893293
0.89519
0.904237
0.920801
0.984143
1.10449
1.48052
2.4385
4.97014
8.42193
8.42979
8.32812
8.2027
8.21337
8.26616
8.36756
8.45888
8.5381
8.63066
8.76042
8.9638
9.25558
9.73827
10.4212
11.8973
1.05253
1.04336
1.01973
0.992481
0.973636
0.957348
0.944591
0.933972
0.925044
0.917282
0.910775
0.904779
0.899933
0.895117
0.892727
0.893164
0.895011
0.903679
0.9198
0.980628
1.09667
1.45767
2.37052
4.77257
8.44046
8.44832
8.34058
8.20983
8.21986
8.27183
8.37135
8.46069
8.53732
8.6251
8.7471
8.94137
9.22316
9.69897
10.3744
11.8817
1.05253
1.04336
1.01973
0.992481
0.973635
0.957348
0.94459
0.933974
0.92504
0.917287
0.910766
0.904791
0.899911
0.895138
0.892597
0.892997
0.894637
0.90324
0.918199
0.977998
1.08727
1.43804
2.30229
4.58419
8.44163
8.46311
8.35169
8.21661
8.22573
8.27637
8.37367
8.46087
8.53485
8.61781
8.73191
8.91662
9.18794
9.65671
10.3239
11.8648
1.05253
1.04336
1.01973
0.99248
0.973633
0.957349
0.944588
0.933978
0.925036
0.917295
0.910757
0.904805
0.899887
0.895162
0.892474
0.892851
0.894531
0.902526
0.917469
0.973673
1.08085
1.41133
2.24407
4.39842
8.42436
8.47283
8.36148
8.22303
8.23094
8.27963
8.37438
8.45947
8.53038
8.6086
8.71472
8.88947
9.1499
9.61163
10.2695
11.8436
1.05253
1.04336
1.01972
0.992479
0.973632
0.95735
0.944586
0.933982
0.925031
0.917303
0.910745
0.904822
0.899859
0.895188
0.892341
0.892689
0.894271
0.901942
0.916218
0.970228
1.07296
1.38879
2.18493
4.23327
8.37496
8.47547
8.36965
8.22902
8.23537
8.28149
8.37334
8.45595
8.52376
8.59722
8.69542
8.85969
9.10893
9.56344
10.2106
11.8157
1.05253
1.04336
1.01972
0.992479
0.973632
0.957351
0.944584
0.933987
0.925026
0.917313
0.910732
0.904842
0.899825
0.895223
0.892192
0.892507
0.893998
0.901345
0.915051
0.966789
1.06549
1.36728
2.12802
4.09982
8.2826
8.47069
8.37485
8.23396
8.23872
8.28219
8.3704
8.45039
8.51498
8.58353
8.67381
8.82722
9.06489
9.5118
10.1469
11.7792
1.05253
1.04336
1.01972
0.99248
0.973631
0.957353
0.944582
0.933992
0.92502
0.917324
0.910716
0.904864
0.899786
0.895264
0.892026
0.892298
0.893647
0.900796
0.913416
0.963961
1.05682
1.34792
2.07064
3.97122
8.17533
8.46214
8.37508
8.23719
8.2406
8.28144
8.36539
8.44268
8.50378
8.56729
8.64974
8.79208
9.01784
9.45572
10.078
11.7319
1.05253
1.04336
1.01972
0.992483
0.973629
0.957358
0.944578
0.934
0.925011
0.917337
0.910697
0.90489
0.899743
0.89531
0.891872
0.892119
0.893462
0.900045
0.912567
0.959765
1.05004
1.32603
2.01546
3.84614
8.05657
8.45036
8.37176
8.23871
8.24092
8.27898
8.35839
8.43262
8.4899
8.54824
8.6228
8.75389
8.96794
9.39427
10.0028
11.6729
1.05253
1.04336
1.01972
0.992486
0.973627
0.957363
0.944575
0.934007
0.925003
0.91735
0.910679
0.904915
0.899701
0.895356
0.89171
0.891922
0.893194
0.899393
0.911356
0.956401
1.04105
1.31071
1.95286
3.73676
7.91462
8.43342
8.36449
8.23858
8.23974
8.27464
8.34917
8.41999
8.47318
8.52597
8.59257
8.71217
8.91491
9.32571
9.91966
11.6008
1.05252
1.04336
1.01972
0.992491
0.973625
0.957368
0.944571
0.934015
0.924994
0.917362
0.91066
0.904938
0.899661
0.895397
0.891552
0.891717
0.892864
0.898789
0.909903
0.953545
1.0332
1.29375
1.89777
3.63205
7.74708
8.41103
8.35314
8.2373
8.23684
8.26854
8.33789
8.40476
8.4534
8.50033
8.5589
8.66671
8.85753
9.25027
9.82739
11.5134
1.05252
1.04335
1.01973
0.992497
0.973622
0.957375
0.944565
0.934023
0.924985
0.917374
0.910643
0.904959
0.899626
0.895432
0.891417
0.891559
0.893021
0.89704
0.912674
0.942963
1.0422
1.249
1.8872
3.48768
7.57265
8.38468
8.33689
8.23512
8.23144
8.26044
8.32454
8.38682
8.43029
8.4711
8.52144
8.61707
8.79466
9.16687
9.72378
11.4082
1.05251
1.04335
1.01973
0.992501
0.97362
0.957379
0.944562
0.934028
0.924978
0.917383
0.91063
0.904977
0.899597
0.895459
0.891291
0.891397
0.892732
0.896613
0.911429
0.940495
1.03518
1.2304
1.84697
3.36935
7.37823
8.35512
8.31804
8.23155
8.22404
8.25018
8.30876
8.36577
8.40379
8.43818
8.48014
8.56314
8.72548
9.07479
9.6071
11.2817
1.05251
1.04335
1.01972
0.992503
0.973619
0.957381
0.94456
0.934031
0.924973
0.91739
0.91062
0.904991
0.899573
0.89548
0.891154
0.891207
0.892375
0.895987
0.910045
0.937142
1.02927
1.21121
1.80875
3.25673
7.16183
8.32156
8.298
8.22698
8.21466
8.23751
8.28994
8.34123
8.37348
8.40112
8.43487
8.50441
8.64829
8.97135
9.4748
11.1309
1.05252
1.04335
1.01972
0.9925
0.97362
0.957379
0.94456
0.934032
0.924972
0.917394
0.910614
0.905
0.899555
0.895491
0.891036
0.890905
0.891723
0.896363
0.90521
0.941422
1.00531
1.2277
1.71254
3.19672
6.91071
8.28541
8.27849
8.22224
8.20338
8.22232
8.26773
8.31288
8.33904
8.35958
8.38499
8.43994
8.56217
8.85526
9.32465
10.9498
1.05252
1.04335
1.01972
0.992497
0.97362
0.957378
0.94456
0.934033
0.92497
0.917397
0.91061
0.905006
0.899543
0.895495
0.890963
0.890663
0.89142
0.895761
0.904052
0.938649
0.998082
1.21396
1.66369
3.08916
6.64293
8.24563
8.26195
8.21502
8.18973
8.20427
8.24182
8.28024
8.29998
8.31316
8.3294
8.36825
8.46584
8.72451
9.15276
10.7311
1.05252
1.04336
1.01972
0.992495
0.973618
0.957377
0.944559
0.934034
0.92497
0.917399
0.910608
0.90501
0.899534
0.895498
0.890898
0.890536
0.891393
0.894339
0.906283
0.929367
1.00836
1.1662
1.67273
2.92425
6.36831
8.20175
8.24627
8.20558
8.17251
8.18272
8.21185
8.24269
8.25586
8.26166
8.26742
8.2885
8.35868
8.57799
8.95498
10.4631
1.05252
1.04336
1.01972
0.992491
0.973619
0.957374
0.944561
0.934032
0.924971
0.917399
0.910609
0.90501
0.899531
0.895489
0.890854
0.890302
0.891086
0.893838
0.905095
0.926767
1.00176
1.14996
1.63007
2.80502
6.06606
8.16096
8.23191
8.1945
8.15102
8.15668
8.17673
8.19938
8.20579
8.20455
8.19732
8.19955
8.23862
8.41337
8.72519
10.1301
1.05253
1.04336
1.01972
0.992483
0.973626
0.957366
0.944567
0.934025
0.924978
0.917392
0.910616
0.905002
0.899538
0.895464
0.890832
0.889984
0.890602
0.894139
0.901552
0.92973
0.982395
1.16038
1.5373
2.73435
5.71538
8.12514
8.22044
8.18138
8.12515
8.12442
8.13511
8.14954
8.14949
8.14168
8.11896
8.09686
8.10614
8.22946
8.45423
9.70398
1.05253
1.04336
1.01972
0.992481
0.973628
0.957363
0.944569
0.934021
0.924981
0.917387
0.910622
0.904993
0.89955
0.895432
0.890836
0.889719
0.890295
0.893595
0.900493
0.927081
0.976767
1.14274
1.49188
2.60543
5.35049
8.08993
8.2078
8.16542
8.09438
8.08247
8.08632
8.09164
8.08696
8.07022
8.03067
7.9838
7.95397
8.02438
8.1308
9.14125
1.05253
1.04336
1.01972
0.992482
0.973629
0.957363
0.94457
0.934018
0.924984
0.917381
0.910629
0.90498
0.899568
0.89539
0.890864
0.88943
0.889948
0.892962
0.899397
0.924127
0.970504
1.12466
1.44705
2.47003
4.97708
8.04528
8.19708
8.14815
8.05881
8.03104
8.02793
8.02573
8.01582
7.98927
7.93283
7.86244
7.78669
7.79113
7.73864
8.36135
1.06613
1.10994
1.11434
1.11126
1.10353
1.09289
1.08436
1.07614
1.0689
1.06231
1.05678
1.05125
1.04707
1.04255
1.04257
1.04378
1.04728
1.06438
1.09154
1.20231
1.40276
2.0731
3.80057
8.57032
10.17
10.0982
9.88756
9.76173
9.78486
9.86841
10.0356
10.1991
10.3461
10.5154
10.7392
11.0453
11.4577
12.0575
12.7849
13.6682
1.06612
1.10995
1.11434
1.11126
1.10353
1.09289
1.08436
1.07614
1.0689
1.06231
1.05678
1.05125
1.04706
1.04255
1.04252
1.04364
1.04866
1.0604
1.10145
1.18129
1.43678
2.02644
3.83359
8.557
10.1692
10.0977
9.88695
9.7629
9.78618
9.86986
10.0365
10.1993
10.3459
10.5151
10.7388
11.0445
11.4566
12.0547
12.776
13.6636
1.06612
1.10995
1.11434
1.11126
1.10353
1.09289
1.08436
1.07614
1.0689
1.06231
1.05678
1.05125
1.04706
1.04255
1.04252
1.04364
1.04865
1.06039
1.10137
1.1812
1.43619
2.02539
3.83017
8.54868
10.1667
10.0949
9.88445
9.76453
9.78831
9.87268
10.0382
10.1996
10.3456
10.5147
10.738
11.0432
11.4547
12.0491
12.7608
13.6519
1.06613
1.10995
1.11434
1.11126
1.10353
1.09289
1.08436
1.07614
1.0689
1.06231
1.05678
1.05125
1.04707
1.04254
1.04256
1.04377
1.0473
1.06425
1.09153
1.20143
1.40199
2.06866
3.79154
8.5449
10.1628
10.0905
9.881
9.76694
9.79148
9.87706
10.0408
10.2004
10.3453
10.5142
10.7371
11.0412
11.4519
12.0404
12.7412
13.6341
1.06613
1.10995
1.11434
1.11126
1.10353
1.09289
1.08436
1.07614
1.0689
1.06231
1.05678
1.05125
1.04707
1.04254
1.04255
1.04381
1.04775
1.0635
1.09425
1.19589
1.40957
2.05717
3.78651
8.52593
10.1571
10.0851
9.87759
9.76995
9.79542
9.88262
10.0442
10.2014
10.345
10.5134
10.7355
11.0382
11.447
12.0278
12.7162
13.6135
1.06612
1.10995
1.11434
1.11126
1.10353
1.09289
1.08436
1.07614
1.0689
1.06231
1.05678
1.05125
1.04707
1.04253
1.04254
1.04372
1.04729
1.06403
1.09138
1.20046
1.40061
2.06179
3.77559
8.50034
10.15
10.079
9.87438
9.77326
9.7998
9.88899
10.0482
10.2026
10.3446
10.5122
10.7331
11.0338
11.4396
12.0112
12.6866
13.5897
1.06612
1.10995
1.11433
1.11126
1.10353
1.09289
1.08436
1.07615
1.0689
1.06232
1.05678
1.05125
1.04706
1.04254
1.04243
1.04342
1.04905
1.05907
1.10304
1.1769
1.43852
2.0043
3.80079
8.45601
10.141
10.0723
9.87188
9.77716
9.80479
9.89616
10.0531
10.204
10.3442
10.5105
10.7297
11.0278
11.4293
11.9907
12.6526
13.5637
1.06612
1.10996
1.11433
1.11126
1.10353
1.09289
1.08436
1.07615
1.0689
1.06232
1.05678
1.05126
1.04706
1.04254
1.04245
1.0435
1.04898
1.06038
1.10086
1.18166
1.4277
2.00912
3.78132
8.41618
10.1295
10.0632
9.86851
9.78092
9.80985
9.9037
10.0585
10.2055
10.3436
10.5084