/*--------------------------------*- C++ -*----------------------------------*\
  =========                 |
  \\      /  F ield         | OpenFOAM: The Open Source CFD Toolbox
   \\    /   O peration     | Website:  https://openfoam.org
    \\  /    A nd           | Version:  6.0
     \\/     M anipulation  |
\*---------------------------------------------------------------------------*/
FoamFile
{
    version     2.0;
    format      ascii;
    class       volScalarField;
    location    "2.5";
    object      T;
}
// * * * * * * * * * * * * * * * * * * * * * * * * * * * * * * * * * * * * * //

dimensions      [0 0 0 1 0 0 0];

internalField   nonuniform List<scalar> 
192000
(
0.896125
0.86149
0.844608
0.833234
0.825426
0.819533
0.814907
0.811179
0.808073
0.80544
0.803169
0.801213
0.799494
0.798115
0.797605
0.797716
0.799337
0.802008
0.816083
0.84129
0.932761
1.11058
1.65445
2.09035
2.19805
2.19833
2.1922
2.18331
2.17879
2.18039
2.19174
2.20129
2.21487
2.22353
2.2426
2.25914
2.30012
2.33225
2.46526
2.25651
0.896126
0.861486
0.844615
0.833229
0.825433
0.819526
0.814916
0.811172
0.808082
0.805433
0.803179
0.801205
0.799504
0.798105
0.797611
0.797709
0.799441
0.802041
0.816579
0.840645
0.934998
1.11037
1.65645
2.08623
2.19355
2.19409
2.18787
2.17903
2.17452
2.17608
2.1872
2.19644
2.20979
2.21834
2.23718
2.25356
2.29427
2.32613
2.46014
2.24677
0.896126
0.861486
0.844615
0.833229
0.825433
0.819526
0.814916
0.811172
0.808082
0.805433
0.803179
0.801205
0.799504
0.798105
0.79761
0.797708
0.799438
0.802031
0.81656
0.840553
0.934849
1.10956
1.65589
2.08595
2.19384
2.19463
2.18835
2.17962
2.17543
2.17703
2.18845
2.19757
2.21085
2.21944
2.23836
2.2548
2.29552
2.32749
2.46117
2.24832
0.896125
0.86149
0.844608
0.833234
0.825426
0.819532
0.814907
0.811179
0.808073
0.80544
0.803169
0.801213
0.799494
0.798114
0.797604
0.797715
0.799329
0.801989
0.81602
0.841084
0.932338
1.10863
1.65248
2.09028
2.19928
2.2006
2.19442
2.18579
2.18233
2.18405
2.1963
2.20574
2.21922
2.22805
2.2475
2.26425
2.30546
2.33792
2.47067
2.26278
0.896128
0.861485
0.844612
0.833229
0.82543
0.819528
0.814912
0.811174
0.808078
0.805436
0.803174
0.801208
0.799498
0.798109
0.797606
0.797702
0.799303
0.802268
0.816001
0.842591
0.932148
1.11212
1.65076
2.08991
2.20006
2.20194
2.19589
2.1875
2.18473
2.18656
2.19939
2.20894
2.22237
2.23134
2.25111
2.26805
2.30955
2.34227
2.47489
2.2696
0.896125
0.86149
0.844608
0.833234
0.825426
0.819532
0.814908
0.811179
0.808074
0.80544
0.80317
0.801213
0.799494
0.798113
0.797601
0.79771
0.799316
0.801994
0.815917
0.840975
0.931503
1.10688
1.64768
2.0898
2.20129
2.20339
2.19733
2.18907
2.18677
2.18864
2.20202
2.21132
2.22483
2.23388
2.25383
2.27088
2.31249
2.34535
2.47738
2.27388
0.896131
0.86148
0.84462
0.833223
0.825438
0.81952
0.81492
0.811166
0.808087
0.805427
0.803183
0.8012
0.799508
0.798098
0.79761
0.797692
0.799377
0.802436
0.81638
0.841687
0.93326
1.10883
1.64776
2.08492
2.19783
2.20016
2.1942
2.18628
2.18435
2.18631
2.19979
2.20884
2.22196
2.23096
2.25083
2.26782
2.30925
2.34204
2.47401
2.26927
0.896129
0.861483
0.844617
0.833226
0.825435
0.819523
0.814918
0.811169
0.808084
0.80543
0.803181
0.801202
0.799505
0.798101
0.797606
0.797701
0.799386
0.802152
0.816231
0.840299
0.932087
1.10272
1.64538
2.08587
2.20052
2.20279
2.19675
2.18893
2.18729
2.18925
2.20305
2.21182
2.22491
2.23391
2.25377
2.27076
2.31208
2.34484
2.47603
2.27054
0.896132
0.861479
0.844621
0.833223
0.825439
0.819519
0.814921
0.811165
0.808087
0.805426
0.803184
0.801198
0.799508
0.798095
0.797603
0.797687
0.799356
0.802354
0.816125
0.840844
0.931398
1.10114
1.64004
2.08291
2.20007
2.20266
2.19683
2.18942
2.18818
2.19029
2.20432
2.21289
2.22587
2.23491
2.25479
2.27178
2.313
2.34582
2.47646
2.27104
0.896132
0.86148
0.84462
0.833223
0.825438
0.81952
0.81492
0.811166
0.808087
0.805427
0.803184
0.801199
0.799507
0.798094
0.797594
0.797675
0.79933
0.802298
0.81596
0.840465
0.930262
1.09781
1.63414
2.08038
2.20038
2.20313
2.19739
2.19035
2.18945
2.19168
2.20593
2.21434
2.22717
2.23625
2.2561
2.27309
2.31417
2.34703
2.47717
2.27149
0.896127
0.861485
0.844616
0.833228
0.825435
0.819525
0.814917
0.81117
0.808084
0.805431
0.803181
0.801203
0.799504
0.798095
0.797579
0.797667
0.799306
0.802007
0.815732
0.839259
0.928622
1.09298
1.62765
2.07899
2.20237
2.20528
2.19951
2.19282
2.19222
2.19484
2.20928
2.21762
2.23045
2.23967
2.25959
2.27659
2.31758
2.35051
2.48022
2.27397
0.896131
0.861481
0.844619
0.833224
0.825437
0.819521
0.814919
0.811167
0.808086
0.805428
0.803183
0.801199
0.799506
0.798088
0.797564
0.797639
0.799248
0.80214
0.815502
0.839505
0.927272
1.0898
1.6183
2.07384
2.20157
2.205
2.19941
2.19331
2.19306
2.19628
2.21086
2.21918
2.23202
2.24133
2.26128
2.2783
2.31923
2.35233
2.48196
2.27551
0.89613
0.861481
0.844619
0.833225
0.825437
0.819522
0.814919
0.811168
0.808085
0.805429
0.803182
0.801199
0.799505
0.798084
0.797544
0.797615
0.799194
0.802016
0.815201
0.838814
0.925387
1.08421
1.60809
2.06851
2.20101
2.20464
2.19901
2.19333
2.19332
2.19705
2.21169
2.21995
2.23269
2.24201
2.26194
2.27892
2.3197
2.35293
2.48259
2.27536
0.89613
0.861482
0.844618
0.833226
0.825435
0.819523
0.814918
0.811169
0.808084
0.80543
0.803181
0.8012
0.799504
0.79808
0.797518
0.797585
0.799129
0.801868
0.814854
0.838062
0.923177
1.07897
1.59578
2.06261
2.20049
2.20447
2.19863
2.19338
2.19345
2.19768
2.21243
2.22067
2.23333
2.24262
2.26262
2.27955
2.32013
2.35352
2.48333
2.27473
0.896124
0.861488
0.844614
0.833231
0.825432
0.819528
0.814915
0.811173
0.808082
0.805434
0.803179
0.801203
0.799501
0.798076
0.797488
0.797547
0.799051
0.80165
0.814472
0.837207
0.920739
1.07354
1.58197
2.05516
2.19919
2.20346
2.19732
2.19252
2.19267
2.19731
2.21213
2.22033
2.23287
2.24207
2.26196
2.27877
2.31912
2.3527
2.48291
2.27284
0.896124
0.86149
0.844608
0.833235
0.825425
0.819533
0.814906
0.81118
0.808073
0.805441
0.803169
0.80121
0.79949
0.798078
0.797451
0.797516
0.798897
0.801379
0.81363
0.836717
0.915699
1.07027
1.56691
2.05219
2.2026
2.20638
2.19972
2.19433
2.19436
2.19912
2.21359
2.22158
2.23384
2.24284
2.26239
2.27898
2.31886
2.35252
2.48296
2.27086
0.896124
0.86149
0.844608
0.833235
0.825425
0.819533
0.814906
0.81118
0.808073
0.80544
0.803169
0.801209
0.79949
0.798071
0.797421
0.797475
0.798804
0.80125
0.813153
0.836245
0.912892
1.06256
1.54587
2.04496
2.20362
2.20821
2.20147
2.19653
2.19687
2.20221
2.21681
2.22488
2.237
2.24586
2.26519
2.28152
2.32076
2.35438
2.48447
2.27056
0.896123
0.861492
0.844606
0.833236
0.825423
0.819535
0.814905
0.811181
0.808071
0.805442
0.803168
0.80121
0.799488
0.798066
0.797387
0.797436
0.798717
0.801064
0.812637
0.834874
0.909117
1.05512
1.52515
2.03552
2.20353
2.20846
2.20162
2.19665
2.19742
2.20335
2.21841
2.22676
2.23934
2.24831
2.26791
2.28424
2.32344
2.35747
2.48856
2.27218
0.896122
0.861491
0.844611
0.833234
0.825429
0.81953
0.814911
0.811176
0.808079
0.805436
0.803176
0.801203
0.799496
0.798051
0.79736
0.797385
0.798683
0.801091
0.812467
0.833884
0.907502
1.04365
1.49872
2.01777
2.19714
2.20354
2.19744
2.19328
2.19484
2.20152
2.21699
2.22557
2.23841
2.24742
2.26704
2.28348
2.32271
2.35713
2.48953
2.27212
0.896118
0.861495
0.844607
0.833238
0.825425
0.819534
0.814908
0.81118
0.808076
0.80544
0.803174
0.801206
0.799493
0.798046
0.797323
0.797343
0.798594
0.800728
0.811858
0.832104
0.903246
1.0328
1.47522
2.00136
2.18967
2.19534
2.18886
2.18485
2.18694
2.19459
2.21144
2.22102
2.23494
2.24432
2.26442
2.28112
2.3205
2.35553
2.48931
2.27094
0.896118
0.861498
0.844601
0.833242
0.825418
0.81954
0.814899
0.811187
0.808066
0.805447
0.803163
0.801213
0.799481
0.798048
0.797279
0.797306
0.798425
0.800263
0.81083
0.830778
0.896496
1.02538
1.44992
1.99071
2.18686
2.19065
2.1836
2.17802
2.17965
2.18695
2.20354
2.21256
2.22656
2.23606
2.25647
2.27361
2.31384
2.35008
2.48705
2.2688
0.896119
0.861496
0.844602
0.833241
0.825418
0.819539
0.8149
0.811186
0.808067
0.805446
0.803164
0.801212
0.799482
0.798039
0.797246
0.797256
0.798305
0.800245
0.810243
0.830288
0.893018
1.01499
1.41114
1.97988
2.18496
2.18829
2.1811
2.17374
2.17485
2.18162
2.19724
2.20602
2.21924
2.2282
2.24746
2.26408
2.30353
2.34001
2.47917
2.262
0.896112
0.861505
0.844594
0.833249
0.825411
0.819547
0.814893
0.811194
0.80806
0.805454
0.803158
0.801219
0.799475
0.798039
0.797206
0.797221
0.798234
0.799811
0.809527
0.828654
0.888002
1.00874
1.37028
1.9684
2.18679
2.19041
2.18176
2.17323
2.17341
2.17948
2.19439
2.20266
2.21519
2.22371
2.24198
2.25811
2.29645
2.33307
2.47286
2.25417
0.89612
0.861496
0.844602
0.83324
0.825419
0.819538
0.814901
0.811185
0.808068
0.805445
0.803166
0.80121
0.799482
0.798022
0.797178
0.797169
0.798118
0.799927
0.808633
0.828159
0.883572
1
1.35919
1.95533
2.19082
2.19933
2.18909
2.17923
2.17721
2.18173
2.19491
2.20259
2.21414
2.22217
2.23942
2.25509
2.29233
2.32907
2.46976
2.24921
0.896114
0.861503
0.844596
0.833247
0.825413
0.819545
0.814895
0.811192
0.808062
0.805452
0.803161
0.801216
0.799476
0.798022
0.797137
0.79713
0.798038
0.799575
0.808078
0.826619
0.879772
0.991403
1.3381
1.93751
2.19269
2.20671
2.19681
2.187
2.18536
2.18913
2.2013
2.20785
2.21793
2.22502
2.24043
2.25551
2.29142
2.32827
2.46978
2.24908
0.896109
0.861508
0.844591
0.833253
0.825408
0.819551
0.81489
0.811198
0.808057
0.805458
0.803156
0.801221
0.79947
0.79802
0.797097
0.797087
0.797932
0.799486
0.807299
0.825627
0.875597
0.98391
1.31825
1.92734
2.19224
2.21172
2.20266
2.19291
2.19142
2.19486
2.20664
2.21343
2.22326
2.2303
2.24515
2.25955
2.29364
2.33013
2.47112
2.24986
0.8961
0.861519
0.844584
0.833263
0.825401
0.819561
0.814882
0.811207
0.808051
0.805466
0.803149
0.801227
0.799462
0.798017
0.797049
0.797034
0.797857
0.798986
0.807019
0.823431
0.873351
0.975119
1.30366
1.9178
2.19273
2.218
2.20984
2.20041
2.19841
2.20146
2.21251
2.21906
2.22861
2.2353
2.24943
2.26368
2.29711
2.33394
2.47581
2.25418
0.896138
0.861474
0.844621
0.833219
0.825438
0.819517
0.81492
0.811164
0.808088
0.805423
0.803187
0.801183
0.799498
0.797966
0.797047
0.796959
0.797755
0.79876
0.806527
0.822144
0.870609
0.967897
1.28859
1.90263
2.19088
2.22323
2.21649
2.20799
2.20571
2.20843
2.21861
2.22485
2.23385
2.24019
2.25349
2.26727
2.29938
2.33626
2.47921
2.25877
0.896159
0.861449
0.844645
0.833192
0.825462
0.819491
0.814943
0.811137
0.808111
0.805396
0.80321
0.801155
0.799521
0.79793
0.797033
0.796884
0.797648
0.798564
0.805926
0.82096
0.86738
0.960935
1.27226
1.88361
2.18632
2.22697
2.22187
2.21498
2.21317
2.21586
2.22549
2.2314
2.23993
2.24593
2.25853
2.27178
2.303
2.3391
2.48325
2.26607
0.896191
0.861412
0.844678
0.833155
0.825494
0.819452
0.814976
0.811099
0.808144
0.805357
0.803242
0.801116
0.799552
0.797885
0.797026
0.796798
0.797536
0.798342
0.805439
0.819181
0.864247
0.951273
1.2557
1.8598
2.17739
2.22717
2.22485
2.21909
2.21836
2.22141
2.23111
2.23706
2.24531
2.25101
2.26296
2.27563
2.30594
2.34119
2.48589
2.27233
0.896247
0.861344
0.844739
0.833085
0.825556
0.819382
0.815038
0.811028
0.808205
0.805286
0.803303
0.801045
0.799611
0.797811
0.797056
0.796683
0.797451
0.798143
0.805241
0.817545
0.862623
0.945207
1.24625
1.84562
2.1702
2.22742
2.22714
2.22193
2.22191
2.2254
2.23524
2.24164
2.25019
2.25586
2.26752
2.27964
2.30889
2.34304
2.48864
2.27912
0.896277
0.861309
0.84477
0.833049
0.825587
0.819345
0.815069
0.810992
0.808236
0.80525
0.803334
0.801008
0.799639
0.797771
0.797055
0.796599
0.797326
0.798037
0.804779
0.815781
0.859667
0.935382
1.23081
1.82661
2.16547
2.23031
2.22989
2.2249
2.22449
2.22784
2.23736
2.24361
2.25271
2.25855
2.27058
2.28246
2.31175
2.34456
2.49057
2.28525
0.896294
0.861288
0.844789
0.833027
0.825607
0.819322
0.815089
0.810968
0.808256
0.805227
0.803354
0.800985
0.799658
0.797744
0.797039
0.79651
0.797208
0.797873
0.804295
0.814653
0.856999
0.929594
1.21247
1.80404
2.15655
2.23397
2.23432
2.23012
2.22876
2.23177
2.24024
2.24552
2.2541
2.25972
2.27142
2.28301
2.31161
2.34366
2.49072
2.28933
0.896269
0.861319
0.844759
0.833059
0.825577
0.819356
0.815058
0.811002
0.808226
0.805261
0.803324
0.801018
0.799626
0.797772
0.796969
0.796446
0.797062
0.797735
0.803547
0.814137
0.852805
0.921599
1.18143
1.76238
2.14152
2.23294
2.23604
2.23391
2.23307
2.23622
2.24416
2.24892
2.25649
2.26156
2.27218
2.28301
2.31065
2.34141
2.48978
2.29364
0.896261
0.861328
0.84475
0.833069
0.825567
0.819366
0.815049
0.811013
0.808216
0.805271
0.803314
0.801028
0.799615
0.79778
0.796928
0.796372
0.796951
0.797568
0.803077
0.813241
0.849804
0.916082
1.15828
1.72623
2.1189
2.22777
2.2346
2.23427
2.23501
2.23891
2.24687
2.25201
2.25927
2.26389
2.27326
2.28287
2.30817
2.3371
2.48661
2.29582
0.896258
0.861331
0.844748
0.833071
0.825565
0.819369
0.815048
0.811015
0.808216
0.805274
0.803313
0.801031
0.799612
0.797779
0.796905
0.7963
0.796885
0.79737
0.802827
0.812232
0.848258
0.913865
1.15033
1.69801
2.10162
2.2198
2.22885
2.2303
2.2334
2.23937
2.24797
2.25359
2.26146
2.2662
2.27529
2.28367
2.30605
2.3322
2.48197
2.29574
0.896242
0.86135
0.84473
0.833091
0.825547
0.819389
0.81503
0.811036
0.808197
0.805295
0.803294
0.801053
0.799591
0.797799
0.79686
0.796242
0.796766
0.797273
0.802517
0.809712
0.84571
0.905113
1.1296
1.65598
2.08495
2.21733
2.22609
2.22687
2.22982
2.23702
2.24705
2.25333
2.26198
2.26712
2.27607
2.28366
2.30378
2.32542
2.47175
2.29256
0.896125
0.861491
0.844605
0.833235
0.825422
0.819534
0.814906
0.81118
0.808074
0.805438
0.803173
0.801194
0.79947
0.797937
0.796711
0.796278
0.796377
0.797968
0.799876
0.813421
0.832074
0.918198
1.06657
1.57814
2.05004
2.20987
2.22076
2.2234
2.22627
2.23227
2.24377
2.25221
2.26174
2.26793
2.27661
2.28362
2.30272
2.31952
2.46192
2.28494
0.896116
0.8615
0.844596
0.833245
0.825414
0.819544
0.814897
0.811191
0.808065
0.805449
0.803163
0.801206
0.799457
0.797947
0.796678
0.796205
0.796271
0.79768
0.800197
0.811886
0.832916
0.908642
1.04939
1.52703
2.01357
2.19985
2.21596
2.22137
2.22529
2.23059
2.24151
2.24936
2.26026
2.26748
2.27635
2.28217
2.29926
2.30932
2.44016
2.2686
0.896119
0.861497
0.844599
0.833241
0.825417
0.819541
0.814899
0.811188
0.808067
0.805446
0.803165
0.801204
0.799457
0.797943
0.79666
0.79612
0.796166
0.797449
0.7998
0.810606
0.830628
0.900112
1.0286
1.48027
1.9692
2.17803
2.20499
2.2169
2.22548
2.23375
2.24726
2.25721
2.26814
2.27517
2.28386
2.28823
2.30208
2.30441
2.41358
2.21245
1.00317
0.996908
0.990523
0.983429
0.977911
0.973361
0.969643
0.966539
0.963846
0.961565
0.959515
0.957791
0.95618
0.955156
0.955048
0.95579
0.95712
0.964463
0.97584
1.0219
1.10477
1.39373
2.09753
2.50584
2.59349
2.58871
2.57723
2.5746
2.5763
2.58267
2.59865
2.60841
2.62404
2.63576
2.66045
2.68323
2.73032
2.77207
2.88452
2.68121
1.00317
0.996852
0.99058
0.98337
0.977969
0.9733
0.969703
0.966476
0.963908
0.961501
0.959579
0.957726
0.956245
0.955083
0.955129
0.955646
0.957265
0.965547
0.977452
1.01905
1.11208
1.38324
2.07139
2.49812
2.58736
2.58333
2.57182
2.56904
2.57069
2.57695
2.59322
2.60295
2.61847
2.63011
2.65459
2.67715
2.72407
2.76569
2.87986
2.68456
1.00317
0.996852
0.99058
0.98337
0.977969
0.973299
0.969703
0.966476
0.963908
0.961501
0.959579
0.957726
0.956245
0.955083
0.955128
0.955645
0.957262
0.965538
0.977419
1.01901
1.11185
1.38282
2.07086
2.49815
2.58781
2.58404
2.5726
2.56981
2.57139
2.57767
2.59396
2.60364
2.61909
2.63072
2.65517
2.67762
2.72434
2.76591
2.87964
2.68754
1.00317
0.996908
0.990524
0.983429
0.977911
0.97336
0.969643
0.966538
0.963847
0.961565
0.959516
0.957791
0.956181
0.955154
0.955048
0.955789
0.95711
0.964433
0.975746
1.02171
1.10431
1.39177
2.09476
2.50469
2.5938
2.58987
2.57861
2.57592
2.57739
2.58377
2.59984
2.6091
2.62459
2.63625
2.6608
2.68315
2.7295
2.77104
2.8822
2.68964
1.00317
0.996905
0.990526
0.983424
0.977915
0.973355
0.969648
0.966533
0.963852
0.961559
0.959522
0.957785
0.956186
0.955148
0.955058
0.955798
0.957114
0.964426
0.975681
1.02188
1.10438
1.39109
2.09068
2.50127
2.59138
2.58808
2.57749
2.57493
2.57676
2.58337
2.59953
2.60856
2.62419
2.63594
2.66069
2.68304
2.72921
2.77077
2.881
2.69228
1.00317
0.996908
0.990523
0.983428
0.977911
0.97336
0.969643
0.966538
0.963847
0.961565
0.959516
0.95779
0.95618
0.955151
0.955043
0.955781
0.957095
0.964384
0.975646
1.02128
1.10341
1.38869
2.09036
2.50363
2.595
2.59171
2.58143
2.57853
2.58038
2.58688
2.60263
2.61147
2.62675
2.63847
2.66313
2.68525
2.73092
2.77215
2.88085
2.69285
1.00317
0.996858
0.990574
0.983375
0.977964
0.973304
0.969699
0.966481
0.963904
0.961506
0.959575
0.95773
0.95624
0.955082
0.955098
0.955788
0.957148
0.965773
0.976846
1.01945
1.10766
1.37866
2.06143
2.49309
2.58759
2.58557
2.5761
2.57368
2.57598
2.58326
2.59924
2.60829
2.62357
2.63532
2.66001
2.68208
2.72763
2.76868
2.87818
2.69314
1.00317
0.996857
0.990575
0.983375
0.977964
0.973304
0.969699
0.966481
0.963904
0.961506
0.959574
0.95773
0.956239
0.955084
0.955103
0.955781
0.957194
0.965741
0.976693
1.0202
1.10637
1.37652
2.06255
2.49603
2.59169
2.58899
2.57935
2.57665
2.57865
2.58647
2.60203
2.6108
2.6255
2.63707
2.66145
2.6832
2.72807
2.76837
2.87721
2.69401
1.00317
0.99686
0.990572
0.983378
0.977962
0.973307
0.969696
0.966484
0.963901
0.961509
0.959572
0.957732
0.956236
0.955084
0.955078
0.955915
0.957072
0.96632
0.976405
1.02053
1.10486
1.3728
2.05388
2.49162
2.59034
2.58858
2.57978
2.57714
2.57943
2.58773
2.60321
2.61189
2.62627
2.6377
2.66186
2.68326
2.72747
2.76707
2.87566
2.69431
1.00317
0.996861
0.990571
0.983378
0.977961
0.973307
0.969696
0.966484
0.963901
0.961509
0.959572
0.957732
0.956236
0.95508
0.955068
0.955895
0.957043
0.966231
0.976229
1.02008
1.1036
1.36931
2.04672
2.48799
2.5897
2.58824
2.58001
2.57748
2.58001
2.58861
2.60419
2.61279
2.62688
2.63816
2.66214
2.68323
2.72685
2.76571
2.87424
2.69528
1.00317
0.99685
0.990582
0.983367
0.977972
0.973296
0.969706
0.966473
0.963912
0.961498
0.959583
0.95772
0.956247
0.955063
0.955076
0.955725
0.95711
0.965486
0.976173
1.01884
1.10251
1.36622
2.04121
2.48616
2.59116
2.58962
2.58186
2.57903
2.58158
2.59032
2.60574
2.61432
2.6282
2.63925
2.66292
2.68357
2.72645
2.76438
2.87259
2.69753
1.00317
0.996862
0.99057
0.983379
0.97796
0.973308
0.969695
0.966484
0.9639
0.961509
0.959571
0.957731
0.956235
0.955067
0.955033
0.955831
0.956952
0.965972
0.975729
1.01888
1.1003
1.3604
2.02865
2.47907
2.58971
2.58823
2.58153
2.57896
2.58187
2.59102
2.60636
2.61512
2.62904
2.63988
2.66318
2.68345
2.72572
2.76286
2.87106
2.69942
1.00317
0.996864
0.990568
0.983381
0.977958
0.97331
0.969692
0.966486
0.963898
0.961511
0.959569
0.957732
0.956233
0.955059
0.955008
0.955795
0.956884
0.965835
0.975392
1.01814
1.09843
1.3543
2.01704
2.47288
2.58926
2.58769
2.58151
2.57897
2.58207
2.59151
2.60677
2.6157
2.62958
2.64017
2.66297
2.68296
2.7249
2.76131
2.86933
2.70086
1.00317
0.996865
0.990567
0.983381
0.977957
0.97331
0.969692
0.966486
0.963898
0.96151
0.95957
0.95773
0.956233
0.955047
0.954979
0.955736
0.956808
0.965611
0.975009
1.01711
1.09616
1.34783
2.0025
2.46614
2.58868
2.58718
2.58144
2.57894
2.58243
2.59216
2.60725
2.61632
2.63002
2.64032
2.66251
2.68215
2.72346
2.75901
2.86741
2.70281
1.00318
0.996844
0.990587
0.983359
0.977978
0.973288
0.969713
0.966464
0.96392
0.961488
0.959592
0.957707
0.956255
0.95501
0.954965
0.95553
0.956777
0.964797
0.974737
1.01453
1.09372
1.34167
1.98509
2.45544
2.58612
2.58496
2.58033
2.57812
2.58214
2.59222
2.60738
2.61671
2.63049
2.64056
2.66202
2.68129
2.72215
2.75698
2.8656
2.70451
1.00317
0.996907
0.990524
0.983427
0.977912
0.973358
0.969645
0.966535
0.96385
0.96156
0.959521
0.957779
0.956182
0.955075
0.954871
0.955508
0.956648
0.963132
0.973216
1.01397
1.08705
1.33994
1.98662
2.44847
2.58444
2.58303
2.57818
2.57606
2.58061
2.59108
2.60658
2.61622
2.63028
2.64027
2.66125
2.68024
2.7207
2.75505
2.86426
2.70634
1.00317
0.996913
0.990516
0.98343
0.977907
0.97336
0.969641
0.966537
0.963846
0.96156
0.959518
0.957778
0.95618
0.955062
0.954838
0.955453
0.956558
0.962945
0.972725
1.01298
1.08458
1.33027
1.96909
2.44133
2.58444
2.58278
2.57778
2.57496
2.57962
2.59003
2.60558
2.61509
2.62939
2.63925
2.65971
2.67843
2.71823
2.75202
2.86251
2.70858
1.00317
0.996908
0.990523
0.983428
0.97791
0.973359
0.969644
0.966536
0.963849
0.961561
0.95952
0.957777
0.956181
0.955047
0.954796
0.955389
0.956456
0.962632
0.972224
1.01103
1.08035
1.31989
1.94536
2.43076
2.5835
2.58178
2.577
2.57364
2.57851
2.58889
2.60441
2.61396
2.62826
2.63788
2.6576
2.67612
2.71568
2.74891
2.86012
2.71309
1.00317
0.996853
0.990578
0.983367
0.97797
0.973294
0.969706
0.96647
0.963913
0.961492
0.959586
0.957706
0.956249
0.954956
0.954813
0.955287
0.956375
0.963825
0.97258
1.00988
1.07979
1.30253
1.89665
2.41564
2.5813
2.57964
2.57553
2.57181
2.57703
2.58755
2.6027
2.61194
2.62638
2.63589
2.65501
2.67298
2.7119
2.74486
2.85781
2.71577
1.00318
0.996843
0.990587
0.983357
0.977979
0.973284
0.969715
0.966459
0.963923
0.961481
0.959597
0.957693
0.956259
0.954931
0.954784
0.955169
0.956295
0.963409
0.97207
1.00753
1.0762
1.28964
1.863
2.39533
2.57548
2.57424
2.57155
2.56891
2.57536
2.5862
2.60125
2.61059
2.62483
2.63405
2.6525
2.67
2.70847
2.7407
2.8545
2.71769
1.00317
0.996914
0.990517
0.983434
0.977904
0.973365
0.969637
0.966542
0.963842
0.961565
0.959516
0.957778
0.956176
0.955008
0.954673
0.955187
0.956136
0.961834
0.970507
1.00589
1.06922
1.28132
1.85531
2.38251
2.5706
2.56889
2.56509
2.56278
2.57
2.58237
2.59786
2.60767
2.62213
2.63163
2.64973
2.66682
2.70487
2.73645
2.85112
2.7177
1.00317
0.996918
0.990511
0.983434
0.977901
0.973363
0.969636
0.966539
0.963842
0.961562
0.959517
0.957773
0.956178
0.954989
0.954641
0.955126
0.956033
0.961533
0.969904
1.00425
1.06504
1.26941
1.82089
2.37063
2.5656
2.56407
2.56043
2.55834
2.56575
2.57832
2.59414
2.60395
2.61865
2.62834
2.64614
2.66294
2.70063
2.73233
2.84835
2.71716
1.00317
0.996918
0.990512
0.983437
0.977899
0.973368
0.969633
0.966546
0.963838
0.961569
0.959512
0.957779
0.956172
0.95498
0.954587
0.955035
0.955911
0.961182
0.969319
1.0019
1.06089
1.25674
1.78288
2.35612
2.55691
2.5558
2.55242
2.55135
2.55978
2.57261
2.58936
2.59972
2.61441
2.62452
2.64216
2.65867
2.69572
2.72734
2.84485
2.71527
1.00317
0.996918
0.990511
0.983434
0.977901
0.973364
0.969636
0.96654
0.963843
0.961562
0.959518
0.95777
0.956179
0.954956
0.954554
0.954986
0.955812
0.960893
0.968655
1.00026
1.05599
1.24535
1.73321
2.33501
2.54693
2.54633
2.5439
2.54318
2.55243
2.56577
2.58321
2.59445
2.60946
2.61984
2.63733
2.65366
2.69044
2.72201
2.84213
2.71423
1.00317
0.996918
0.99051
0.983434
0.9779
0.973364
0.969636
0.96654
0.963843
0.961562
0.959518
0.957768
0.956178
0.954939
0.954508
0.95491
0.955692
0.96058
0.968035
0.99848
1.05192
1.2331
1.6963
2.31119
2.53683
2.53701
2.53575
2.53459
2.54503
2.55766
2.57536
2.5876
2.60286
2.61403
2.6316
2.64783
2.68448
2.71594
2.83736
2.71469
1.00316
0.996917
0.990511
0.983433
0.977901
0.973363
0.969636
0.966539
0.963844
0.96156
0.959519
0.957765
0.956179
0.95492
0.954458
0.954829
0.955574
0.960229
0.967396
0.996458
1.04746
1.22303
1.64819
2.29793
2.53031
2.53271
2.53014
2.52847
2.53842
2.55161
2.56841
2.58098
2.59602
2.60733
2.62499
2.64119
2.67814
2.70943
2.83341
2.71595
1.00316
0.996907
0.990521
0.983426
0.97791
0.973357
0.969645
0.966534
0.963852
0.961555
0.959528
0.957758
0.956187
0.954897
0.954406
0.954708
0.955476
0.959813
0.966769
0.994231
1.04343
1.21329
1.60101
2.28359
2.52448
2.53095
2.52573
2.5242
2.53152
2.54615
2.56244
2.57487
2.58977
2.60082
2.61808
2.63388
2.67083
2.70242
2.82646
2.71658
1.00317
0.996908
0.990523
0.983425
0.977913
0.973355
0.969649
0.966531
0.963857
0.96155
0.959534
0.957751
0.956194
0.954874
0.954363
0.954639
0.955362
0.959534
0.966086
0.992792
1.03877
1.20369
1.55453
2.26472
2.51786
2.52986
2.52316
2.52146
2.52749
2.54131
2.55716
2.56976
2.58434
2.59483
2.61163
2.62675
2.66257
2.6945
2.82142
2.71809
1.00317
0.996904
0.990529
0.983423
0.977919
0.973353
0.969655
0.966529
0.963863
0.961547
0.959541
0.957746
0.9562
0.954854
0.954314
0.954551
0.95525
0.959193
0.965362
0.991101
1.03358
1.19524
1.52133
2.23868
2.51114
2.52868
2.52179
2.51943
2.52463
2.53702
2.55191
2.56419
2.57911
2.58951
2.60563
2.6199
2.65426
2.68558
2.81148
2.71822
1.00317
0.996905
0.990532
0.983427
0.977921
0.973358
0.969656
0.966534
0.963864
0.961551
0.959541
0.957748
0.9562
0.954842
0.954253
0.954476
0.955109
0.95884
0.964746
0.989272
1.02981
1.18596
1.48528
2.21164
2.49949
2.52708
2.52184
2.51882
2.52354
2.53488
2.54846
2.55937
2.5734
2.58345
2.59977
2.61358
2.64678
2.67758
2.8048
2.71871
1.00319
0.996879
0.990564
0.983401
0.977954
0.973329
0.969691
0.966503
0.9639
0.961519
0.959579
0.957714
0.956238
0.954794
0.954244
0.954366
0.955039
0.959574
0.964689
0.990008
1.02888
1.16922
1.47648
2.20952
2.48885
2.52427
2.52031
2.51901
2.52293
2.53335
2.54614
2.55621
2.56912
2.57767
2.59323
2.60628
2.63822
2.66774
2.79233
2.71756
1.00319
0.996881
0.990566
0.983405
0.977955
0.973334
0.969691
0.966508
0.9639
0.961524
0.959579
0.957717
0.956236
0.954785
0.954193
0.954305
0.954965
0.959112
0.96412
0.988591
1.02562
1.15867
1.45766
2.18965
2.48352
2.52514
2.51999
2.51981
2.52316
2.53252
2.54454
2.55344
2.56577
2.57298
2.58758
2.59983
2.63041
2.65976
2.784
2.71587
1.00319
0.996885
0.990563
0.98341
0.977952
0.973338
0.969688
0.966512
0.963897
0.961527
0.959576
0.957719
0.956233
0.954772
0.954133
0.954218
0.954833
0.95875
0.963444
0.986743
1.02276
1.1467
1.44432
2.17621
2.47226
2.52509
2.51924
2.51964
2.5226
2.53185
2.54348
2.55148
2.56272
2.56878
2.58141
2.59232
2.62001
2.64777
2.7694
2.71197
1.00318
0.996925
0.99052
0.983451
0.977908
0.97338
0.969644
0.966555
0.963852
0.961571
0.959531
0.957763
0.956185
0.954802
0.954013
0.954197
0.954622
0.957608
0.962321
0.982989
1.01568
1.14597
1.40202
2.12356
2.46552
2.52428
2.52028
2.51902
2.52109
2.5296
2.5412
2.54957
2.56046
2.56586
2.57694
2.5866
2.61198
2.63853
2.75803
2.7039
1.00318
0.996934
0.99051
0.983459
0.977897
0.97339
0.969633
0.966564
0.963842
0.96158
0.959521
0.957771
0.956173
0.954802
0.953951
0.954105
0.9545
0.957309
0.961719
0.981485
1.01229
1.13594
1.37795
2.05987
2.4468
2.52576
2.52277
2.51967
2.52129
2.52708
2.53743
2.54584
2.55704
2.56186
2.57099
2.57878
2.59994
2.62431
2.74088
2.69472
1.00318
0.996918
0.990525
0.98344
0.977914
0.97337
0.969652
0.966544
0.963861
0.961559
0.959541
0.957749
0.956192
0.954772
0.953939
0.953981
0.954439
0.957822
0.96165
0.982294
1.01215
1.12048
1.3712
2.065
2.42647
2.5244
2.52379
2.52128
2.52223
2.52671
2.5344
2.54144
2.55319
2.55875
2.56756
2.57369
2.59187
2.61167
2.72537
2.67619
1.00318
0.99693
0.990511
0.983452
0.9779
0.973382
0.969638
0.966557
0.963847
0.961572
0.959527
0.957762
0.956175
0.954778
0.953878
0.953907
0.954325
0.957456
0.961099
0.980859
1.00909
1.11182
1.34792
2.04538
2.41137
2.52253
2.52362
2.52208
2.52236
2.52659
2.53279
2.53731
2.54729
2.55249
2.56028
2.56546
2.57963
2.59429
2.70319
2.65864
1.00316
0.996946
0.990482
0.983467
0.977871
0.973399
0.969608
0.966575
0.963816
0.961592
0.959494
0.957783
0.956138
0.954796
0.953786
0.953833
0.95432
0.955783
0.96322
0.973833
1.01113
1.09242
1.32805
1.96351
2.39912
2.52382
2.52404
2.52293
2.52197
2.52628
2.53178
2.53556
2.54381
2.54874
2.55555
2.559
2.57191
2.57695
2.67917
2.62312
1.00316
0.996942
0.990487
0.983463
0.977875
0.973395
0.969611
0.966571
0.963819
0.961589
0.959497
0.95778
0.956137
0.954789
0.953746
0.953711
0.954422
0.955401
0.963438
0.971915
1.01048
1.08139
1.30264
1.89001
2.37222
2.52301
2.52292
2.52221
2.51968
2.52407
2.52929
2.53214
2.53863
2.54159
2.547
2.54825
2.55917
2.55857
2.64473
2.58497
1.00316
0.996942
0.990488
0.983464
0.977875
0.973396
0.96961
0.966573
0.963818
0.961591
0.959495
0.957783
0.956132
0.954791
0.953702
0.953617
0.954214
0.955155
0.962606
0.970536
1.00666
1.07201
1.27717
1.82979
2.32978
2.51642
2.5206
2.52182
2.51977
2.52334
2.52881
2.53142
2.53732
2.53893
2.54191
2.54072
2.54632
2.53566
2.6102
2.5047
1.02214
1.02696
1.02399
1.02129
1.01827
1.01495
1.01203
1.00946
1.0071
1.0051
1.00321
1.00162
1.00012
0.999309
0.999243
1.00007
1.00171
1.01009
1.02419
1.07666
1.18084
1.50524
2.30848
2.63658
2.69253
2.68021
2.66832
2.66426
2.6657
2.67488
2.68684
2.69662
2.70994
2.7232
2.73268
2.75409
2.78445
2.79103
2.86834
2.71587
1.02215
1.02695
1.02405
1.02123
1.01832
1.0149
1.01209
1.0094
1.00715
1.00504
1.00326
1.00157
1.00017
0.999248
0.999343
0.999768
1.0028
1.0078
1.02948
1.06687
1.19421
1.4918
2.2715
2.63182
2.68855
2.6765
2.6653
2.66139
2.66336
2.67266
2.685
2.69472
2.70816
2.72182
2.73152
2.75299
2.78182
2.78727
2.86413
2.7204
1.02215
1.02695
1.02405
1.02123
1.01832
1.0149
1.01209
1.0094
1.00715
1.00504
1.00326
1.00157
1.00017
0.999248
0.999342
0.999767
1.0028
1.00779
1.02944
1.0668
1.19396
1.49119
2.27107
2.63191
2.68895
2.67708
2.66607
2.66242
2.66465
2.67417
2.68644
2.69615
2.70985
2.72295
2.73273
2.75488
2.78081
2.78564
2.86409
2.72306
1.02214
1.02696
1.024
1.02128
1.01827
1.01495
1.01204
1.00945
1.0071
1.00509
1.00321
1.00162
1.00012
0.999304
0.999245
1.00008
1.00171
1.01007
1.02404
1.07639
1.17981
1.50311
2.30492
2.63521
2.69249
2.6808
2.66964
2.66646
2.66873
2.67868
2.69023
2.70042
2.71454
2.7257
2.73576
2.75944
2.78141
2.78611
2.86706
2.72278
1.02214
1.02696
1.02403
1.02126
1.0183
1.01492
1.01207
1.00942
1.00713
1.00507
1.00324
1.00159
1.00015
0.999274
0.99931
0.999715
1.00352
1.0081
1.03104
1.06859
1.18893
1.50168
2.28586
2.63042
2.68846
2.67762
2.6671
2.6647
2.66766
2.67844
2.68985
2.70051
2.71487
2.72494
2.73558
2.75959
2.77916
2.78441
2.86743
2.7239
1.02214
1.02696
1.024
1.02128
1.01827
1.01495
1.01204
1.00945
1.0071
1.00509
1.00322
1.00162
1.00012
0.999296
0.999234
1.00007
1.00169
1.01003
1.02389
1.07613
1.17866
1.49828
2.30074
2.63408
2.69277
2.68148
2.67129
2.66854
2.67154
2.68234
2.69311
2.70397
2.71785
2.72649
2.73812
2.76132
2.7784
2.78441
2.86832
2.72377
1.02215
1.02695
1.02406
1.02121
1.01834
1.01488
1.0121
1.00939
1.00717
1.00503
1.00328
1.00155
1.00019
0.999216
0.999332
0.999728
1.00258
1.00773
1.0287
1.06689
1.19211
1.48038
2.25701
2.62512
2.68656
2.67667
2.66788
2.6662
2.67032
2.68215
2.69326
2.70445
2.71863
2.72685
2.74001
2.76153
2.77737
2.78275
2.86742
2.72392
1.02215
1.02695
1.02405
1.02123
1.01832
1.0149
1.01209
1.0094
1.00715
1.00504
1.00327
1.00157
1.00018
0.999233
0.999291
0.999973
1.00184
1.01089
1.02529
1.07307
1.18354
1.483
2.27397
2.62986
2.69218
2.68115
2.67177
2.66985
2.67369
2.68541