/*--------------------------------*- C++ -*----------------------------------*\
  =========                 |
  \\      /  F ield         | OpenFOAM: The Open Source CFD Toolbox
   \\    /   O peration     | Website:  https://openfoam.org
    \\  /    A nd           | Version:  6.0
     \\/     M anipulation  |
\*---------------------------------------------------------------------------*/
FoamFile
{
    version     2.0;
    format      ascii;
    class       volVectorField;
    location    "3.0001335";
    object      U;
}
// * * * * * * * * * * * * * * * * * * * * * * * * * * * * * * * * * * * * * //

dimensions      [0 1 -1 0 0 0 0];

internalField   nonuniform List<vector> 
192000
(
(3 5.61578e-16 0)
(3 -1.89483e-16 0)
(3 6.40359e-16 0)
(3 -1.03137e-16 0)
(3 -7.83861e-16 0)
(3 2.50231e-15 0)
(3 1.10845e-15 0)
(3 -8.40014e-15 0)
(3 -2.22451e-15 0)
(3 -7.99338e-16 0)
(3 -1.03221e-15 0)
(3 9.51321e-16 0)
(3 -4.12274e-16 0)
(3 3.89146e-15 0)
(3 1.74523e-15 0)
(3 1.0037e-15 0)
(3 4.69311e-15 0)
(3 1.00524e-15 0)
(3 2.27389e-15 0)
(3 5.05601e-15 0)
(2.11664 0.00385625 0)
(0.827976 0.00446659 0)
(0.718514 0.00512822 0)
(0.684036 0.0049756 0)
(0.647399 0.00506499 0)
(0.612779 0.00526473 0)
(0.578101 0.00550476 0)
(0.54299 0.00562865 0)
(0.50721 0.00564698 0)
(0.47081 0.00570034 0)
(0.434019 0.0058286 0)
(0.396938 0.00607012 0)
(0.359245 0.00644072 0)
(0.320621 0.00686408 0)
(0.280421 0.00728055 0)
(0.23681 0.00761232 0)
(0.188066 0.00784876 0)
(0.134609 0.00831652 0)
(0.079593 0.0089741 0)
(0.0277004 0.00957861 0)
(3 -1.31804e-16 0)
(3 2.37218e-16 0)
(3 8.9835e-17 0)
(3 -3.27911e-16 0)
(3 -1.32028e-15 0)
(3 3.29612e-15 0)
(3 2.55615e-15 0)
(3 8.60169e-16 0)
(3 2.66067e-15 0)
(3 9.35214e-16 0)
(3 3.90839e-15 0)
(3 6.68831e-16 0)
(3 3.25039e-15 0)
(3 -4.91275e-16 0)
(3 8.19649e-16 0)
(3 9.86196e-16 0)
(3 1.642e-15 0)
(3 -2.83875e-16 0)
(3 2.48404e-15 0)
(3 1.27524e-15 0)
(2.11665 0.0143225 0)
(0.824967 0.0140503 0)
(0.71583 0.0146384 0)
(0.681496 0.0142175 0)
(0.644886 0.0146164 0)
(0.610107 0.0157309 0)
(0.574642 0.01664 0)
(0.538614 0.0168418 0)
(0.502339 0.0166141 0)
(0.465912 0.0165056 0)
(0.429284 0.0168157 0)
(0.392335 0.0173986 0)
(0.354848 0.0183146 0)
(0.316629 0.0196439 0)
(0.27691 0.0213922 0)
(0.233797 0.0230735 0)
(0.185867 0.0241114 0)
(0.133576 0.0252487 0)
(0.0795106 0.0268602 0)
(0.0277047 0.0287347 0)
(3 -2.42427e-15 0)
(3 -1.46756e-15 0)
(3 -1.80607e-15 0)
(3 1.26105e-15 0)
(3 1.14422e-15 0)
(3 -4.07823e-15 0)
(3 7.29655e-16 0)
(3 1.17225e-15 0)
(3 6.058e-16 0)
(3 -3.58497e-15 0)
(3 2.0889e-15 0)
(3 2.02516e-15 0)
(3 7.29534e-15 0)
(3 7.84262e-16 0)
(3 1.28097e-15 0)
(3 -2.13391e-15 0)
(3 -3.89616e-16 0)
(3 -1.93056e-15 0)
(3 -1.10758e-15 0)
(3 -3.56004e-15 0)
(2.1289 0.0255824 0)
(0.827529 0.0242659 0)
(0.716203 0.0256312 0)
(0.68003 0.0244015 0)
(0.641462 0.0244837 0)
(0.605159 0.0254028 0)
(0.568632 0.0266199 0)
(0.531868 0.0272356 0)
(0.495155 0.0273531 0)
(0.458644 0.027607 0)
(0.422127 0.0281871 0)
(0.385437 0.0291222 0)
(0.348385 0.0304483 0)
(0.310678 0.0321306 0)
(0.271444 0.0344811 0)
(0.228896 0.0373047 0)
(0.181965 0.0397611 0)
(0.131305 0.042266 0)
(0.0788496 0.0447553 0)
(0.0276203 0.0473974 0)
(3 1.94004e-15 0)
(3 -3.15878e-15 0)
(3 -3.13718e-15 0)
(3 2.67367e-15 0)
(3 -2.28363e-15 0)
(3 6.64295e-15 0)
(3 1.98924e-15 0)
(3 5.85542e-16 0)
(3 -2.71473e-15 0)
(3 1.71267e-15 0)
(3 9.05436e-16 0)
(3 5.21591e-15 0)
(3 3.8608e-15 0)
(3 6.64786e-15 0)
(3 1.92179e-15 0)
(3 2.30761e-15 0)
(3 5.70741e-16 0)
(3 -1.51202e-15 0)
(3 -1.65838e-15 0)
(3 -3.6917e-15 0)
(2.14492 0.0319001 0)
(0.832452 0.0332503 0)
(0.719731 0.0373547 0)
(0.681969 0.035862 0)
(0.641015 0.0360766 0)
(0.601302 0.0363271 0)
(0.561965 0.036795 0)
(0.523682 0.0371843 0)
(0.486437 0.037786 0)
(0.449781 0.0386725 0)
(0.413228 0.0396019 0)
(0.376681 0.0406472 0)
(0.340092 0.0420693 0)
(0.303141 0.0439947 0)
(0.264722 0.0468299 0)
(0.223161 0.0507271 0)
(0.177687 0.0549045 0)
(0.12903 0.059174 0)
(0.0782578 0.0625707 0)
(0.027485 0.0658088 0)
(3 7.19347e-16 0)
(3 1.1432e-16 0)
(3 1.04937e-15 0)
(3 7.66423e-16 0)
(3 8.20006e-16 0)
(3 4.38954e-15 0)
(3 5.28166e-15 0)
(3 1.01393e-16 0)
(3 -1.24525e-15 0)
(3 -4.50075e-16 0)
(3 -1.49047e-15 0)
(3 6.39752e-16 0)
(3 2.76121e-15 0)
(3 3.47371e-15 0)
(3 1.96303e-15 0)
(3 -4.60233e-16 0)
(3 -3.00117e-15 0)
(3 -1.33691e-15 0)
(3 4.5008e-16 0)
(3 -2.21132e-16 0)
(2.15853 0.0390036 0)
(0.830023 0.0434872 0)
(0.715132 0.0497523 0)
(0.67679 0.0480849 0)
(0.63527 0.0473848 0)
(0.595123 0.0471798 0)
(0.555203 0.0475919 0)
(0.516187 0.0482419 0)
(0.478176 0.0490879 0)
(0.440864 0.0500176 0)
(0.403954 0.0509317 0)
(0.367409 0.0521557 0)
(0.33116 0.053813 0)
(0.294745 0.0556966 0)
(0.257095 0.0586566 0)
(0.216731 0.0634944 0)
(0.172951 0.0694465 0)
(0.126339 0.075776 0)
(0.0772626 0.08015 0)
(0.0271861 0.0838398 0)
(3 2.16763e-16 0)
(3 -5.30971e-17 0)
(3 -1.4086e-16 0)
(3 -2.12795e-16 0)
(3 1.12513e-15 0)
(3 -1.97359e-15 0)
(3 1.54786e-15 0)
(3 -2.51135e-16 0)
(3 5.65596e-15 0)
(3 2.27933e-15 0)
(3 5.56829e-16 0)
(3 -6.6153e-16 0)
(3 3.70463e-15 0)
(3 1.08008e-15 0)
(3 8.3506e-16 0)
(3 2.49686e-15 0)
(3 -3.42596e-16 0)
(3 2.01617e-15 0)
(3 4.95996e-16 0)
(3 -5.84872e-16 0)
(2.17321 0.0469409 0)
(0.827683 0.0547757 0)
(0.707527 0.0608899 0)
(0.66881 0.0588061 0)
(0.627837 0.058017 0)
(0.588377 0.0582618 0)
(0.548713 0.0591556 0)
(0.50932 0.0599174 0)
(0.47054 0.0603891 0)
(0.432539 0.0608928 0)
(0.395208 0.0617081 0)
(0.35853 0.0632976 0)
(0.322249 0.0654694 0)
(0.285991 0.067466 0)
(0.248823 0.0703127 0)
(0.209677 0.0757594 0)
(0.16797 0.083443 0)
(0.123546 0.0917891 0)
(0.0760136 0.0971642 0)
(0.0267674 0.101511 0)
(3 -6.19604e-16 0)
(3 -1.10502e-15 0)
(3 8.28984e-16 0)
(3 3.14795e-15 0)
(3 2.4281e-15 0)
(3 3.57564e-15 0)
(3 1.47313e-15 0)
(3 2.5271e-15 0)
(3 9.39603e-16 0)
(3 -2.98993e-15 0)
(3 -1.31815e-15 0)
(3 -3.6493e-16 0)
(3 -3.31237e-15 0)
(3 -3.62602e-15 0)
(3 -2.02573e-15 0)
(3 7.12537e-16 0)
(3 3.59262e-15 0)
(3 1.0972e-15 0)
(3 -3.59408e-16 0)
(3 -4.32497e-15 0)
(2.18984 0.0574866 0)
(0.825468 0.0671299 0)
(0.701009 0.0722926 0)
(0.662642 0.0701331 0)
(0.622542 0.069886 0)
(0.583969 0.0704684 0)
(0.544753 0.0714545 0)
(0.505179 0.071955 0)
(0.465694 0.072054 0)
(0.426773 0.0720969 0)
(0.388714 0.0728523 0)
(0.351402 0.0748222 0)
(0.314491 0.0773651 0)
(0.277713 0.0794572 0)
(0.240701 0.0821625 0)
(0.202901 0.0881114 0)
(0.16336 0.0972163 0)
(0.120934 0.107077 0)
(0.0746914 0.11345 0)
(0.0262749 0.118784 0)
(3 -2.33243e-15 0)
(3 3.45831e-15 0)
(3 2.99496e-15 0)
(3 5.98265e-15 0)
(3 4.51318e-16 0)
(3 2.11802e-15 0)
(3 1.01247e-15 0)
(3 1.74303e-15 0)
(3 -8.33858e-17 0)
(3 6.56768e-16 0)
(3 2.59714e-15 0)
(3 -9.03354e-16 0)
(3 -2.17626e-15 0)
(3 -2.78171e-15 0)
(3 -1.69511e-15 0)
(3 -6.04215e-16 0)
(3 -1.336e-16 0)
(3 -6.86092e-16 0)
(3 -2.35978e-15 0)
(3 -3.94302e-15 0)
(2.21732 0.0716845 0)
(0.828435 0.0813014 0)
(0.699579 0.0840703 0)
(0.662109 0.0824279 0)
(0.62298 0.0822463 0)
(0.585027 0.0829759 0)
(0.545958 0.0838533 0)
(0.505979 0.0841372 0)
(0.46561 0.0840487 0)
(0.425619 0.0843942 0)
(0.386408 0.0855271 0)
(0.347722 0.0874911 0)
(0.309182 0.0897395 0)
(0.27082 0.0913376 0)
(0.233044 0.0938759 0)
(0.196172 0.100594 0)
(0.158697 0.11076 0)
(0.118355 0.121743 0)
(0.0733454 0.129017 0)
(0.0258082 0.135579 0)
(3 1.8187e-15 0)
(3 3.96318e-16 0)
(3 2.77477e-15 0)
(3 5.8361e-16 0)
(3 5.04844e-16 0)
(3 1.49582e-15 0)
(3 1.09686e-16 0)
(3 -1.44332e-15 0)
(3 8.24008e-16 0)
(3 3.33899e-15 0)
(3 3.91544e-15 0)
(3 1.1708e-15 0)
(3 1.72921e-15 0)
(3 -1.57102e-15 0)
(3 -7.3898e-17 0)
(3 1.0174e-15 0)
(3 2.14536e-15 0)
(3 1.14058e-15 0)
(3 -1.6195e-15 0)
(3 -1.58887e-15 0)
(2.2582 0.0849184 0)
(0.838141 0.0949888 0)
(0.704921 0.0961965 0)
(0.668092 0.0943417 0)
(0.629345 0.0943977 0)
(0.591561 0.0949199 0)
(0.552354 0.095321 0)
(0.511813 0.0952867 0)
(0.470552 0.0957535 0)
(0.42949 0.0974671 0)
(0.388857 0.0994551 0)
(0.348357 0.101232 0)
(0.307628 0.102712 0)
(0.267003 0.103466 0)
(0.227656 0.10602 0)
(0.19048 0.113604 0)
(0.154065 0.124469 0)
(0.115344 0.13595 0)
(0.0717161 0.143938 0)
(0.025325 0.15178 0)
(3 4.5387e-16 0)
(3 9.61999e-16 0)
(3 -3.9736e-16 0)
(3 2.24001e-15 0)
(3 2.50801e-15 0)
(3 -9.2213e-16 0)
(3 2.31099e-15 0)
(3 1.92261e-15 0)
(3 1.40508e-15 0)
(3 1.53548e-15 0)
(3 1.43808e-15 0)
(3 -2.3944e-16 0)
(3 1.38575e-15 0)
(3 -1.96781e-15 0)
(3 -2.67392e-16 0)
(3 -3.4733e-15 0)
(3 -2.79257e-15 0)
(3 -5.18102e-15 0)
(3 -5.68496e-16 0)
(3 1.92159e-15 0)
(2.30774 0.0938117 0)
(0.85215 0.106838 0)
(0.714984 0.106275 0)
(0.678073 0.105369 0)
(0.639081 0.106011 0)
(0.6011 0.106218 0)
(0.561594 0.106108 0)
(0.520699 0.106394 0)
(0.479069 0.108146 0)
(0.437183 0.111237 0)
(0.39503 0.1142 0)
(0.352611 0.115764 0)
(0.309651 0.116109 0)
(0.266761 0.115993 0)
(0.225511 0.118787 0)
(0.187039 0.127139 0)
(0.150211 0.138395 0)
(0.112081 0.149969 0)
(0.0698775 0.158341 0)
(0.02476 0.167286 0)
(3 -4.34897e-16 0)
(3 8.54411e-16 0)
(3 -1.53056e-15 0)
(3 -6.51042e-16 0)
(3 5.56658e-16 0)
(3 1.32061e-15 0)
(3 -3.26673e-15 0)
(3 4.57068e-16 0)
(3 2.0819e-15 0)
(3 1.5786e-15 0)
(3 4.86545e-16 0)
(3 1.70602e-15 0)
(3 1.81704e-15 0)
(3 1.33572e-15 0)
(3 -1.52836e-15 0)
(3 -8.89371e-16 0)
(3 -2.6754e-15 0)
(3 -3.39681e-15 0)
(3 -2.67326e-16 0)
(3 1.47667e-15 0)
(2.3592 0.0988608 0)
(0.866305 0.117686 0)
(0.724082 0.117668 0)
(0.688214 0.116302 0)
(0.649498 0.116473 0)
(0.611568 0.116557 0)
(0.572271 0.116799 0)
(0.531782 0.117883 0)
(0.490159 0.120883 0)
(0.447444 0.125293 0)
(0.403733 0.129026 0)
(0.359197 0.130567 0)
(0.314255 0.129922 0)
(0.269674 0.129329 0)
(0.226684 0.13246 0)
(0.186173 0.141064 0)
(0.147701 0.152475 0)
(0.109139 0.164031 0)
(0.0677786 0.172354 0)
(0.0240374 0.182079 0)
(3 5.23068e-16 0)
(3 5.84521e-16 0)
(3 -6.90793e-16 0)
(3 -4.44486e-16 0)
(3 -3.31896e-16 0)
(3 6.01421e-16 0)
(3 1.14947e-15 0)
(3 -2.22726e-15 0)
(3 -4.67575e-17 0)
(3 2.18129e-16 0)
(3 2.84597e-16 0)
(3 3.70724e-15 0)
(3 4.39767e-15 0)
(3 -2.90079e-16 0)
(3 -1.61449e-15 0)
(3 -6.25751e-16 0)
(3 -1.43137e-15 0)
(3 -6.78121e-16 0)
(3 -1.21448e-15 0)
(3 -2.55562e-15 0)
(2.40863 0.102528 0)
(0.877867 0.128835 0)
(0.732314 0.127379 0)
(0.697161 0.124806 0)
(0.658385 0.12551 0)
(0.620694 0.126471 0)
(0.581991 0.128154 0)
(0.54232 0.130632 0)
(0.501375 0.134456 0)
(0.458797 0.139233 0)
(0.414176 0.14296 0)
(0.368031 0.144504 0)
(0.321341 0.144216 0)
(0.275212 0.144056 0)
(0.230339 0.147105 0)
(0.187358 0.15544 0)
(0.146635 0.166658 0)
(0.106925 0.178125 0)
(0.0657864 0.186107 0)
(0.0233148 0.196298 0)
(3 7.46494e-16 0)
(3 7.02332e-16 0)
(3 8.43099e-16 0)
(3 -9.13428e-16 0)
(3 -2.5944e-15 0)
(3 2.10426e-15 0)
(3 2.09735e-15 0)
(3 1.12642e-15 0)
(3 -1.83818e-15 0)
(3 -1.69297e-15 0)
(3 -1.83321e-16 0)
(3 1.04268e-15 0)
(3 1.60128e-15 0)
(3 4.63745e-15 0)
(3 -7.13072e-16 0)
(3 1.67869e-15 0)
(3 3.93888e-16 0)
(3 1.47523e-15 0)
(3 -2.79214e-15 0)
(3 -3.87125e-15 0)
(2.45845 0.103347 0)
(0.890056 0.138308 0)
(0.7361 0.137707 0)
(0.700581 0.134843 0)
(0.662016 0.135482 0)
(0.625198 0.137257 0)
(0.588017 0.140322 0)
(0.550176 0.144123 0)
(0.510866 0.148166 0)
(0.469082 0.152186 0)
(0.424415 0.155712 0)
(0.377512 0.157897 0)
(0.32976 0.159459 0)
(0.282384 0.160413 0)
(0.235698 0.162907 0)
(0.190342 0.170379 0)
(0.147169 0.180931 0)
(0.105765 0.192143 0)
(0.0641429 0.199701 0)
(0.0226447 0.210214 0)
(3 -1.17496e-15 0)
(3 1.55429e-15 0)
(3 -1.87494e-15 0)
(3 -1.87697e-15 0)
(3 -1.66721e-15 0)
(3 -6.21362e-16 0)
(3 1.21575e-15 0)
(3 2.29202e-15 0)
(3 -3.77791e-15 0)
(3 -1.12124e-15 0)
(3 -1.8611e-15 0)
(3 -2.06154e-15 0)
(3 -1.08555e-15 0)
(3 -1.85229e-15 0)
(3 -1.87756e-15 0)
(3 3.43876e-16 0)
(3 9.78379e-16 0)
(3 -3.87977e-16 0)
(3 -1.71246e-15 0)
(3 -3.21089e-15 0)
(2.50397 0.104158 0)
(0.89669 0.15021 0)
(0.733042 0.147794 0)
(0.697827 0.144239 0)
(0.659705 0.145421 0)
(0.624042 0.148823 0)
(0.588338 0.153488 0)
(0.55206 0.157767 0)
(0.514487 0.1615 0)
(0.474603 0.165182 0)
(0.431799 0.16816 0)
(0.386413 0.171526 0)
(0.339179 0.175177 0)
(0.290781 0.177548 0)
(0.242198 0.179898 0)
(0.194511 0.186121 0)
(0.148775 0.195435 0)
(0.105262 0.205996 0)
(0.062847 0.213209 0)
(0.0221519 0.224116 0)
(3 -2.99522e-16 0)
(3 2.27343e-18 0)
(3 -3.64108e-15 0)
(3 1.87712e-15 0)
(3 1.84157e-15 0)
(3 -2.66188e-15 0)
(3 -2.2037e-15 0)
(3 1.72502e-15 0)
(3 3.11525e-15 0)
(3 4.95173e-16 0)
(3 1.00758e-15 0)
(3 1.09913e-15 0)
(3 -9.99071e-16 0)
(3 3.29629e-15 0)
(3 1.21186e-15 0)
(3 3.03412e-15 0)
(3 -2.27075e-16 0)
(3 -1.53899e-15 0)
(3 -1.08058e-15 0)
(3 -2.09487e-15 0)
(2.54521 0.106714 0)
(0.900281 0.161662 0)
(0.72595 0.155302 0)
(0.691279 0.152496 0)
(0.654167 0.155302 0)
(0.619303 0.159813 0)
(0.584272 0.164828 0)
(0.548728 0.169185 0)
(0.512338 0.172919 0)
(0.474856 0.17666 0)
(0.435374 0.180962 0)
(0.392928 0.18622 0)
(0.347086 0.191532 0)
(0.298315 0.195075 0)
(0.248252 0.197631 0)
(0.198778 0.202785 0)
(0.151077 0.210339 0)
(0.105737 0.219773 0)
(0.0625218 0.226779 0)
(0.0220203 0.238257 0)
(3 6.50073e-16 0)
(3 -1.02391e-15 0)
(3 1.2882e-15 0)
(3 4.19704e-16 0)
(3 -8.01382e-16 0)
(3 1.85357e-16 0)
(3 -3.72098e-15 0)
(3 -3.80654e-15 0)
(3 1.78075e-15 0)
(3 -4.07483e-16 0)
(3 1.59706e-15 0)
(3 7.79376e-16 0)
(3 1.02936e-15 0)
(3 2.05155e-15 0)
(3 3.70003e-15 0)
(3 9.03245e-16 0)
(3 -1.26699e-15 0)
(3 -1.04898e-15 0)
(3 5.01354e-16 0)
(3 6.22845e-16 0)
(2.59189 0.113452 0)
(0.908318 0.176642 0)
(0.722808 0.165581 0)
(0.688505 0.162999 0)
(0.651679 0.166324 0)
(0.616853 0.171018 0)
(0.581497 0.175491 0)
(0.545735 0.178939 0)
(0.509672 0.182349 0)
(0.473454 0.187503 0)
(0.436269 0.194292 0)
(0.396619 0.201293 0)
(0.353002 0.207672 0)
(0.305139 0.212119 0)
(0.254593 0.215108 0)
(0.20374 0.219708 0)
(0.154154 0.225596 0)
(0.10724 0.233741 0)
(0.0630162 0.240715 0)
(0.0221357 0.252794 0)
(3 -6.06448e-16 0)
(3 8.55876e-17 0)
(3 -3.77585e-16 0)
(3 -1.56181e-15 0)
(3 -1.38688e-15 0)
(3 -1.67594e-15 0)
(3 -2.30046e-15 0)
(3 -2.8285e-15 0)
(3 -1.66453e-15 0)
(3 -1.73299e-15 0)
(3 3.09889e-16 0)
(3 -4.87246e-15 0)
(3 1.15496e-15 0)
(3 -2.04674e-15 0)
(3 8.01526e-16 0)
(3 -1.68628e-15 0)
(3 -5.87522e-16 0)
(3 -3.79683e-15 0)
(3 2.31847e-16 0)
(3 -1.10833e-15 0)
(2.64863 0.120011 0)
(0.924928 0.191991 0)
(0.727158 0.176158 0)
(0.692867 0.174127 0)
(0.65559 0.177609 0)
(0.619988 0.181858 0)
(0.583575 0.18554 0)
(0.546925 0.188445 0)
(0.510433 0.192342 0)
(0.474397 0.199204 0)
(0.43801 0.20783 0)
(0.399708 0.216206 0)
(0.357721 0.223404 0)
(0.310893 0.22858 0)
(0.260236 0.232283 0)
(0.208304 0.236747 0)
(0.157365 0.241307 0)
(0.109492 0.248344 0)
(0.0645292 0.255344 0)
(0.0226585 0.267776 0)
(3 3.07787e-16 0)
(3 8.21213e-16 0)
(3 7.4e-16 0)
(3 2.29654e-16 0)
(3 -8.81717e-16 0)
(3 -5.38315e-16 0)
(3 -1.47893e-15 0)
(3 -9.34638e-16 0)
(3 -6.54848e-16 0)
(3 -1.2807e-15 0)
(3 -1.79506e-15 0)
(3 2.98353e-15 0)
(3 -5.53771e-16 0)
(3 1.51564e-15 0)
(3 -1.43589e-17 0)
(3 1.4453e-15 0)
(3 1.38488e-15 0)
(3 5.0245e-16 0)
(3 1.76366e-15 0)
(3 -9.12244e-16 0)
(2.70528 0.118462 0)
(0.944685 0.206109 0)
(0.735104 0.185159 0)
(0.701705 0.183488 0)
(0.663953 0.18705 0)
(0.627475 0.190985 0)
(0.589875 0.194393 0)
(0.552197 0.197878 0)
(0.514981 0.203213 0)
(0.47833 0.211542 0)
(0.441326 0.221258 0)
(0.402799 0.230612 0)
(0.361328 0.238601 0)
(0.315522 0.244596 0)
(0.265498 0.249061 0)
(0.213149 0.253583 0)
(0.161417 0.257422 0)
(0.11274 0.26393 0)
(0.0669845 0.270826 0)
(0.0233588 0.283175 0)
(3 9.45031e-17 0)
(3 1.35748e-16 0)
(3 4.92447e-16 0)
(3 8.43353e-16 0)
(3 -7.45516e-16 0)
(3 -1.62268e-15 0)
(3 -3.19082e-15 0)
(3 2.12271e-15 0)
(3 4.00408e-16 0)
(3 6.42914e-16 0)
(3 -1.60381e-15 0)
(3 -9.97652e-16 0)
(3 -3.04832e-16 0)
(3 1.37684e-15 0)
(3 -3.74536e-16 0)
(3 1.6245e-16 0)
(3 8.91307e-17 0)
(3 1.22867e-15 0)
(3 1.34865e-15 0)
(3 -2.15991e-15 0)
(2.75148 0.121856 0)
(0.955213 0.223366 0)
(0.735349 0.196204 0)
(0.705228 0.194876 0)
(0.667988 0.198081 0)
(0.631845 0.201333 0)
(0.594524 0.204974 0)
(0.55735 0.209457 0)
(0.52062 0.215622 0)
(0.484039 0.224159 0)
(0.446675 0.23402 0)
(0.407718 0.243695 0)
(0.366255 0.252576 0)
(0.320964 0.25996 0)
(0.271262 0.265569 0)
(0.218445 0.270532 0)
(0.166037 0.274388 0)
(0.116712 0.280789 0)
(0.0699378 0.287128 0)
(0.02415 0.298868 0)
(3 -5.42036e-16 0)
(3 -1.62998e-15 0)
(3 -5.29009e-16 0)
(3 5.84172e-17 0)
(3 8.82654e-16 0)
(3 -3.29297e-15 0)
(3 3.10374e-15 0)
(3 3.25805e-16 0)
(3 -3.23495e-16 0)
(3 6.85061e-16 0)
(3 -2.02987e-15 0)
(3 -3.1763e-15 0)
(3 -1.59359e-15 0)
(3 -3.6724e-15 0)
(3 -3.14524e-15 0)
(3 -2.8227e-15 0)
(3 -3.45272e-16 0)
(3 1.78371e-15 0)
(3 3.33502e-16 0)
(3 -3.25858e-16 0)
(2.81449 0.126386 0)
(0.979616 0.241705 0)
(0.74657 0.203864 0)
(0.716486 0.204236 0)
(0.677116 0.207483 0)
(0.639454 0.211296 0)
(0.601476 0.216096 0)
(0.564229 0.221743 0)
(0.527489 0.22834 0)
(0.490628 0.236578 0)
(0.452708 0.245857 0)
(0.413189 0.255594 0)
(0.371565 0.265837 0)
(0.326541 0.275214 0)
(0.277113 0.282288 0)
(0.22425 0.288023 0)
(0.171499 0.292447 0)
(0.121515 0.298793 0)
(0.0731992 0.304029 0)
(0.0249651 0.314785 0)
(3 -7.28441e-16 0)
(3 1.38082e-15 0)
(3 6.22648e-16 0)
(3 1.20656e-15 0)
(3 -5.32753e-15 0)
(3 5.60157e-16 0)
(3 1.87186e-15 0)
(3 -2.17838e-15 0)
(3 7.76977e-16 0)
(3 -1.44808e-15 0)
(3 -1.28565e-15 0)
(3 -2.97178e-16 0)
(3 -3.88171e-15 0)
(3 2.60339e-15 0)
(3 1.16597e-15 0)
(3 -2.03299e-16 0)
(3 -4.96812e-17 0)
(3 -1.81602e-15 0)
(3 2.68076e-15 0)
(3 1.21965e-15 0)
(2.91362 0.110381 0)
(1.02493 0.253261 0)
(0.773385 0.209705 0)
(0.738783 0.212778 0)
(0.692643 0.218188 0)
(0.650418 0.223415 0)
(0.609606 0.229126 0)
(0.570763 0.235111 0)
(0.533199 0.24144 0)
(0.496087 0.248724 0)
(0.458438 0.257027 0)
(0.419466 0.266912 0)
(0.378352 0.278665 0)
(0.333543 0.29011 0)
(0.284034 0.29903 0)
(0.231026 0.306207 0)
(0.177867 0.311669 0)
(0.126819 0.317785 0)
(0.0765188 0.32138 0)
(0.0258596 0.331003 0)
(3 2.95646e-17 0)
(3 6.49054e-16 0)
(3 8.17069e-16 0)
(3 1.43941e-15 0)
(3 -1.48303e-15 0)
(3 -1.18716e-15 0)
(3 -9.33124e-16 0)
(3 1.58819e-15 0)
(3 8.24448e-16 0)
(3 -2.17594e-15 0)
(3 8.78438e-16 0)
(3 -1.85017e-15 0)
(3 -4.67571e-15 0)
(3 -5.48099e-16 0)
(3 9.13932e-16 0)
(3 1.37618e-15 0)
(3 4.68192e-16 0)
(3 -9.09093e-18 0)
(3 2.77632e-15 0)
(3 1.74785e-15 0)
(2.99183 0.0639158 0)
(1.07397 0.25928 0)
(0.805213 0.216423 0)
(0.766647 0.225641 0)
(0.714301 0.231521 0)
(0.666711 0.237327 0)
(0.621487 0.243162 0)
(0.579414 0.248333 0)
(0.539648 0.253312 0)
(0.501315 0.259556 0)
(0.463645 0.268022 0)
(0.425466 0.279012 0)
(0.385151 0.292157 0)
(0.340755 0.305202 0)
(0.291476 0.316032 0)
(0.238723 0.325122 0)
(0.18528 0.331748 0)
(0.132568 0.337496 0)
(0.0799102 0.339165 0)
(0.0267709 0.347772 0)
(3 4.39105e-16 0)
(3 1.22669e-15 0)
(3 1.26415e-16 0)
(3 1.29047e-15 0)
(3 -1.15305e-15 0)
(3 -5.39626e-16 0)
(3 -1.50007e-15 0)
(3 4.453e-16 0)
(3 9.87946e-16 0)
(3 -4.38221e-16 0)
(3 8.94307e-16 0)
(3 -1.13759e-15 0)
(3 -2.79719e-15 0)
(3 -8.45327e-16 0)
(3 -1.18312e-15 0)
(3 -9.41417e-16 0)
(3 1.27553e-15 0)
(3 2.52198e-16 0)
(3 1.53402e-16 0)
(3 -1.01151e-16 0)
(3.00012 0.0270603 0)
(1.10484 0.250416 0)
(0.815291 0.227539 0)
(0.787 0.239029 0)
(0.736425 0.24706 0)
(0.686637 0.253122 0)
(0.637243 0.258044 0)
(0.590916 0.261477 0)
(0.547615 0.264414 0)
(0.507016 0.270053 0)
(0.468671 0.279685 0)
(0.430969 0.292186 0)
(0.391539 0.306273 0)
(0.348064 0.320381 0)
(0.299605 0.333173 0)
(0.247334 0.344608 0)
(0.193338 0.352426 0)
(0.138347 0.357767 0)
(0.0830778 0.357604 0)
(0.0277173 0.365456 0)
(3 -2.19793e-16 0)
(3 2.41752e-15 0)
(3 -3.30091e-15 0)
(3 1.68013e-17 0)
(3 -3.58529e-15 0)
(3 3.12208e-15 0)
(3 4.91148e-16 0)
(3 1.49998e-15 0)
(3 -3.66553e-15 0)
(3 1.28941e-15 0)
(3 -1.44572e-15 0)
(3 2.22576e-15 0)
(3 2.39569e-15 0)
(3 -5.03409e-16 0)
(3 1.9786e-15 0)
(3 -2.42166e-15 0)
(3 -1.43127e-16 0)
(3 -2.46183e-15 0)
(3 1.50905e-15 0)
(3 1.74294e-15 0)
(2.9896 0.0169956 0)
(1.1206 0.241191 0)
(0.811652 0.235382 0)
(0.792474 0.251925 0)
(0.751445 0.262085 0)
(0.705294 0.269369 0)
(0.655202 0.273447 0)
(0.605421 0.274765 0)
(0.558183 0.276082 0)
(0.514612 0.281788 0)
(0.474436 0.292548 0)
(0.435845 0.305951 0)
(0.396672 0.320617 0)
(0.354584 0.335762 0)
(0.307908 0.350649 0)
(0.256777 0.364486 0)
(0.202202 0.373215 0)
(0.144816 0.378108 0)
(0.0865235 0.37683 0)
(0.0289475 0.384511 0)
(3 1.20303e-15 0)
(3 -2.74562e-15 0)
(3 5.46053e-16 0)
(3 5.3039e-16 0)
(3 1.8794e-15 0)
(3 2.07985e-15 0)
(3 1.32158e-15 0)
(3 -1.78183e-15 0)
(3 -3.62114e-15 0)
(3 6.62482e-16 0)
(3 1.53696e-15 0)
(3 4.14325e-15 0)
(3 2.37574e-15 0)
(3 1.00883e-15 0)
(3 9.16279e-16 0)
(3 2.7811e-15 0)
(3 1.48736e-16 0)
(3 -2.38009e-15 0)
(3 7.64427e-17 0)
(3 -4.11492e-16 0)
(3.00164 0.00578599 0)
(1.13446 0.238917 0)
(0.797778 0.235488 0)
(0.789139 0.261421 0)
(0.758692 0.273781 0)
(0.720438 0.28216 0)
(0.673331 0.287312 0)
(0.622525 0.288831 0)
(0.572239 0.290366 0)
(0.525401 0.296151 0)
(0.482226 0.3066 0)
(0.441308 0.319516 0)
(0.401488 0.334216 0)
(0.360772 0.3508 0)
(0.316323 0.368301 0)
(0.266564 0.384557 0)
(0.211058 0.39405 0)
(0.151469 0.398594 0)
(0.0900818 0.39715 0)
(0.0303422 0.405278 0)
(3 -8.40887e-16 0)
(3 1.77491e-16 0)
(3 3.56114e-15 0)
(3 1.22662e-15 0)
(3 8.55097e-16 0)
(3 -2.77324e-16 0)
(3 8.47658e-16 0)
(3 1.1578e-15 0)
(3 1.65272e-15 0)
(3 1.23618e-16 0)
(3 -3.80116e-16 0)
(3 1.1574e-15 0)
(3 7.74339e-16 0)
(3 1.87045e-15 0)
(3 7.26056e-16 0)
(3 2.82785e-15 0)
(3 2.5547e-15 0)
(3 -2.10633e-15 0)
(3 3.8354e-16 0)
(3 -1.66474e-15 0)
(3.00132 0.000465301 0)
(1.15476 0.243972 0)
(0.779552 0.240399 0)
(0.779685 0.265428 0)
(0.757568 0.283452 0)
(0.727262 0.293293 0)
(0.687235 0.3 0)
(0.639911 0.304206 0)
(0.589446 0.307397 0)
(0.53974 0.312836 0)
(0.492624 0.32168 0)
(0.44821 0.332842 0)
(0.406699 0.347061 0)
(0.366898 0.365367 0)
(0.324732 0.385845 0)
(0.276532 0.404303 0)
(0.220378 0.414568 0)
(0.158893 0.419397 0)
(0.0945667 0.41876 0)
(0.0321011 0.427832 0)
(3 9.16731e-16 0)
(3 -2.95885e-17 0)
(3 1.2039e-15 0)
(3 -1.80788e-16 0)
(3 -4.81448e-16 0)
(3 5.52653e-16 0)
(3 -2.86441e-16 0)
(3 -1.68036e-16 0)
(3 -6.93633e-18 0)
(3 1.0897e-15 0)
(3 4.35578e-16 0)
(3 -7.08145e-16 0)
(3 -5.16583e-16 0)
(3 -2.99996e-16 0)
(3 2.40517e-15 0)
(3 1.61485e-15 0)
(3 3.6411e-15 0)
(3 4.61025e-16 0)
(3 2.36817e-15 0)
(3 -7.86857e-16 0)
(3.00013 1.97482e-05 0)
(1.18526 0.257271 0)
(0.769472 0.23842 0)
(0.766285 0.266862 0)
(0.750615 0.288644 0)
(0.72614 0.301623 0)
(0.694823 0.311126 0)
(0.654791 0.319215 0)
(0.607211 0.325615 0)
(0.556009 0.33137 0)
(0.505267 0.33792 0)
(0.457145 0.34651 0)
(0.413399 0.359842 0)
(0.373786 0.379529 0)
(0.333266 0.402696 0)
(0.286102 0.423315 0)
(0.229664 0.434993 0)
(0.166529 0.441263 0)
(0.0997074 0.442122 0)
(0.0340499 0.452158 0)
(3 6.87021e-17 0)
(3 5.47976e-16 0)
(3 6.11995e-16 0)
(3 4.31388e-16 0)
(3 5.04772e-17 0)
(3 2.87015e-15 0)
(3 -1.18632e-15 0)
(3 -2.65429e-16 0)
(3 1.55678e-16 0)
(3 2.64671e-16 0)
(3 1.54212e-15 0)
(3 1.34026e-15 0)
(3 -1.09157e-16 0)
(3 1.08817e-15 0)
(3 -4.62553e-16 0)
(3 1.66213e-15 0)
(3 3.34604e-15 0)
(3 3.00415e-15 0)
(3 3.94811e-15 0)
(3 2.73447e-15 0)
(3 -3.47412e-08 0)
(1.22916 0.273975 0)
(0.767896 0.243698 0)
(0.75041 0.270781 0)
(0.738679 0.292308 0)
(0.720306 0.308334 0)
(0.696189 0.321554 0)
(0.664476 0.332846 0)
(0.622763 0.342334 0)
(0.572886 0.349147 0)
(0.519843 0.35451 0)
(0.468406 0.361386 0)
(0.422118 0.373811 0)
(0.381628 0.393913 0)
(0.341914 0.418579 0)
(0.2956 0.44119 0)
(0.239648 0.455358 0)
(0.175291 0.46441 0)
(0.105838 0.467335 0)
(0.0363075 0.478163 0)
(3 -7.52105e-16 0)
(3 1.8298e-15 0)
(3 -4.50266e-16 0)
(3 -5.34209e-16 0)
(3 1.53553e-15 0)
(3 2.91142e-15 0)
(3 -1.01792e-16 0)
(3 1.53946e-15 0)
(3 -8.38266e-16 0)
(3 2.56276e-16 0)
(3 -5.0756e-17 0)
(3 1.89432e-15 0)
(3 5.32308e-16 0)
(3 1.48222e-15 0)
(3 -9.26238e-16 0)
(3 4.52046e-16 0)
(3 2.10072e-15 0)
(3 4.03264e-15 0)
(3 1.42885e-15 0)
(3 2.47375e-15 0)
(3 -1.27827e-07 0)
(1.2874 0.289705 0)
(0.773871 0.25295 0)
(0.734596 0.274123 0)
(0.723716 0.294965 0)
(0.710494 0.313631 0)
(0.692585 0.330739 0)
(0.66822 0.344829 0)
(0.634096 0.356129 0)
(0.58858 0.364341 0)
(0.53597 0.370465 0)
(0.482493 0.377665 0)
(0.433547 0.389537 0)
(0.390989 0.408762 0)
(0.350668 0.433526 0)
(0.305392 0.458246 0)
(0.249897 0.476402 0)
(0.18477 0.489311 0)
(0.112685 0.494453 0)
(0.0388735 0.505926 0)
(3 4.00785e-16 0)
(3 -6.91502e-16 0)
(3 -2.58661e-16 0)
(3 1.78313e-16 0)
(3 1.71292e-15 0)
(3 -1.76233e-15 0)
(3 -1.25493e-16 0)
(3 -3.94658e-16 0)
(3 -5.51318e-16 0)
(3 4.2788e-16 0)
(3 -2.69039e-15 0)
(3 1.09512e-15 0)
(3 2.99582e-15 0)
(3 1.58494e-15 0)
(3 9.11461e-16 0)
(3 4.08805e-16 0)
(3 -1.42632e-15 0)
(3 3.20385e-15 0)
(3 -2.95611e-16 0)
(3 2.70883e-16 0)
(3 -7.35416e-08 0)
(1.3593 0.303599 0)
(0.782311 0.267592 0)
(0.724634 0.279519 0)
(0.709049 0.299617 0)
(0.69808 0.318927 0)
(0.685228 0.337249 0)
(0.666163 0.353861 0)
(0.639571 0.367058 0)
(0.601014 0.377619 0)
(0.552183 0.3864 0)
(0.498924 0.395306 0)
(0.447395 0.406876 0)
(0.401431 0.424246 0)
(0.359679 0.448236 0)
(0.315773 0.475209 0)
(0.261294 0.498252 0)
(0.195569 0.515713 0)
(0.120231 0.523387 0)
(0.0414663 0.53558 0)
(3 4.55055e-16 0)
(3 -1.23224e-15 0)
(3 1.16092e-15 0)
(3 2.73105e-16 0)
(3 8.23105e-16 0)
(3 1.72359e-15 0)
(3 -1.76409e-15 0)
(3 -1.5797e-15 0)
(3 3.61142e-15 0)
(3 3.07055e-15 0)
(3 3.87281e-15 0)
(3 -1.17574e-15 0)
(3 4.94162e-16 0)
(3 -4.02318e-16 0)
(3 -2.02304e-15 0)
(3 -2.02244e-15 0)
(3 -9.55089e-17 0)
(3 3.21855e-15 0)
(3 7.20015e-16 0)
(3 2.65544e-16 0)
(3 -3.23073e-08 0)
(1.44237 0.316935 0)
(0.792456 0.285525 0)
(0.724019 0.289491 0)
(0.697574 0.302979 0)
(0.684439 0.32155 0)
(0.674709 0.340675 0)
(0.660447 0.358347 0)
(0.639743 0.374711 0)
(0.609536 0.389675 0)
(0.567407 0.402749 0)
(0.516618 0.413958 0)
(0.463385 0.424894 0)
(0.413584 0.439771 0)
(0.369976 0.463064 0)
(0.326593 0.493083 0)
(0.273489 0.521318 0)
(0.207338 0.543545 0)
(0.128426 0.554188 0)
(0.0445946 0.567447 0)
(3 -2.04834e-16 0)
(3 -1.27342e-15 0)
(3 3.45403e-16 0)
(3 -1.25266e-17 0)
(3 1.86682e-16 0)
(3 1.35958e-15 0)
(3 -1.78051e-15 0)
(3 -5.89494e-16 0)
(3 -4.20989e-15 0)
(3 -2.0966e-15 0)
(3 1.72992e-16 0)
(3 2.19571e-15 0)
(3 -7.16755e-16 0)
(3 -3.03501e-16 0)
(3 1.54084e-15 0)
(3 3.6749e-15 0)
(3 2.4769e-15 0)
(3 3.04458e-15 0)
(3 3.9375e-15 0)
(3 1.65991e-15 0)
(3 -1.19497e-08 0)
(1.53479 0.329058 0)
(0.803631 0.304313 0)
(0.727849 0.301258 0)
(0.692345 0.308965 0)
(0.672447 0.322503 0)
(0.662468 0.340108 0)
(0.651493 0.35948 0)
(0.636285 0.379949 0)
(0.614247 0.400286 0)
(0.580304 0.418938 0)
(0.53409 0.432509 0)
(0.480625 0.442806 0)
(0.427776 0.455613 0)
(0.381732 0.478774 0)
(0.33871 0.511898 0)
(0.28703 0.545074 0)
(0.220154 0.572467 0)
(0.137187 0.587086 0)
(0.0475393 0.602104 0)
(3 -6.60451e-16 0)
(3 -1.91221e-15 0)
(3 1.75372e-15 0)
(3 1.38084e-15 0)
(3 -1.22102e-15 0)
(3 2.31172e-15 0)
(3 -2.64037e-16 0)
(3 1.9157e-15 0)
(3 2.66125e-15 0)
(3 -3.44377e-15 0)
(3 -2.07909e-15 0)
(3 4.20848e-15 0)
(3 2.43582e-15 0)
(3 2.24375e-15 0)
(3 2.95402e-15 0)
(3 3.16767e-15 0)
(3 1.34404e-15 0)
(3 3.03168e-15 0)
(3 2.4587e-15 0)
(3 1.54791e-17 0)
(3 -5.42878e-09 0)
(1.63623 0.340373 0)
(0.815009 0.323129 0)
(0.732839 0.314568 0)
(0.692604 0.317297 0)
(0.664582 0.325762 0)
(0.650966 0.341202 0)
(0.64124 0.361819 0)
(0.630408 0.385899 0)
(0.615501 0.411057 0)
(0.58921 0.43376 0)
(0.548502 0.450336 0)
(0.497456 0.460873 0)
(0.443709 0.472955 0)
(0.395207 0.496107 0)
(0.352121 0.531619 0)
(0.301373 0.569515 0)
(0.234018 0.602513 0)
(0.147695 0.622173 0)
(0.0517976 0.640052 0)
(3 -1.29348e-15 0)
(3 2.35498e-16 0)
(3 3.54243e-15 0)
(3 -1.78406e-16 0)
(3 -1.14906e-15 0)
(3 -2.43306e-15 0)
(3 -1.13952e-15 0)
(3 3.30317e-15 0)
(3 5.0587e-15 0)
(3 5.1081e-16 0)
(3 4.15638e-15 0)
(3 1.01773e-15 0)
(3 2.73006e-15 0)
(3 1.37853e-15 0)
(3 2.05269e-15 0)
(3 1.01521e-15 0)
(3 3.17906e-15 0)
(3 1.48678e-15 0)
(3 1.41568e-16 0)
(3 1.71688e-15 0)
(3 -3.38655e-09 0)
(1.74831 0.35087 0)
(0.827548 0.341858 0)
(0.736993 0.328666 0)
(0.695328 0.326976 0)
(0.662841 0.333517 0)
(0.643121 0.347911 0)
(0.632262 0.369088 0)
(0.623778 0.394122 0)
(0.61283 0.420652 0)
(0.595134 0.445104 0)
(0.561443 0.464427 0)
(0.514371 0.477824 0)
(0.461698 0.491769 0)
(0.411148 0.51513 0)
(0.367315 0.551676 0)
(0.317437 0.593662 0)
(0.249609 0.633354 0)
(0.158956 0.660474 0)
(0.0555726 0.682453 0)
(3 3.21163e-16 0)
(3 8.01008e-16 0)
(3 -6.30545e-16 0)
(3 5.39845e-16 0)
(3 -1.88728e-15 0)
(3 -2.32441e-15 0)
(3 -9.21449e-16 0)
(3 1.68454e-15 0)
(3 4.01822e-15 0)
(3 1.01125e-15 0)
(3 7.12031e-16 0)
(3 -1.17873e-15 0)
(3 2.38463e-15 0)
(3 2.25934e-15 0)
(3 3.30888e-15 0)
(3 2.21371e-15 0)
(3 1.98902e-15 0)
(3 1.70172e-15 0)
(3 -1.14448e-15 0)
(3 -9.87144e-16 0)
(3 -2.11763e-09 0)
(1.87278 0.359381 0)
(0.841895 0.361346 0)
(0.741775 0.342682 0)
(0.700504 0.33742 0)
(0.665753 0.342909 0)
(0.639067 0.355898 0)
(0.624362 0.376255 0)
(0.61614 0.399735 0)
(0.607842 0.425499 0)
(0.595995 0.452596 0)
(0.570469 0.476279 0)
(0.529501 0.494834 0)
(0.479952 0.512601 0)
(0.428766 0.535951 0)
(0.383002 0.572631 0)
(0.334036 0.618265 0)
(0.267503 0.665312 0)
(0.173892 0.70214 0)
(0.0616427 0.730189 0)
(3 3.56663e-16 0)
(3 5.93817e-16 0)
(3 2.40659e-16 0)
(3 2.40108e-15 0)
(3 -1.51223e-15 0)
(3 2.73825e-15 0)
(3 5.43107e-16 0)
(3 2.09351e-16 0)
(3 4.02948e-15 0)
(3 1.87318e-15 0)
(3 3.56348e-15 0)
(3 1.18698e-15 0)
(3 -7.01787e-16 0)
(3 1.42627e-15 0)
(3 1.44253e-16 0)
(3 2.93805e-15 0)
(3 1.37611e-15 0)
(3 -3.542e-15 0)
(3 -2.09556e-15 0)
(3 -2.03165e-15 0)
(3 -9.94146e-10 0)
(2.01313 0.366504 0)
(0.860189 0.382278 0)
(0.747036 0.356076 0)
(0.705674 0.349123 0)
(0.669124 0.353652 0)
(0.639624 0.363476 0)
(0.62003 0.379048 0)
(0.610069 0.399969 0)
(0.602439 0.425097 0)
(0.594808 0.45484 0)
(0.577944 0.485406 0)
(0.544125 0.511069 0)
(0.498979 0.533413 0)
(0.448184 0.556921 0)
(0.40065 0.592882 0)
(0.353291 0.641559 0)
(0.28854 0.698262 0)
(0.1906 0.74941 0)
(0.0670713 0.785656 0)
(3 2.45627e-16 0)
(3 1.51193e-15 0)
(3 -1.1548e-15 0)
(3 -2.27899e-15 0)
(3 1.60841e-15 0)
(3 -1.70801e-16 0)
(3 1.2453e-16 0)
(3 2.32422e-15 0)
(3 3.36904e-15 0)
(3 5.05439e-15 0)
(3 2.138e-15 0)
(3 9.73469e-16 0)
(3 -3.48609e-16 0)
(3 -3.05873e-16 0)