/*--------------------------------*- C++ -*----------------------------------*\
  =========                 |
  \\      /  F ield         | OpenFOAM: The Open Source CFD Toolbox
   \\    /   O peration     | Website:  https://openfoam.org
    \\  /    A nd           | Version:  6.0
     \\/     M anipulation  |
\*---------------------------------------------------------------------------*/
FoamFile
{
    version     2.0;
    format      ascii;
    class       volScalarField;
    location    "3.9993898";
    object      p;
}
// * * * * * * * * * * * * * * * * * * * * * * * * * * * * * * * * * * * * * //

dimensions      [1 -1 -2 0 0 0 0];

internalField   nonuniform List<scalar> 
300
(
1
1
1
1
1.34974
7.63053
10.7658
11.1261
11.3763
11.4775
1
1
1
1
1.34617
7.59455
10.7934
11.1366
11.4822
11.7281
1
1
1
1
1.3388
7.5349
10.7806
11.0776
11.5105
11.9092
1
1
1
1
1.30071
7.39452
10.7397
10.9699
11.3741
11.7501
1
1
1
1
1.2191
7.15844
10.6844
10.8772
11.1035
11.2728
1
1
1
1
1.10664
6.88562
10.6533
10.801
10.8825
10.896
1
1
1
1
1.02814
6.56395
10.5539
10.7595
10.8258
10.8198
1
1
1
1
1.00332
6.18806
10.3271
10.7321
10.8494
10.7905
1
1
1
1
1.00014
5.78966
10.0972
10.4902
10.8399
10.5775
1
1
1
1
0.999992
5.35572
9.86024
10.0934
10.3931
10.4195
1
1
1
1
0.999996
3.82848
9.308
9.74117
9.31059
7.96005
1
1
1
1
1
1.67452
7.57221
9.18687
8.47083
7.13609
1
1
1
1
1
1.03162
4.50414
8.25809
7.73818
6.65378
1
1
1
1
1
0.999975
1.55861
5.90085
7.58356
6.51667
1
1
1
1
1
0.999995
1.01783
2.3922
6.201
6.64767
1
1
1
1
1
0.999999
1.00008
1.10048
3.13188
6.06763
1
1
1
1
1
1
1
1.00107
1.23901
3.89919
1
1
1
1
1
1
1
1
1.00416
1.558
1
1
1
1
1
1
1
1
1.00001
1.01849
1
1
1
1
1
1
1
1
1
1.00006
1.98251
0.725505
1.04601
4.07618
5.68297
5.0009
4.28087
3.67922
3.08073
2.46106
3.36185
1.10894
1.35438
3.71565
5.50494
4.87987
4.23848
3.64047
3.05861
2.47463
3.79961
1.38824
1.69892
3.27924
5.38735
4.87953
4.19171
3.58655
3.02707
2.51237
4.03398
1.91828
2.41609
3.04962
4.62176
4.7737
4.06524
3.48621
2.99648
2.57831
4.17161
2.52642
3.46742
3.22136
3.7243
4.38928
3.90734
3.40021
2.99735
2.69217
4.39053
3.55028
4.3203
3.57621
3.17407
3.76239
3.69796
3.30133
3.0064
2.88314
4.26928
5.27665
5.07802
3.90889
3.0183
2.98787
3.35966
3.15934
3.07558
3.14556
3.40544
7.11787
5.76806
4.24022
3.02867
2.50438
2.90492
3.06749
3.26988
3.45836
2.89336
8.61847
6.17132
4.38655
3.02834
2.2603
2.46088
2.90009
3.51311
3.66146
3.19737
10.6335
7.02135
4.48945
3.0511
2.09784
2.14055
2.79617
3.7252
3.9082
)
;

boundaryField
{
    inlet
    {
        type            fixedValue;
        value           uniform 1;
    }
    outlet
    {
        type            zeroGradient;
    }
    top
    {
        type            symmetryPlane;
    }
    bottom
    {
        type            symmetryPlane;
    }
    step
    {
        type            zeroGradient;
    }
    defaultFaces
    {
        type            empty;
    }
}


// ************************************************************************* //
