/*--------------------------------*- C++ -*----------------------------------*\
  =========                 |
  \\      /  F ield         | OpenFOAM: The Open Source CFD Toolbox
   \\    /   O peration     | Website:  https://openfoam.org
    \\  /    A nd           | Version:  6.0
     \\/     M anipulation  |
\*---------------------------------------------------------------------------*/
FoamFile
{
    version     2.0;
    format      ascii;
    class       volScalarField;
    location    "3.9993898";
    object      rho;
}
// * * * * * * * * * * * * * * * * * * * * * * * * * * * * * * * * * * * * * //

dimensions      [1 -3 0 0 0 0 0];

internalField   nonuniform List<scalar> 
300
(
1.39997
1.39997
1.39997
1.39997
1.59794
4.40258
5.4838
5.58234
5.66219
5.69868
1.39997
1.39997
1.39997
1.39997
1.59213
4.37402
5.48651
5.58497
5.70022
5.78795
1.39997
1.39997
1.39997
1.39997
1.58135
4.3261
5.46761
5.56098
5.7112
5.8532
1.39997
1.39997
1.39997
1.39997
1.55855
4.2562
5.4408
5.51952
5.66294
5.79757
1.39997
1.39997
1.39997
1.39997
1.52405
4.18235
5.42329
5.48526
5.56532
5.62765
1.39997
1.39997
1.39997
1.39997
1.47502
4.12699
5.43601
5.46003
5.48502
5.49175
1.39997
1.39997
1.39997
1.39997
1.42586
4.03208
5.43669
5.45242
5.46457
5.46441
1.39997
1.39997
1.39997
1.39997
1.40337
3.87724
5.38155
5.45495
5.473
5.45308
1.39997
1.39997
1.39997
1.39997
1.40012
3.69257
5.29765
5.37766
5.46828
5.36793
1.39997
1.39997
1.39997
1.39997
1.39996
3.48887
5.19643
5.23458
5.30209
5.26332
1.39997
1.39997
1.39997
1.39997
1.39997
2.85958
5.04765
5.1202
4.92486
4.26737
1.39997
1.39997
1.39997
1.39997
1.39997
1.83748
4.56203
4.98718
4.6708
4.06011
1.39997
1.39997
1.39997
1.39997
1.39997
1.42507
3.24901
4.71672
4.46456
3.95915
1.39997
1.39997
1.39997
1.39997
1.39997
1.39992
1.78065
3.9254
4.5005
4.00849
1.39997
1.39997
1.39997
1.39997
1.39997
1.39996
1.4146
2.2842
4.15784
4.15836
1.39997
1.39997
1.39997
1.39997
1.39997
1.39997
1.40004
1.48013
2.7354
4.04761
1.39997
1.39997
1.39997
1.39997
1.39997
1.39997
1.39997
1.40095
1.58651
3.07948
1.39997
1.39997
1.39997
1.39997
1.39997
1.39997
1.39997
1.39997
1.40366
1.79486
1.39997
1.39997
1.39997
1.39997
1.39997
1.39997
1.39997
1.39997
1.39998
1.41558
1.39997
1.39997
1.39997
1.39997
1.39997
1.39997
1.39997
1.39997
1.39997
1.40002
1.50406
0.670321
0.868818
2.24021
2.96124
2.72786
2.46327
2.22412
1.96678
1.6805
2.28608
0.954519
1.09957
2.23626
2.99331
2.75394
2.49584
2.24119
1.9786
1.69983
2.61316
1.19401
1.37532
2.23881
3.14397
2.91013
2.59392
2.30562
2.02689
1.75961
2.81023
1.58499
1.84965
2.20838
2.97211
3.01539
2.67543
2.37658
2.10787
1.86565
2.95199
1.99356
2.4542
2.34973
2.64057
2.97179
2.71771
2.44314
2.21239
2.01701
3.16831
2.58262
2.93917
2.59218
2.44359
2.76958
2.71124
2.4825
2.31249
2.2151
3.18342
3.43527
3.37341
2.85147
2.42002
2.42976
2.62072
2.49015
2.4275
2.45171
2.81817
4.36021
3.82189
3.12922
2.49856
2.19204
2.4274
2.50727
2.60868
2.69999
2.61252
5.30004
4.19905
3.30704
2.54984
2.0636
2.18945
2.45398
2.80336
2.87624
3.05837
6.42711
4.72134
3.4057
2.58122
1.96298
1.99005
2.40106
2.94716
3.04217
)
;

boundaryField
{
    inlet
    {
        type            calculated;
        value           uniform 1.39997;
    }
    outlet
    {
        type            calculated;
        value           nonuniform List<scalar> 10(1.6807 1.70003 1.75985 1.86589 2.01743 2.21592 2.45277 2.70083 2.87683 3.04295);
    }
    top
    {
        type            symmetryPlane;
    }
    bottom
    {
        type            symmetryPlane;
    }
    step
    {
        type            calculated;
        value           nonuniform List<scalar> 
20
(
5.69868
5.78795
5.8532
5.79757
5.62765
5.49175
5.46441
5.45308
5.36793
5.26332
1.50406
0.670321
0.868818
2.24021
2.96124
2.72786
2.46327
2.22412
1.96678
1.6805
)
;
    }
    defaultFaces
    {
        type            empty;
    }
}


// ************************************************************************* //
