/*--------------------------------*- C++ -*----------------------------------*\
  =========                 |
  \\      /  F ield         | OpenFOAM: The Open Source CFD Toolbox
   \\    /   O peration     | Website:  https://openfoam.org
    \\  /    A nd           | Version:  6.0
     \\/     M anipulation  |
\*---------------------------------------------------------------------------*/
FoamFile
{
    version     2.0;
    format      ascii;
    class       volVectorField;
    location    "3.9993898";
    object      U;
}
// * * * * * * * * * * * * * * * * * * * * * * * * * * * * * * * * * * * * * //

dimensions      [0 1 -1 0 0 0 0];

internalField   nonuniform List<vector> 
300
(
(3 1.83132e-16 0)
(3 -2.53913e-17 0)
(3 4.68275e-16 0)
(3 5.29593e-16 0)
(2.88883 0.00276658 0)
(0.955554 0.0159317 0)
(0.615999 0.0212973 0)
(0.478819 0.0290683 0)
(0.310066 0.0382132 0)
(0.128055 0.0505213 0)
(3 2.32857e-16 0)
(3 2.128e-16 0)
(3 5.66971e-16 0)
(3 6.5117e-16 0)
(2.8773 0.0107226 0)
(0.938723 0.0545621 0)
(0.594998 0.0559507 0)
(0.461945 0.0816815 0)
(0.299657 0.102604 0)
(0.128512 0.12979 0)
(3 6.57495e-16 0)
(3 9.80209e-16 0)
(3 8.09813e-16 0)
(3 1.69042e-16 0)
(2.86052 0.0244326 0)
(0.921139 0.100255 0)
(0.569507 0.0959478 0)
(0.434622 0.116858 0)
(0.276649 0.143956 0)
(0.119636 0.188271 0)
(3 2.26161e-16 0)
(3 4.40472e-16 0)
(3 2.02173e-16 0)
(3 -2.4844e-16 0)
(2.87458 0.0531829 0)
(0.932935 0.160844 0)
(0.5639 0.14455 0)
(0.42373 0.156722 0)
(0.26266 0.177584 0)
(0.110417 0.23657 0)
(3 -2.19797e-16 0)
(3 -2.50806e-16 0)
(3 -7.12336e-17 0)
(3 2.75251e-16 0)
(2.9396 0.0752114 0)
(0.992023 0.221172 0)
(0.593914 0.19222 0)
(0.441158 0.207903 0)
(0.269735 0.230021 0)
(0.106147 0.298469 0)
(3 1.04261e-16 0)
(3 -2.75231e-16 0)
(3 2.32918e-16 0)
(3 9.32798e-16 0)
(3.02659 0.0451766 0)
(1.07946 0.26196 0)
(0.653456 0.23426 0)
(0.492678 0.267665 0)
(0.301323 0.299257 0)
(0.109278 0.363719 0)
(3 -3.68105e-16 0)
(3 5.2384e-16 0)
(3 8.99252e-16 0)
(3 2.22397e-16 0)
(3.03741 0.00999028 0)
(1.15357 0.282382 0)
(0.708017 0.267809 0)
(0.554053 0.336542 0)
(0.349354 0.366026 0)
(0.133017 0.427197 0)
(3 -1.79105e-16 0)
(3 3.37497e-16 0)
(3 4.06753e-16 0)
(3 -1.29449e-16 0)
(3.00941 0.00116692 0)
(1.20116 0.305102 0)
(0.724143 0.309352 0)
(0.594408 0.406897 0)
(0.385101 0.45526 0)
(0.137507 0.521573 0)
(3 5.30782e-17 0)
(3 -1.43757e-16 0)
(3 -2.3292e-16 0)
(3 -5.80132e-16 0)
(3.00059 6.18754e-05 0)
(1.26982 0.336026 0)
(0.733857 0.339107 0)
(0.632618 0.464917 0)
(0.439442 0.57219 0)
(0.188839 0.675331 0)
(3 6.7496e-17 0)
(3 -1.0119e-16 0)
(3 -5.13602e-16 0)
(3 -1.26288e-15 0)
(3.00001 -2.86564e-06 0)
(1.38641 0.381923 0)
(0.7634 0.370947 0)
(0.676325 0.476765 0)
(0.524682 0.640634 0)
(0.291173 0.908991 0)
(3 -1.25253e-16 0)
(3 -1.5788e-16 0)
(3 -1.23827e-16 0)
(3 1.3797e-16 0)
(3 -2.10779e-06 0)
(1.8322 0.454111 0)
(0.840135 0.501712 0)
(0.708481 0.56218 0)
(0.701587 0.718036 0)
(0.773839 0.966436 0)
(3 6.44459e-17 0)
(3 6.26231e-17 0)
(3 6.16796e-17 0)
(3 2.33687e-16 0)
(3 -1.4946e-07 0)
(2.84925 0.214287 0)
(1.16284 0.629776 0)
(0.885111 0.644506 0)
(0.946193 0.754 0)
(1.12821 0.83612 0)
(3 -1.13496e-17 0)
(3 -3.03462e-17 0)
(3 -1.05433e-16 0)
(3 -1.50241e-16 0)
(3 -4.67042e-09 0)
(3.03585 0.00655376 0)
(1.79741 0.626217 0)
(1.08108 0.776599 0)
(1.12762 0.791369 0)
(1.29472 0.824749 0)
(3 -2.91085e-16 0)
(3 -3.29708e-16 0)
(3 -2.46486e-16 0)
(3 -3.02162e-16 0)
(3 -1.50936e-10 0)
(3.0005 0.000107021 0)
(2.90548 0.199856 0)
(1.57848 0.814717 0)
(1.24887 0.845147 0)
(1.40479 0.836336 0)
(3 9.47149e-17 0)
(3 2.40907e-16 0)
(3 1.26414e-16 0)
(3 -8.54515e-17 0)
(3 -7.53539e-13 0)
(3.00001 -2.41768e-06 0)
(3.00895 0.00934394 0)
(2.61011 0.467487 0)
(1.52274 0.881203 0)
(1.46794 0.89221 0)
(3 3.0031e-16 0)
(3 3.30044e-16 0)
(3 1.99188e-16 0)
(3 6.06467e-16 0)
(3 8.12921e-16 0)
(3 -4.45206e-07 0)
(3.00004 8.51233e-05 0)
(3.00907 0.0408878 0)
(2.32921 0.612224 0)
(1.62724 0.881574 0)
(3 -4.56757e-17 0)
(3 1.83022e-17 0)
(3 3.69815e-16 0)
(3 3.79576e-16 0)
(3 4.69276e-16 0)
(3 -2.76851e-08 0)
(3 2.68143e-09 0)
(3.0002 0.00104567 0)
(2.98018 0.0877846 0)
(2.12029 0.703846 0)
(3 -3.91455e-17 0)
(3 -2.69336e-17 0)
(3 4.91188e-17 0)
(3 -8.14547e-17 0)
(3 -5.11183e-16 0)
(3 -4.06148e-10 0)
(3 -4.25048e-10 0)
(3 1.34152e-06 0)
(3.00053 0.00332289 0)
(2.90285 0.204526 0)
(3 1.9533e-17 0)
(3 -3.24006e-18 0)
(3 -4.03893e-16 0)
(3 -5.46609e-16 0)
(3 -1.60206e-16 0)
(3 -7.18918e-13 0)
(3 -1.04704e-10 0)
(3 2.04308e-10 0)
(3 1.4663e-05 0)
(3.0073 0.00547143 0)
(3 1.75949e-17 0)
(3 4.49455e-17 0)
(3 -4.06996e-17 0)
(3 -1.58095e-16 0)
(3 1.90177e-16 0)
(3 1.51882e-16 0)
(3 -5.98794e-12 0)
(3 -5.62364e-12 0)
(3 5.4588e-09 0)
(3.00004 4.33999e-05 0)
(1.78632 0.760229 0)
(2.67077 0.288548 0)
(2.53953 -0.044266 0)
(1.39914 -0.133488 0)
(1.25683 -0.0762535 0)
(1.54702 -0.0259128 0)
(1.71578 0.00377149 0)
(1.86488 0.0114534 0)
(2.01136 0.0211292 0)
(2.17715 0.0217133 0)
(1.81862 0.408486 0)
(2.58793 0.0849791 0)
(2.43255 -0.354794 0)
(1.73416 -0.179548 0)
(1.38769 -0.0538455 0)
(1.58846 0.0120975 0)
(1.74114 0.027051 0)
(1.88667 0.0488295 0)
(2.02283 0.0799016 0)
(2.18916 0.0591469 0)
(1.79788 0.55524 0)
(2.35278 0.444204 0)
(2.19326 -0.303306 0)
(2.04559 -0.431316 0)
(1.57933 -0.0949623 0)
(1.68393 -0.0354439 0)
(1.81073 0.020955 0)
(1.93392 0.0619267 0)
(2.0511 0.116962 0)
(2.20408 0.0763861 0)
(1.8322 0.653312 0)
(2.26525 0.474765 0)
(2.09417 -0.40802 0)
(2.11036 -0.611799 0)
(1.77379 -0.196081 0)
(1.79576 0.0221682 0)
(1.88571 0.08007 0)
(1.98157 0.111615 0)
(2.06749 0.163759 0)
(2.21333 0.0962914 0)
(1.84803 0.771224 0)
(2.15112 0.429391 0)
(2.07182 -0.289707 0)
(2.02451 -0.604451 0)
(1.98997 -0.344581 0)
(1.89225 -0.0158624 0)
(1.94781 0.137658 0)
(2.03558 0.155409 0)
(2.08635 0.19363 0)
(2.22092 0.0899679 0)
(1.81543 0.898206 0)
(2.01584 0.374236 0)
(1.95572 -0.352277 0)
(1.97744 -0.490525 0)
(2.09328 -0.421951 0)
(1.99659 -0.0675306 0)
(2.03869 0.162746 0)
(2.10375 0.207568 0)
(2.11975 0.210239 0)
(2.21381 0.0947834 0)
(1.93183 0.910178 0)
(1.80246 0.273348 0)
(1.86253 -0.265342 0)
(1.98164 -0.406481 0)
(2.16246 -0.403352 0)
(2.15902 -0.109268 0)
(2.1684 0.166549 0)
(2.17908 0.257719 0)
(2.1817 0.219501 0)
(2.20187 0.047277 0)
(2.10075 0.977585 0)
(1.57167 0.182924 0)
(1.78886 -0.20923 0)
(2.02351 -0.273778 0)
(2.22811 -0.346864 0)
(2.38738 -0.140377 0)
(2.35367 0.101965 0)
(2.29762 0.272768 0)
(2.24759 0.207725 0)
(2.22882 0.0449524 0)
(2.52956 0.840716 0)
(1.5269 0.00275202 0)
(1.81024 -0.223381 0)
(2.10782 -0.223874 0)
(2.335 -0.25521 0)
(2.54639 -0.0998393 0)
(2.50164 0.0543763 0)
(2.41786 0.224211 0)
(2.31294 0.133818 0)
(2.26932 -0.0132327 0)
(3.30062 0.686574 0)
(1.63869 0.142457 0)
(1.90946 -0.0361938 0)
(2.1916 -0.0749066 0)
(2.4018 -0.0750665 0)
(2.58449 -0.0887703 0)
(2.56414 -0.0265248 0)
(2.4263 0.0647406 0)
(2.3634 0.0931373 0)
(2.29249 0.0372673 0)
)
;

boundaryField
{
    inlet
    {
        type            fixedValue;
        value           uniform (3 0 0);
    }
    outlet
    {
        type            inletOutlet;
        inletValue      uniform (3 0 0);
        value           nonuniform List<vector> 10((2.17715 0.0217133 0) (2.18916 0.0591469 0) (2.20408 0.0763861 0) (2.21333 0.0962914 0) (2.22092 0.0899679 0) (2.21381 0.0947834 0) (2.20187 0.047277 0) (2.22882 0.0449524 0) (2.26932 -0.0132327 0) (2.29249 0.0372673 0));
    }
    top
    {
        type            symmetryPlane;
    }
    bottom
    {
        type            symmetryPlane;
    }
    step
    {
        type            slip;
    }
    defaultFaces
    {
        type            empty;
    }
}


// ************************************************************************* //
