/*--------------------------------*- C++ -*----------------------------------*\
  =========                 |
  \\      /  F ield         | OpenFOAM: The Open Source CFD Toolbox
   \\    /   O peration     | Website:  https://openfoam.org
    \\  /    A nd           | Version:  6.0
     \\/     M anipulation  |
\*---------------------------------------------------------------------------*/
FoamFile
{
    version     2.0;
    format      ascii;
    class       volScalarField;
    location    "2.001683";
    object      p;
}
// * * * * * * * * * * * * * * * * * * * * * * * * * * * * * * * * * * * * * //

dimensions      [1 -1 -2 0 0 0 0];

internalField   nonuniform List<scalar> 
300
(
1
1
1
1
1
5.59042
10.6994
11.0855
11.4979
11.8205
1
1
1
1
1
5.54746
10.661
11.1058
11.5116
11.8299
1
1
1
1
1
5.45261
10.6059
11.1102
11.4957
11.7732
1
1
1
1
1
5.3219
10.5468
11.0244
11.3923
11.6735
1
1
1
1
1
5.14319
10.4619
10.8599
11.1997
11.5721
1
1
1
1
1
4.90183
10.3367
10.7138
11.0205
11.4039
1
1
1
1
1
4.58727
10.1468
10.5677
10.8243
11.1209
1
1
1
1
1
4.23298
9.89984
10.4546
10.6022
10.6792
1
1
1
1
1
3.8271
9.63413
10.4724
10.3618
10.1172
1
1
1
1
1
3.45263
9.31543
10.3974
10.2086
9.86997
1
1
1
1
1
2.33982
8.49229
9.71268
9.35638
7.8333
1
1
1
1
1
1.12379
5.65489
8.96652
8.33225
7.04745
1
1
1
1
1
1.00072
2.26986
7.30532
7.93113
6.69948
1
1
1
1
1
0.999999
1.08499
4.04051
7.48741
6.65578
1
1
1
1
1
1
1.00057
1.433
4.90584
6.54296
1
1
1
1
1
1
1
1.01056
1.82721
5.079
1
1
1
1
1
1
1
1.00005
1.036
2.42404
1
1
1
1
1
1
1
1
1.00024
1.11855
1
1
1
1
1
1
1
1
1
1.00087
1
1
1
1
1
1
1
1
1
0.999999
1.76107
1.13607
1.15539
1.25795
2.39761
4.01465
4.35969
3.78388
3.23886
2.55305
3.32066
1.54246
1.2327
1.38842
2.21329
3.33338
3.93466
3.61266
3.16669
2.52871
3.84744
1.74533
1.28229
1.67918
2.27591
2.64506
3.34702
3.43536
3.10579
2.52823
4.22756
2.09918
1.52334
2.16899
2.47364
2.41841
2.58335
2.88804
2.82696
2.49472
4.48012
2.37788
1.98007
2.75482
2.66756
2.36221
2.03706
2.12301
2.40864
2.24636
4.62134
2.91589
2.95222
3.23815
2.87553
2.36449
1.90223
1.62059
1.73963
1.89742
4.155
3.89085
4.31777
3.65808
2.97493
2.35235
1.8433
1.48362
1.32281
1.44784
3.0374
5.36913
5.54047
4.36487
3.18847
2.3783
1.83065
1.43411
1.21614
1.08502
2.30094
6.75265
6.06449
4.69224
3.35852
2.46355
1.91586
1.51456
1.20617
0.956572
2.79567
8.27188
6.88408
4.9513
3.41031
2.43386
1.78785
1.41109
1.13636
0.887672
)
;

boundaryField
{
    inlet
    {
        type            fixedValue;
        value           uniform 1;
    }
    outlet
    {
        type            zeroGradient;
    }
    top
    {
        type            symmetryPlane;
    }
    bottom
    {
        type            symmetryPlane;
    }
    step
    {
        type            zeroGradient;
    }
    defaultFaces
    {
        type            empty;
    }
}


// ************************************************************************* //
