/*--------------------------------*- C++ -*----------------------------------*\
  =========                 |
  \\      /  F ield         | OpenFOAM: The Open Source CFD Toolbox
   \\    /   O peration     | Website:  https://openfoam.org
    \\  /    A nd           | Version:  6.0
     \\/     M anipulation  |
\*---------------------------------------------------------------------------*/
FoamFile
{
    version     2.0;
    format      ascii;
    class       volScalarField;
    location    "2.001683";
    object      rho;
}
// * * * * * * * * * * * * * * * * * * * * * * * * * * * * * * * * * * * * * //

dimensions      [1 -3 0 0 0 0 0];

internalField   nonuniform List<scalar> 
300
(
1.39997
1.39997
1.39997
1.39997
1.39997
3.58781
5.4504
5.56423
5.69516
5.80044
1.39997
1.39997
1.39997
1.39997
1.39997
3.56526
5.434
5.57107
5.69994
5.8037
1.39997
1.39997
1.39997
1.39997
1.39997
3.52014
5.40927
5.57132
5.69402
5.78382
1.39997
1.39997
1.39997
1.39997
1.39997
3.46282
5.38357
5.53888
5.65661
5.74843
1.39997
1.39997
1.39997
1.39997
1.39997
3.3877
5.35174
5.47864
5.587
5.71144
1.39997
1.39997
1.39997
1.39997
1.39997
3.28763
5.30937
5.42576
5.5217
5.65025
1.39997
1.39997
1.39997
1.39997
1.39997
3.15437
5.24446
5.37342
5.45096
5.5503
1.39997
1.39997
1.39997
1.39997
1.39997
2.99755
5.1565
5.33254
5.37228
5.40048
1.39997
1.39997
1.39997
1.39997
1.39997
2.81915
5.06354
5.33813
5.28616
5.19573
1.39997
1.39997
1.39997
1.39997
1.39997
2.66985
4.96639
5.30847
5.21864
5.0412
1.39997
1.39997
1.39997
1.39997
1.39997
2.16333
4.78266
5.09384
4.92122
4.15965
1.39997
1.39997
1.39997
1.39997
1.39997
1.49548
3.72827
4.91649
4.61715
3.98933
1.39997
1.39997
1.39997
1.39997
1.39997
1.40054
2.18881
4.52401
4.53988
3.98935
1.39997
1.39997
1.39997
1.39997
1.39997
1.39997
1.46742
3.13061
4.50899
4.10277
1.39997
1.39997
1.39997
1.39997
1.39997
1.39997
1.40047
1.71283
3.55646
4.16063
1.39997
1.39997
1.39997
1.39997
1.39997
1.39997
1.39997
1.40895
1.97453
3.61821
1.39997
1.39997
1.39997
1.39997
1.39997
1.39997
1.39997
1.40001
1.43033
2.29559
1.39997
1.39997
1.39997
1.39997
1.39997
1.39997
1.39997
1.39997
1.40019
1.49491
1.39997
1.39997
1.39997
1.39997
1.39997
1.39997
1.39997
1.39997
1.39997
1.40072
1.39997
1.39997
1.39997
1.39997
1.39997
1.39997
1.39997
1.39997
1.39997
1.39997
1.28231
0.890423
0.929074
1.00094
1.61189
2.3489
2.50265
2.26155
2.03066
1.73098
2.15478
1.1599
0.996006
1.09377
1.56682
2.1419
2.41635
2.26117
2.05522
1.75477
2.57393
1.36356
1.0712
1.30277
1.69771
1.94883
2.32531
2.33556
2.15745
1.84849
2.88971
1.66983
1.28182
1.6485
1.90514
1.92306
2.04531
2.22363
2.16304
1.95515
3.11903
1.92391
1.63003
2.07534
2.07645
1.95404
1.80038
1.87079
2.04726
1.92674
3.30862
2.29621
2.27111
2.43689
2.27244
2.01874
1.76649
1.59693
1.68607
1.78548
3.13512
2.89035
3.05633
2.74648
2.41184
2.07827
1.77345
1.53274
1.42191
1.50629
2.57135
3.66114
3.78383
3.2224
2.61448
2.14864
1.79465
1.51168
1.3517
1.24565
2.25476
4.50972
4.20461
3.51438
2.78023
2.23567
1.86775
1.57904
1.3489
1.14704
2.78121
5.42813
4.71255
3.70177
2.83428
2.22847
1.78525
1.50757
1.29702
1.08979
)
;

boundaryField
{
    inlet
    {
        type            calculated;
        value           uniform 1.39997;
    }
    outlet
    {
        type            calculated;
        value           nonuniform List<scalar> 10(1.73057 1.75478 1.84915 1.95825 1.93108 1.79012 1.51122 1.24954 1.14932 1.09087);
    }
    top
    {
        type            symmetryPlane;
    }
    bottom
    {
        type            symmetryPlane;
    }
    step
    {
        type            calculated;
        value           nonuniform List<scalar> 
20
(
5.80044
5.8037
5.78382
5.74843
5.71144
5.65025
5.5503
5.40048
5.19573
5.0412
1.28231
0.890423
0.929074
1.00094
1.61189
2.3489
2.50265
2.26155
2.03066
1.73098
)
;
    }
    defaultFaces
    {
        type            empty;
    }
}


// ************************************************************************* //
