/*--------------------------------*- C++ -*----------------------------------*\
  =========                 |
  \\      /  F ield         | OpenFOAM: The Open Source CFD Toolbox
   \\    /   O peration     | Website:  https://openfoam.org
    \\  /    A nd           | Version:  6.0
     \\/     M anipulation  |
\*---------------------------------------------------------------------------*/
FoamFile
{
    version     2.0;
    format      ascii;
    class       volVectorField;
    location    "2.001683";
    object      U;
}
// * * * * * * * * * * * * * * * * * * * * * * * * * * * * * * * * * * * * * //

dimensions      [0 1 -1 0 0 0 0];

internalField   nonuniform List<vector> 
300
(
(3 5.834e-17 0)
(3 1.23654e-16 0)
(3 2.89978e-16 0)
(3 4.52246e-16 0)
(3 2.36215e-17 0)
(1.23392 0.0142669 0)
(0.646594 0.0156754 0)
(0.504564 0.0270063 0)
(0.334781 0.0310475 0)
(0.145458 0.0369455 0)
(3 -3.23297e-17 0)
(3 4.00516e-16 0)
(3 2.7802e-16 0)
(3 4.37705e-16 0)
(3 2.79425e-16 0)
(1.23074 0.0515314 0)
(0.640297 0.0513873 0)
(0.495761 0.0781749 0)
(0.320515 0.0903215 0)
(0.13836 0.1094 0)
(3 -2.1167e-17 0)
(3 8.65421e-16 0)
(3 5.32888e-16 0)
(3 7.20844e-17 0)
(3 -3.81199e-16 0)
(1.24919 0.0964235 0)
(0.643846 0.0904055 0)
(0.494305 0.12583 0)
(0.311963 0.147493 0)
(0.137575 0.188175 0)
(3 2.49627e-16 0)
(3 4.84363e-16 0)
(3 5.99758e-16 0)
(3 1.94003e-16 0)
(3 -1.70875e-16 0)
(1.28373 0.141587 0)
(0.652847 0.131203 0)
(0.497556 0.175139 0)
(0.308237 0.208266 0)
(0.131591 0.273763 0)
(3 -1.51981e-16 0)
(3 -1.33342e-16 0)
(3 -1.90976e-16 0)
(3 -1.33275e-16 0)
(3 -5.52884e-16 0)
(1.33329 0.185088 0)
(0.664341 0.173676 0)
(0.507596 0.223785 0)
(0.319509 0.268083 0)
(0.141782 0.354905 0)
(3 -1.76609e-16 0)
(3 -3.01385e-16 0)
(3 -9.33991e-18 0)
(3 -5.57384e-16 0)
(3 -7.15161e-16 0)
(1.40086 0.226114 0)
(0.676826 0.215782 0)
(0.519582 0.271359 0)
(0.333371 0.329673 0)
(0.141354 0.43376 0)
(3 1.82709e-16 0)
(3 2.45713e-16 0)
(3 2.25157e-16 0)
(3 -3.92135e-16 0)
(3 3.58691e-17 0)
(1.48854 0.261386 0)
(0.692308 0.255768 0)
(0.543257 0.319008 0)
(0.365152 0.394103 0)
(0.163098 0.514832 0)
(3 1.94226e-16 0)
(3 4.97272e-16 0)
(3 -4.5699e-17 0)
(3 4.04202e-16 0)
(3 -8.40054e-17 0)
(1.58489 0.301939 0)
(0.694203 0.295099 0)
(0.560647 0.368953 0)
(0.391121 0.470143 0)
(0.165917 0.616555 0)
(3 5.07361e-17 0)
(3 2.68412e-16 0)
(3 4.78567e-17 0)
(3 -1.63072e-16 0)
(3 -6.56295e-16 0)
(1.72537 0.340537 0)
(0.71829 0.344039 0)
(0.584327 0.423736 0)
(0.435876 0.551417 0)
(0.201017 0.724504 0)
(3 6.00334e-17 0)
(3 -3.77236e-16 0)
(3 -4.19085e-16 0)
(3 3.18755e-16 0)
(3 9.47718e-17 0)
(1.92185 0.375018 0)
(0.799903 0.390957 0)
(0.622393 0.482049 0)
(0.497044 0.636832 0)
(0.279446 0.900378 0)
(3 -1.37596e-16 0)
(3 -2.18683e-16 0)
(3 -3.54396e-17 0)
(3 6.9591e-17 0)
(3 -1.67583e-16 0)
(2.45926 0.32857 0)
(0.972207 0.548533 0)
(0.734708 0.559702 0)
(0.688325 0.73277 0)
(0.781497 1.02469 0)
(3 2.82865e-17 0)
(3 1.50618e-16 0)
(3 5.23912e-17 0)
(3 2.13044e-16 0)
(3 6.7944e-17 0)
(3.05206 0.0384938 0)
(1.51168 0.643396 0)
(0.954016 0.710977 0)
(0.968313 0.750471 0)
(1.14718 0.834977 0)
(3 -9.01364e-17 0)
(3 -1.12213e-16 0)
(3 -1.66136e-16 0)
(3 8.5788e-17 0)
(3 1.03428e-16 0)
(3.00316 0.000670897 0)
(2.59609 0.392921 0)
(1.28069 0.805258 0)
(1.15177 0.839271 0)
(1.32867 0.851522 0)
(3 -6.67934e-17 0)
(3 5.29958e-17 0)
(3 3.13331e-16 0)
(3 2.22408e-16 0)
(3 1.04181e-16 0)
(3 9.18307e-07 0)
(3.02929 0.0262511 0)
(2.01114 0.678329 0)
(1.32627 0.869907 0)
(1.44119 0.871695 0)
(3 1.30298e-16 0)
(3 6.80882e-17 0)
(3 3.37601e-16 0)
(3 7.27848e-16 0)
(3 1.06383e-15 0)
(3 -6.55953e-08 0)
(3.00072 0.000679188 0)
(2.9378 0.153967 0)
(1.83773 0.798417 0)
(1.51736 0.893296 0)
(3 -1.77946e-17 0)
(3 -2.2705e-16 0)
(3 -1.80878e-16 0)
(3 2.55634e-16 0)
(3 3.33209e-16 0)
(3 -8.00763e-09 0)
(3 6.37089e-07 0)
(3.00253 0.00746011 0)
(2.80217 0.297417 0)
(1.81692 0.846519 0)
(3 1.66215e-17 0)
(3 2.00802e-16 0)
(3 2.62793e-16 0)
(3 2.76803e-16 0)
(3 3.25451e-16 0)
(3 -2.90827e-10 0)
(3 -2.09772e-10 0)
(3 4.1516e-05 0)
(3.00473 0.0162828 0)
(2.57112 0.482595 0)
(3 5.22286e-17 0)
(3 7.49649e-17 0)
(3 1.52621e-17 0)
(3 3.12603e-17 0)
(3 8.94626e-17 0)
(3 -1.46067e-12 0)
(3 -4.51222e-11 0)
(3 1.41711e-08 0)
(3.00002 0.000261429 0)
(3.03676 0.0357924 0)
(3 -1.36512e-16 0)
(3 -1.34713e-16 0)
(3 -2.38801e-16 0)
(3 -3.20013e-16 0)
(3 -1.9104e-16 0)
(3 -1.75406e-15 0)
(3 -2.12611e-12 0)
(3 -4.59515e-13 0)
(3 3.98405e-07 0)
(3.00202 0.000181786 0)
(3 -6.71047e-17 0)
(3 1.86701e-17 0)
(3 -1.42263e-16 0)
(3 -1.54011e-16 0)
(3 -1.92938e-16 0)
(3 -1.64133e-16 0)
(3 -2.00766e-14 0)
(3 -1.25189e-14 0)
(3 9.12937e-11 0)
(3 2.0028e-07 0)
(1.80133 0.922799 0)
(2.21255 0.190207 0)
(2.25924 0.0304505 0)
(2.26068 -0.0265104 0)
(2.01274 -0.203826 0)
(1.86355 -0.154979 0)
(1.95332 -0.0439955 0)
(2.12735 0.00174208 0)
(2.28572 0.0220835 0)
(2.48979 0.0300709 0)
(1.85536 0.416664 0)
(2.32757 0.0329097 0)
(2.36333 -0.0504852 0)
(2.33625 -0.146421 0)
(2.08941 -0.523747 0)
(2.04745 -0.303108 0)
(2.01761 -0.0292203 0)
(2.16896 0.0684872 0)
(2.29744 0.106015 0)
(2.49517 0.116303 0)
(1.85043 0.552401 0)
(2.21531 0.421597 0)
(2.45045 0.0683761 0)
(2.38328 -0.208107 0)
(2.19974 -0.683991 0)
(2.20077 -0.574039 0)
(2.18158 -0.207811 0)
(2.26793 0.0228194 0)
(2.35012 0.162895 0)
(2.53059 0.158513 0)
(1.86618 0.647378 0)
(2.25746 0.49207 0)
(2.43338 0.0252833 0)
(2.30016 -0.425803 0)
(2.22652 -0.712081 0)
(2.28343 -0.658524 0)
(2.34203 -0.419992 0)
(2.36253 -0.0978418 0)
(2.45711 0.140571 0)
(2.56182 0.216438 0)
(1.87395 0.726726 0)
(2.21886 0.669968 0)
(2.2824 0.0556966 0)
(2.24994 -0.436108 0)
(2.24434 -0.670149 0)
(2.32071 -0.634567 0)
(2.43909 -0.526387 0)
(2.47243 -0.23073 0)
(2.56971 0.0410667 0)
(2.62208 0.209066 0)
(1.87971 0.829896 0)
(2.20256 0.717051 0)
(2.16456 -0.0179964 0)
(2.16763 -0.545901 0)
(2.23162 -0.571737 0)
(2.35061 -0.534768 0)
(2.46849 -0.487003 0)
(2.60988 -0.36201 0)
(2.65396 -0.110246 0)
(2.73531 0.165198 0)
(1.94782 0.870925 0)
(2.08727 0.637513 0)
(2.13913 -0.0604773 0)
(2.14889 -0.434591 0)
(2.24635 -0.49975 0)
(2.39655 -0.469539 0)
(2.54737 -0.419167 0)
(2.6629 -0.357538 0)
(2.76125 -0.220807 0)
(2.84793 0.0407478 0)
(2.17673 0.937338 0)
(1.85087 0.398617 0)
(2.03739 -0.0528857 0)
(2.14798 -0.265442 0)
(2.2982 -0.352604 0)
(2.44506 -0.338481 0)
(2.59491 -0.297805 0)
(2.72454 -0.241147 0)
(2.80302 -0.230237 0)
(2.95441 -0.0661369 0)
(2.62646 0.853708 0)
(1.76382 0.110155 0)
(1.93891 -0.144936 0)
(2.15356 -0.198738 0)
(2.36814 -0.239414 0)
(2.5431 -0.231835 0)
(2.67254 -0.207524 0)
(2.78839 -0.156238 0)
(2.88112 -0.147589 0)
(2.99123 -0.0548169 0)
(2.86547 0.718749 0)
(1.86122 0.158209 0)
(1.96297 0.00908631 0)
(2.17615 -0.0485465 0)
(2.39768 -0.0677252 0)
(2.56518 -0.0647636 0)
(2.66687 -0.0853062 0)
(2.75879 -0.0736138 0)
(2.85138 -0.0694456 0)
(2.97057 -0.0628857 0)
)
;

boundaryField
{
    inlet
    {
        type            fixedValue;
        value           uniform (3 0 0);
    }
    outlet
    {
        type            inletOutlet;
        inletValue      uniform (3 0 0);
        value           nonuniform List<vector> 10((2.48979 0.0300709 0) (2.49517 0.116303 0) (2.53059 0.158513 0) (2.56182 0.216438 0) (2.62208 0.209066 0) (2.73531 0.165198 0) (2.84793 0.0407478 0) (2.95441 -0.0661369 0) (2.99123 -0.0548169 0) (2.97057 -0.0628857 0));
    }
    top
    {
        type            symmetryPlane;
    }
    bottom
    {
        type            symmetryPlane;
    }
    step
    {
        type            slip;
    }
    defaultFaces
    {
        type            empty;
    }
}


// ************************************************************************* //
