/*--------------------------------*- C++ -*----------------------------------*\
  =========                 |
  \\      /  F ield         | OpenFOAM: The Open Source CFD Toolbox
   \\    /   O peration     | Website:  https://openfoam.org
    \\  /    A nd           | Version:  6.0
     \\/     M anipulation  |
\*---------------------------------------------------------------------------*/
FoamFile
{
    version     2.0;
    format      ascii;
    class       volScalarField;
    location    "2.000106";
    object      rho;
}
// * * * * * * * * * * * * * * * * * * * * * * * * * * * * * * * * * * * * * //

dimensions      [1 -3 0 0 0 0 0];

internalField   nonuniform List<scalar> 
192000
(
1.39997
1.39997
1.39997
1.39997
1.39997
1.39997
1.39997
1.39997
1.39997
1.39997
1.39997
1.39997
1.39997
1.39997
1.39997
1.39997
1.39997
1.39997
1.39997
1.39997
1.52052
4.2784
5.43886
5.48403
5.53627
5.58894
5.63875
5.68082
5.71294
5.7379
5.76181
5.79177
5.83155
5.87436
5.90606
5.91853
5.9156
5.90695
5.90298
5.90609
1.39997
1.39997
1.39997
1.39997
1.39997
1.39997
1.39997
1.39997
1.39997
1.39997
1.39997
1.39997
1.39997
1.39997
1.39997
1.39997
1.39997
1.39997
1.39997
1.39997
1.5198
4.26989
5.43437
5.48473
5.53788
5.5895
5.63722
5.67763
5.70994
5.73671
5.76319
5.79412
5.83078
5.86826
5.89808
5.91362
5.91531
5.90929
5.90429
5.90568
1.39997
1.39997
1.39997
1.39997
1.39997
1.39997
1.39997
1.39997
1.39997
1.39997
1.39997
1.39997
1.39997
1.39997
1.39997
1.39997
1.39997
1.39997
1.39997
1.39997
1.5177
4.25518
5.42749
5.48359
5.53894
5.59005
5.63578
5.6742
5.70625
5.73489
5.76443
5.79704
5.83122
5.86258
5.88791
5.90553
5.9126
5.91074
5.90595
5.9055
1.39997
1.39997
1.39997
1.39997
1.39997
1.39997
1.39997
1.39997
1.39997
1.39997
1.39997
1.39997
1.39997
1.39997
1.39997
1.39997
1.39997
1.39997
1.39997
1.39997
1.51328
4.23774
5.4244
5.4823
5.53897
5.58931
5.63348
5.67056
5.70237
5.73306
5.76569
5.7991
5.83046
5.85681
5.87811
5.89683
5.90939
5.91162
5.9068
5.90479
1.39997
1.39997
1.39997
1.39997
1.39997
1.39997
1.39997
1.39997
1.39997
1.39997
1.39997
1.39997
1.39997
1.39997
1.39997
1.39997
1.39997
1.39997
1.39997
1.39997
1.50637
4.22166
5.42717
5.48135
5.53784
5.58782
5.63157
5.66803
5.69972
5.73175
5.76629
5.79968
5.82872
5.852
5.87175
5.89068
5.90535
5.90975
5.90577
5.90395
1.39997
1.39997
1.39997
1.39997
1.39997
1.39997
1.39997
1.39997
1.39997
1.39997
1.39997
1.39997
1.39997
1.39997
1.39997
1.39997
1.39997
1.39997
1.39997
1.39997
1.49679
4.20736
5.4379
5.48077
5.53449
5.58437
5.62909
5.6663
5.69877
5.73126
5.76574
5.79855
5.82632
5.84924
5.86963
5.88852
5.90153
5.90524
5.90258
5.90252
1.39997
1.39997
1.39997
1.39997
1.39997
1.39997
1.39997
1.39997
1.39997
1.39997
1.39997
1.39997
1.39997
1.39997
1.39997
1.39997
1.39997
1.39997
1.39997
1.39997
1.48437
4.18844
5.4474
5.47936
5.53076
5.58075
5.6266
5.66521
5.69849
5.73038
5.76345
5.79556
5.82383
5.84862
5.87049
5.88833
5.89792
5.89929
5.89778
5.90001
1.39997
1.39997
1.39997
1.39997
1.39997
1.39997
1.39997
1.39997
1.39997
1.39997
1.39997
1.39997
1.39997
1.39997
1.39997
1.39997
1.39997
1.39997
1.39997
1.39997
1.46606
4.1618
5.45355
5.47808
5.52702
5.57654
5.62343
5.66357
5.6976
5.7289
5.76039
5.79141
5.8209
5.84789
5.87101
5.88701
5.8931
5.89264
5.89244
5.89639
1.39997
1.39997
1.39997
1.39997
1.39997
1.39997
1.39997
1.39997
1.39997
1.39997
1.39997
1.39997
1.39997
1.39997
1.39997
1.39997
1.39997
1.39997
1.39997
1.39997
1.44058
4.12959
5.45488
5.47671
5.52412
5.57284
5.61995
5.661
5.69554
5.72625
5.75652
5.7869
5.81745
5.8461
5.86928
5.88294
5.88691
5.88632
5.8872
5.89179
1.39997
1.39997
1.39997
1.39997
1.39997
1.39997
1.39997
1.39997
1.39997
1.39997
1.39997
1.39997
1.39997
1.39997
1.39997
1.39997
1.39997
1.39997
1.39997
1.39997
1.41711
4.09095
5.45172
5.47445
5.52131
5.56934
5.61588
5.6571
5.69203
5.72256
5.75233
5.78274
5.81373
5.8423
5.86422
5.8762
5.88025
5.88086
5.882
5.88587
1.39997
1.39997
1.39997
1.39997
1.39997
1.39997
1.39997
1.39997
1.39997
1.39997
1.39997
1.39997
1.39997
1.39997
1.39997
1.39997
1.39997
1.39997
1.39997
1.39997
1.40282
4.03926
5.44381
5.4711
5.51841
5.56581
5.61144
5.65224
5.68719
5.71784
5.7478
5.77849
5.80929
5.83672
5.85653
5.86808
5.87387
5.87589
5.8763
5.87869
1.39997
1.39997
1.39997
1.39997
1.39997
1.39997
1.39997
1.39997
1.39997
1.39997
1.39997
1.39997
1.39997
1.39997
1.39997
1.39997
1.39997
1.39997
1.39997
1.39997
1.40015
3.97678
5.43422
5.46721
5.51492
5.5619
5.6066
5.64659
5.68127
5.71227
5.74284
5.77371
5.80375
5.8295
5.84794
5.86016
5.86782
5.87063
5.86973
5.87059
1.39997
1.39997
1.39997
1.39997
1.39997
1.39997
1.39997
1.39997
1.39997
1.39997
1.39997
1.39997
1.39997
1.39997
1.39997
1.39997
1.39997
1.39997
1.39997
1.39997
1.39997
3.91001
5.42382
5.46263
5.51055
5.55767
5.6016
5.64046
5.67472
5.70627
5.73753
5.76824
5.79717
5.82154
5.83991
5.85321
5.86184
5.8644
5.86207
5.86213
1.39997
1.39997
1.39997
1.39997
1.39997
1.39997
1.39997
1.39997
1.39997
1.39997
1.39997
1.39997
1.39997
1.39997
1.39997
1.39997
1.39997
1.39997
1.39997
1.39997
1.39997
3.83965
5.41248
5.45756
5.50572
5.55315
5.59633
5.63401
5.66803
5.70024
5.73197
5.76221
5.78999
5.81366
5.83252
5.84668
5.85525
5.85682
5.85356
5.85386
1.39997
1.39997
1.39997
1.39997
1.39997
1.39997
1.39997
1.39997
1.39997
1.39997
1.39997
1.39997
1.39997
1.39997
1.39997
1.39997
1.39997
1.39997
1.39997
1.39997
1.39997
3.76525
5.40073
5.45245
5.5004
5.54796
5.59041
5.62739
5.66166
5.69438
5.72616
5.75575
5.7826
5.8059
5.82505
5.8395
5.84735
5.84789
5.84468
5.84593
1.39997
1.39997
1.39997
1.39997
1.39997
1.39997
1.39997
1.39997
1.39997
1.39997
1.39997
1.39997
1.39997
1.39997
1.39997
1.39997
1.39997
1.39997
1.39997
1.39997
1.39997
3.68649
5.38838
5.44727
5.49423
5.54142
5.58354
5.62088
5.65587
5.68874
5.72005
5.74886
5.77496
5.79777
5.8167
5.83076
5.83776
5.83806
5.8359
5.83821
1.39997
1.39997
1.39997
1.39997
1.39997
1.39997
1.39997
1.39997
1.39997
1.39997
1.39997
1.39997
1.39997
1.39997
1.39997
1.39997
1.39997
1.39997
1.39997
1.39997
1.39997
3.60327
5.37514
5.4415
5.48665
5.53329
5.57604
5.61488
5.65078
5.68336
5.71369
5.74141
5.76655
5.78858
5.80692
5.82033
5.82703
5.828
5.82709
5.82998
1.39997
1.39997
1.39997
1.39997
1.39997
1.39997
1.39997
1.39997
1.39997
1.39997
1.39997
1.39997
1.39997
1.39997
1.39997
1.39997
1.39997
1.39997
1.39997
1.39997
1.39997
3.51535
5.36023
5.4346
5.47788
5.52449
5.56883
5.6096
5.64614
5.678
5.70692
5.73314
5.75697
5.77817
5.79613
5.80923
5.81637
5.81819
5.81755
5.82014
1.39997
1.39997
1.39997
1.39997
1.39997
1.39997
1.39997
1.39997
1.39997
1.39997
1.39997
1.39997
1.39997
1.39997
1.39997
1.39997
1.39997
1.39997
1.39997
1.39997
1.39997
3.42245
5.34257
5.42688
5.46932
5.51663
5.56262
5.60473
5.64118
5.67183
5.69896
5.7233
5.74566
5.76638
5.78463
5.79826
5.80622
5.80826
5.80649
5.80797
1.39997
1.39997
1.39997
1.39997
1.39997
1.39997
1.39997
1.39997
1.39997
1.39997
1.39997
1.39997
1.39997
1.39997
1.39997
1.39997
1.39997
1.39997
1.39997
1.39997
1.39997
3.32455
5.32149
5.41949
5.46255
5.51073
5.55733
5.5994
5.63484
5.66394
5.68921
5.71185
5.73332
5.75415
5.77316
5.78804
5.79645
5.79747
5.79317
5.79284
1.39997
1.39997
1.39997
1.39997
1.39997
1.39997
1.39997
1.39997
1.39997
1.39997
1.39997
1.39997
1.39997
1.39997
1.39997
1.39997
1.39997
1.39997
1.39997
1.39997
1.39997
3.22207
5.29726
5.41351
5.45795
5.50653
5.55233
5.5929
5.62659
5.65412
5.67784
5.69944
5.72095
5.74252
5.76225
5.77815
5.78637
5.78494
5.77745
5.77608
1.39997
1.39997
1.39997
1.39997
1.39997
1.39997
1.39997
1.39997
1.39997
1.39997
1.39997
1.39997
1.39997
1.39997
1.39997
1.39997
1.39997
1.39997
1.39997
1.39997
1.39997
3.11553
5.27075
5.40921
5.45465
5.50286
5.54685
5.58513
5.61692
5.64322
5.66605
5.68744
5.70957
5.73206
5.7521
5.7676
5.77447
5.76976
5.75946
5.75826
1.39997
1.39997
1.39997
1.39997
1.39997
1.39997
1.39997
1.39997
1.39997
1.39997
1.39997
1.39997
1.39997
1.39997
1.39997
1.39997
1.39997
1.39997
1.39997
1.39997
1.39997
3.00537
5.2429
5.40641
5.45162
5.49883
5.54079
5.57684
5.6069
5.63253
5.65526
5.6768
5.6993
5.72243
5.74251
5.75551
5.75864
5.75099
5.73994
5.74076
1.39997
1.39997
1.39997
1.39997
1.39997
1.39997
1.39997
1.39997
1.39997
1.39997
1.39997
1.39997
1.39997
1.39997
1.39997
1.39997
1.39997
1.39997
1.39997
1.39997
1.39997
2.89186
5.21432
5.4053
5.44819
5.49373
5.53415
5.56893
5.59805
5.62353
5.64632
5.66767
5.68988
5.71295
5.73205
5.74121
5.73856
5.72878
5.71997
5.72325
1.39997
1.39997
1.39997
1.39997
1.39997
1.39997
1.39997
1.39997
1.39997
1.39997
1.39997
1.39997
1.39997
1.39997
1.39997
1.39997
1.39997
1.39997
1.39997
1.39997
1.39997
2.77509
5.18484
5.40598
5.44443
5.48768
5.52715
5.56202
5.59107
5.61657
5.63916
5.65962
5.68082
5.70264
5.71863
5.72262
5.71469
5.70436
5.69995
5.70547
1.39997
1.39997
1.39997
1.39997
1.39997
1.39997
1.39997
1.39997
1.39997
1.39997
1.39997
1.39997
1.39997
1.39997
1.39997
1.39997
1.39997
1.39997
1.39997
1.39997
1.39997
2.65553
5.15214
5.40771
5.44044
5.48132
5.52058
5.55605
5.58548
5.61136
5.63335
5.65246
5.67192
5.69028
5.70079
5.69929
5.68919
5.68027
5.67947
5.6853
1.39997
1.39997
1.39997
1.39997
1.39997
1.39997
1.39997
1.39997
1.39997
1.39997
1.39997
1.39997
1.39997
1.39997
1.39997
1.39997
1.39997
1.39997
1.39997
1.39997
1.39997
2.53333
5.11275
5.4091
5.43519
5.47418
5.51343
5.55016
5.58084
5.60742
5.62868
5.64615
5.66228
5.67409
5.6775
5.67245
5.66416
5.65776
5.65769
5.66188
1.39997
1.39997
1.39997
1.39997
1.39997
1.39997
1.39997
1.39997
1.39997
1.39997
1.39997
1.39997
1.39997
1.39997
1.39997
1.39997
1.39997
1.39997
1.39997
1.39997
1.39997
2.40834
5.06023
5.41455
5.43164
5.46712
5.50604
5.54378
5.57584
5.60348
5.62396
5.63881
5.64905
5.65296
5.65059
5.64517
5.64119
5.63646
5.63346
5.63319
1.39997
1.39997
1.39997
1.39997
1.39997
1.39997
1.39997
1.39997
1.39997
1.39997
1.39997
1.39997
1.39997
1.39997
1.39997
1.39997
1.39997
1.39997
1.39997
1.39997
1.39997
2.28295
4.97872
5.4092
5.4247
5.45952
5.49831
5.53668
5.57039
5.59886
5.61799
5.62795
5.63046
5.62758
5.6229
5.62071
5.62003
5.61429
5.60585
5.60024
1.39997
1.39997
1.39997
1.39997
1.39997
1.39997
1.39997
1.39997
1.39997
1.39997
1.39997
1.39997
1.39997
1.39997
1.39997
1.39997
1.39997
1.39997
1.39997
1.39997
1.39997
2.15679
4.87971
5.40743
5.42052
5.45422
5.49096
5.52888
5.56389
5.59208
5.60799
5.61207
5.60739
5.60058
5.59777
5.59988
5.59959
5.58961
5.5737
5.56213
1.39997
1.39997
1.39997
1.39997
1.39997
1.39997
1.39997
1.39997
1.39997
1.39997
1.39997
1.39997
1.39997
1.39997
1.39997
1.39997
1.39997
1.39997
1.39997
1.39997
1.39997
2.02035
4.7779
5.40896
5.41823
5.45006
5.48502
5.52175
5.55655
5.58208
5.59351
5.59199
5.58256
5.57498
5.57641
5.58142
5.57777
5.56027
5.53585
5.52063
1.39997
1.39997
1.39997
1.39997
1.39997
1.39997
1.39997
1.39997
1.39997
1.39997
1.39997
1.39997
1.39997
1.39997
1.39997
1.39997
1.39997
1.39997
1.39997
1.39997
1.39997
1.90596
4.7228
5.43809
5.42518
5.44994
5.48179
5.5162
5.54833
5.56968
5.57645
5.5711
5.55995
5.55455
5.5587
5.56229
5.55253
5.52603
5.49289
5.47441
1.39997
1.39997
1.39997
1.39997
1.39997
1.39997
1.39997
1.39997
1.39997
1.39997
1.39997
1.39997
1.39997
1.39997
1.39997
1.39997
1.39997
1.39997
1.39997
1.39997
1.39997
1.76691
4.72012
5.48966
5.43678
5.45512
5.48192
5.51285
5.53954
5.55383
5.55562
5.54965
5.54105
5.53972
5.54365
5.54076
5.52155
5.48485
5.44393
5.42441
1.39997
1.39997
1.39997
1.39997
1.39997
1.39997
1.39997
1.39997
1.39997
1.39997
1.39997
1.39997
1.39997
1.39997
1.39997
1.39997
1.39997
1.39997
1.39997
1.39997
1.39997
1.6026
4.64801
5.52731
5.45372
5.46545
5.48637
5.51085
5.53053
5.53814
5.53577
5.53037
5.5268
5.52853
5.52846
5.51471
5.48361
5.4381
5.39074
5.36743
1.39997
1.39997
1.39997
1.39997
1.39997
1.39997
1.39997
1.39997
1.39997
1.39997
1.39997
1.39997
1.39997
1.39997
1.39997
1.39997
1.39997
1.39997
1.39997
1.39997
1.39997
1.47287
4.50178
5.52376
5.46365
5.48308
5.49476
5.51012
5.52146
5.52302
5.51813
5.51389
5.51516
5.518
5.51003
5.48356
5.44049
5.38578
5.33034
5.30288
1.39997
1.39997
1.39997
1.39997
1.39997
1.39997
1.39997
1.39997
1.39997
1.39997
1.39997
1.39997
1.39997
1.39997
1.39997
1.39997
1.39997
1.39997
1.39997
1.39997
1.39997
1.42583
4.29695
5.46975
5.45546
5.4878
5.50258
5.50967
5.51417
5.51018
5.50368
5.50082
5.50434
5.50359
5.48439
5.44587
5.39424
5.33156
5.26319
5.2228
1.39997
1.39997
1.39997
1.39997
1.39997
1.39997
1.39997
1.39997
1.39997
1.39997
1.39997
1.39997
1.39997
1.39997
1.39997
1.39997
1.39997
1.39997
1.39997
1.39997
1.39997
1.40455
4.08001
5.41817
5.43516
5.48293
5.50056
5.50899
5.50778
5.49983
5.49187
5.48989
5.49236
5.48216
5.45
5.40359
5.3477
5.27361
5.17998
5.12096
1.39997
1.39997
1.39997
1.39997
1.39997
1.39997
1.39997
1.39997
1.39997
1.39997
1.39997
1.39997
1.39997
1.39997
1.39997
1.39997
1.39997
1.39997
1.39997
1.39997
1.39997
1.40038
3.86625
5.34926
5.397
5.45611
5.49258
5.50072
5.5019
5.49295
5.48376
5.47992
5.47564
5.45305
5.41207
5.36179
5.30118
5.21232
5.08398
4.98219
1.39997
1.39997
1.39997
1.39997
1.39997
1.39997
1.39997
1.39997
1.39997
1.39997
1.39997
1.39997
1.39997
1.39997
1.39997
1.39997
1.39997
1.39997
1.39997
1.39997
1.39997
1.39998
3.67325
5.27163
5.33915
5.42811
5.46596
5.4899
5.49241
5.49142
5.4819
5.46948
5.44994
5.41785
5.3745
5.32428
5.25897
5.1498
4.96178
4.78388
1.39997
1.39997
1.39997
1.39997
1.39997
1.39997
1.39997
1.39997
1.39997
1.39997
1.39997
1.39997
1.39997
1.39997
1.39997
1.39997
1.39997
1.39997
1.39997
1.39997
1.39997
1.39997
3.47298
5.19872
5.28938
5.38878
5.44041
5.46562
5.4879
5.49519
5.48337
5.45454
5.41958
5.38584
5.34657
5.29648
5.21629
5.07967
4.84472
4.55239
1.39997
1.39997
1.39997
1.39997
1.39997
1.39997
1.39997
1.39997
1.39997
1.39997
1.39997
1.39997
1.39997
1.39997
1.39997
1.39997
1.39997
1.39997
1.39997
1.39997
1.52052
4.2784
5.43886
5.48403
5.53627
5.58894
5.63875
5.68082
5.71294
5.7379
5.76181
5.79177
5.83155
5.87436
5.90606
5.91853
5.9156
5.90695
5.90298
5.90609
1.39997
1.39997
1.39997
1.39997
1.39997
1.39997
1.39997
1.39997
1.39997
1.39997
1.39997
1.39997
1.39997
1.39997
1.39997
1.39997
1.39997
1.39997
1.39997
1.39997
1.5198
4.26989
5.43437
5.48473
5.53788
5.5895
5.63722
5.67763
5.70994
5.73671
5.76319
5.79412
5.83078
5.86826
5.89808
5.91362
5.91531
5.90929
5.90429
5.90568
1.39997
1.39997
1.39997
1.39997
1.39997
1.39997
1.39997
1.39997
1.39997
1.39997
1.39997
1.39997
1.39997
1.39997
1.39997
1.39997
1.39997
1.39997
1.39997
1.39997
1.5177
4.25518
5.42749
5.48359
5.53894
5.59005
5.63578
5.6742
5.70625
5.73489
5.76443
5.79704
5.83122
5.86258
5.88791
5.90553
5.9126
5.91074
5.90595
5.9055
1.39997
1.39997
1.39997
1.39997
1.39997
1.39997
1.39997
1.39997
1.39997
1.39997
1.39997
1.39997
1.39997
1.39997
1.39997
1.39997
1.39997
1.39997
1.39997
1.39997
1.51328
4.23774
5.4244
5.4823
5.53897
5.58931
5.63348
5.67056
5.70237
5.73306
5.76569
5.7991
5.83046
5.85681
5.87811
5.89683
5.90939
5.91162
5.9068
5.90479
1.39997
1.39997
1.39997
1.39997
1.39997
1.39997
1.39997
1.39997
1.39997
1.39997
1.39997
1.39997
1.39997
1.39997
1.39997
1.39997
1.39997
1.39997
1.39997
1.39997
1.50637
4.22166
5.42717
5.48135
5.53784
5.58782
5.63157
5.66803
5.69972
5.73175
5.76629
5.79968
5.82872
5.852
5.87175
5.89068
5.90535
5.90975
5.90577
5.90395
1.39997
1.39997
1.39997
1.39997
1.39997
1.39997
1.39997
1.39997
1.39997
1.39997
1.39997
1.39997
1.39997
1.39997
1.39997
1.39997
1.39997
1.39997
1.39997
1.39997
1.49679
4.20736
5.4379
5.48077
5.53449
5.58437
5.62909
5.6663
5.69877
5.73126
5.76574
5.79855
5.82632
5.84924
5.86963
5.88852
5.90153
5.90524
5.90258
5.90252
1.39997
1.39997
1.39997
1.39997
1.39997
1.39997
1.39997
1.39997
1.39997
1.39997
1.39997
1.39997
1.39997
1.39997
1.39997
1.39997
1.39997
1.39997
1.39997
1.39997
1.48437
4.18844
5.4474
5.47936
5.53076
5.58075
5.6266
5.66521
5.69849
5.73038
5.76345
5.79556
5.82383
5.84862
5.87049
5.88833
5.89792
5.89929
5.89778
5.90001
1.39997
1.39997
1.39997
1.39997
1.39997
1.39997
1.39997
1.39997
1.39997
1.39997
1.39997
1.39997
1.39997
1.39997
1.39997
1.39997
1.39997
1.39997
1.39997
1.39997
1.46606
4.1618
5.45355
5.47808
5.52702
5.57654
5.62343
5.66357
5.6976
5.7289
5.76039
5.79141
5.8209
5.84789
5.87101
5.88701
5.8931
5.89264
5.89244
5.89639
1.39997
1.39997
1.39997
1.39997
1.39997
1.39997
1.39997
1.39997
1.39997
1.39997
1.39997
1.39997
1.39997
1.39997
1.39997
1.39997
1.39997
1.39997
1.39997
1.39997
1.44058
4.12959
5.45488
5.47671
5.52412
5.57284
5.61995
5.661
5.69554
5.72625
5.75652
5.7869
5.81745
5.8461
5.86928
5.88294
5.88691
5.88632
5.8872
5.89179
1.39997
1.39997
1.39997
1.39997
1.39997
1.39997
1.39997
1.39997
1.39997
1.39997
1.39997
1.39997
1.39997
1.39997
1.39997
1.39997
1.39997
1.39997
1.39997
1.39997
1.41711
4.09095
5.45172
5.47445
5.52131
5.56934
5.61588
5.6571
5.69203
5.72256
5.75233
5.78274
5.81373
5.8423
5.86422
5.8762
5.88025
5.88086
5.882
5.88587
1.39997
1.39997
1.39997
1.39997
1.39997
1.39997
1.39997
1.39997
1.39997
1.39997
1.39997
1.39997
1.39997
1.39997
1.39997
1.39997
1.39997
1.39997
1.39997
1.39997
1.40282
4.03926
5.44381
5.4711
5.51841
5.56581
5.61144
5.65224
5.68719
5.71784
5.7478
5.77849
5.80929
5.83672
5.85653
5.86808
5.87387
5.87589
5.8763
5.87869
1.39997
1.39997
1.39997
1.39997
1.39997
1.39997
1.39997
1.39997
1.39997
1.39997
1.39997
1.39997
1.39997
1.39997
1.39997
1.39997
1.39997
1.39997
1.39997
1.39997
1.40015
3.97678
5.43422
5.46721
5.51492
5.5619
5.6066
5.64659
5.68127
5.71227
5.74284
5.77371
5.80375
5.8295
5.84794
5.86016
5.86782
5.87063
5.86973
5.87059
1.39997
1.39997
1.39997
1.39997
1.39997
1.39997
1.39997
1.39997
1.39997
1.39997
1.39997
1.39997
1.39997
1.39997
1.39997
1.39997
1.39997
1.39997
1.39997
1.39997
1.39997
3.91001
5.42382
5.46263
5.51055
5.55767
5.6016
5.64046
5.67472
5.70627
5.73753
5.76824
5.79717
5.82154
5.83991
5.85321
5.86184
5.8644
5.86207
5.86213
1.39997
1.39997
1.39997
1.39997
1.39997
1.39997
1.39997
1.39997
1.39997
1.39997
1.39997
1.39997
1.39997
1.39997
1.39997
1.39997
1.39997
1.39997
1.39997
1.39997
1.39997
3.83965
5.41248
5.45756
5.50572
5.55315
5.59633
5.63401
5.66803
5.70024
5.73197
5.76221
5.78999
5.81366
5.83252
5.84668
5.85525
5.85682
5.85356
5.85386
1.39997
1.39997
1.39997
1.39997
1.39997
1.39997
1.39997
1.39997
1.39997
1.39997
1.39997
1.39997
1.39997
1.39997
1.39997
1.39997
1.39997
1.39997
1.39997
1.39997
1.39997
3.76525
5.40073
5.45245
5.5004
5.54796
5.59041
5.62739
5.66166
5.69438
5.72616
5.75575
5.7826
5.8059
5.82505
5.8395
5.84735
5.84789
5.84468
5.84593
1.39997
1.39997
1.39997
1.39997
1.39997
1.39997
1.39997
1.39997
1.39997
1.39997
1.39997
1.39997
1.39997
1.39997
1.39997
1.39997
1.39997
1.39997
1.39997
1.39997
1.39997
3.68649
5.38838
5.44727
5.49423
5.54142
5.58354
5.62088
5.65587
5.68874
5.72005
5.74886
5.77496
5.79777
5.8167
5.83076
5.83776
5.83806
5.8359
5.83821
1.39997
1.39997
1.39997
1.39997
1.39997
1.39997
1.39997
1.39997
1.39997
1.39997
1.39997
1.39997
1.39997
1.39997
1.39997
1.39997
1.39997
1.39997
1.39997
1.39997
1.39997
3.60327
5.37514
5.4415
5.48665
5.53329
5.57604
5.61488
5.65078
5.68336
5.71369
5.74141
5.76655
5.78858
5.80692
5.82033
5.82703
5.828
5.82709
5.82998
1.39997
1.39997
1.39997
1.39997
1.39997
1.39997
1.39997
1.39997
1.39997
1.39997
1.39997
1.39997
1.39997
1.39997
1.39997
1.39997
1.39997
1.39997
1.39997
1.39997
1.39997
3.51535
5.36023
5.4346
5.47788
5.52449
5.56883
5.6096
5.64614
5.678
5.70692
5.73314
5.75697
5.77817
5.79613
5.80923
5.81637
5.81819
5.81755
5.82014
1.39997
1.39997
1.39997
1.39997
1.39997
1.39997
1.39997
1.39997
1.39997
1.39997
1.39997
1.39997
1.39997
1.39997
1.39997
1.39997
1.39997
1.39997
1.39997
1.39997
1.39997
3.42245
5.34257
5.42688
5.46932
5.51663
5.56262
5.60473
5.64118
5.67183
5.69896
5.7233
5.74566
5.76638
5.78463
5.79826
5.80622
5.80826
5.80649
5.80797
1.39997
1.39997
1.39997
1.39997
1.39997
1.39997
1.39997
1.39997
1.39997
1.39997
1.39997
1.39997
1.39997
1.39997
1.39997
1.39997
1.39997
1.39997
1.39997
1.39997
1.39997
3.32455
5.32149
5.41949
5.46255
5.51073
5.55733
5.5994
5.63484
5.66394
5.68921
5.71185
5.73332
5.75415
5.77316
5.78804
5.79645
5.79747
5.79317
5.79284
1.39997
1.39997
1.39997
1.39997
1.39997
1.39997
1.39997
1.39997
1.39997
1.39997
1.39997
1.39997
1.39997
1.39997
1.39997
1.39997
1.39997
1.39997
1.39997
1.39997
1.39997
3.22207
5.29726
5.41351
5.45795
5.50653
5.55233
5.5929
5.62659
5.65412
5.67784
5.69944
5.72095
5.74252
5.76225
5.77815
5.78637
5.78494
5.77745
5.77608
1.39997
1.39997
1.39997
1.39997
1.39997
1.39997
1.39997
1.39997
1.39997
1.39997
1.39997
1.39997
1.39997
1.39997
1.39997
1.39997
1.39997
1.39997
1.39997
1.39997
1.39997
3.11553
5.27075
5.40921
5.45465
5.50286
5.54685
5.58513
5.61692
5.64322
5.66605
5.68744
5.70957
5.73206
5.7521
5.7676
5.77447
5.76976
5.75946
5.75826
1.39997
1.39997
1.39997
1.39997
1.39997
1.39997
1.39997
1.39997
1.39997
1.39997
1.39997
1.39997
1.39997
1.39997
1.39997
1.39997
1.39997
1.39997
1.39997
1.39997
1.39997
3.00537
5.2429
5.40641
5.45162
5.49883
5.54079
5.57684
5.6069
5.63253
5.65526
5.6768
5.6993
5.72243
5.74251
5.75551
5.75864
5.75099
5.73994
5.74076
1.39997
1.39997
1.39997
1.39997
1.39997
1.39997
1.39997
1.39997
1.39997
1.39997
1.39997
1.39997
1.39997
1.39997
1.39997
1.39997
1.39997
1.39997
1.39997
1.39997
1.39997
2.89186
5.21432
5.4053
5.44819
5.49373
5.53415
5.56893
5.59805
5.62353
5.64632
5.66767
5.68988
5.71295
5.73205
5.74121
5.73856
5.72878
5.71997
5.72325
1.39997
1.39997
1.39997
1.39997
1.39997
1.39997
1.39997
1.39997
1.39997
1.39997
1.39997
1.39997
1.39997
1.39997
1.39997
1.39997
1.39997
1.39997
1.39997
1.39997
1.39997
2.77509
5.18484
5.40598
5.44443
5.48768
5.52715
5.56202
5.59107
5.61657
5.63916
5.65962
5.68082
5.70264
5.71863
5.72262
5.71469
5.70436
5.69995
5.70547
1.39997
1.39997
1.39997
1.39997
1.39997
1.39997
1.39997
1.39997
1.39997
1.39997
1.39997
1.39997
1.39997
1.39997
1.39997
1.39997
1.39997
1.39997
1.39997
1.39997
1.39997
2.65553
5.15214
5.40771
5.44044
5.48132
5.52058
5.55605
5.58548
5.61136
5.63335
5.65246
5.67192
5.69028
5.70079
5.69929
5.68919
5.68027
5.67947
5.6853
1.39997
1.39997
1.39997
1.39997
1.39997
1.39997
1.39997
1.39997
1.39997
1.39997
1.39997
1.39997
1.39997
1.39997
1.39997
1.39997
1.39997
1.39997
1.39997
1.39997
1.39997
2.53333
5.11275
5.4091
5.43519
5.47418
5.51343
5.55016
5.58084
5.60742
5.62868
5.64615
5.66228
5.67409
5.6775
5.67245
5.66416
5.65776
5.65769
5.66188
1.39997
1.39997
1.39997
1.39997
1.39997
1.39997
1.39997
1.39997
1.39997
1.39997
1.39997
1.39997
1.39997
1.39997
1.39997
1.39997
1.39997
1.39997
1.39997
1.39997
1.39997
2.40834
5.06023
5.41455
5.43164
5.46712
5.50604
5.54378
5.57584
5.60348
5.62396
5.63881
5.64905
5.65296
5.65059
5.64517
5.64119
5.63646
5.63346
5.63319
1.39997
1.39997
1.39997
1.39997
1.39997
1.39997
1.39997
1.39997
1.39997
1.39997
1.39997
1.39997
1.39997
1.39997
1.39997
1.39997
1.39997
1.39997
1.39997
1.39997
1.39997
2.28295
4.97872
5.4092
5.4247
5.45952
5.49831
5.53668
5.57039
5.59886
5.61799
5.62795
5.63046
5.62758
5.6229
5.62071
5.62003
5.61429
5.60585
5.60024
1.39997
1.39997
1.39997
1.39997
1.39997
1.39997
1.39997
1.39997
1.39997
1.39997
1.39997
1.39997
1.39997
1.39997
1.39997
1.39997
1.39997
1.39997
1.39997
1.39997
1.39997
2.15679
4.87971
5.40743
5.42052
5.45422
5.49096
5.52888
5.56389
5.59208
5.60799
5.61207
5.60739
5.60058
5.59777
5.59988
5.59959
5.58961
5.5737
5.56213
1.39997
1.39997
1.39997
1.39997
1.39997
1.39997
1.39997
1.39997
1.39997
1.39997
1.39997
1.39997
1.39997
1.39997
1.39997
1.39997
1.39997
1.39997
1.39997
1.39997
1.39997
2.02035
4.7779
5.40896
5.41823
5.45006
5.48502
5.52175
5.55655
5.58208
5.59351
5.59199
5.58256
5.57498
5.57641
5.58142
5.57777
5.56027
5.53585
5.52063
1.39997
1.39997
1.39997
1.39997
1.39997
1.39997
1.39997
1.39997
1.39997
1.39997
1.39997
1.39997
1.39997
1.39997
1.39997
1.39997
1.39997
1.39997
1.39997
1.39997
1.39997
1.90596
4.7228
5.43809
5.42518
5.44994
5.48179
5.5162
5.54833
5.56968
5.57645
5.5711
5.55995
5.55455
5.5587
5.56229
5.55253
5.52603
5.49289
5.47441
1.39997
1.39997
1.39997
1.39997
1.39997
1.39997
1.39997
1.39997
1.39997
1.39997
1.39997
1.39997
1.39997
1.39997
1.39997
1.39997
1.39997
1.39997
1.39997
1.39997
1.39997
1.76691
4.72012
5.48966
5.43678
5.45512
5.48192
5.51285
5.53954
5.55383
5.55562
5.54965
5.54105
5.53972
5.54365
5.54076
5.52155
5.48485
5.44393
5.42441
1.39997
1.39997
1.39997
1.39997
1.39997
1.39997
1.39997
1.39997
1.39997
1.39997
1.39997
1.39997
1.39997
1.39997
1.39997
1.39997
1.39997
1.39997
1.39997
1.39997
1.39997
1.6026
4.64801
5.52731
5.45372
5.46545
5.48637
5.51085
5.53053
5.53814
5.53577
5.53037
5.5268
5.52853
5.52846
5.51471
5.48361
5.4381
5.39074
5.36743
1.39997
1.39997
1.39997
1.39997
1.39997
1.39997
1.39997
1.39997
1.39997
1.39997
1.39997
1.39997
1.39997
1.39997
1.39997
1.39997
1.39997
1.39997
1.39997
1.39997
1.39997
1.47287
4.50178
5.52376
5.46365
5.48308
5.49476
5.51012
5.52146
5.52302
5.51813
5.51389
5.51516
5.518
5.51003
5.48356
5.44049
5.38578
5.33034
5.30288
1.39997
1.39997
1.39997
1.39997
1.39997
1.39997
1.39997
1.39997
1.39997
1.39997
1.39997
1.39997
1.39997
1.39997
1.39997
1.39997
1.39997
1.39997
1.39997
1.39997
1.39997
1.42583
4.29695
5.46975
5.45546
5.4878
5.50258
5.50967
5.51417
5.51018
5.50368
5.50082
5.50434
5.50359
5.48439
5.44587
5.39424
5.33156
5.26319
5.2228
1.39997
1.39997
1.39997
1.39997
1.39997
1.39997
1.39997
1.39997
1.39997
1.39997
1.39997
1.39997
1.39997
1.39997
1.39997
1.39997
1.39997
1.39997
1.39997
1.39997
1.39997
1.40455
4.08001
5.41817
5.43516
5.48293
5.50056
5.50899
5.50778
5.49983
5.49187
5.48989
5.49236
5.48216
5.45
5.40359
5.3477
5.27361
5.17998
5.12096
1.39997
1.39997
1.39997
1.39997
1.39997
1.39997
1.39997
1.39997
1.39997
1.39997
1.39997
1.39997
1.39997
1.39997
1.39997
1.39997
1.39997
1.39997
1.39997
1.39997
1.39997
1.40038
3.86625
5.34926
5.397
5.45611
5.49258
5.50072
5.5019
5.49295
5.48376
5.47992
5.47564
5.45305
5.41207
5.36179
5.30118
5.21232
5.08398
4.98219
1.39997
1.39997
1.39997
1.39997
1.39997
1.39997
1.39997
1.39997
1.39997
1.39997
1.39997
1.39997
1.39997
1.39997
1.39997
1.39997
1.39997
1.39997
1.39997
1.39997
1.39997
1.39998
3.67325
5.27163
5.33915
5.42811
5.46596
5.4899
5.49241
5.49142
5.4819
5.46948
5.44994
5.41785
5.3745
5.32428
5.25897
5.1498
4.96178
4.78388
1.39997
1.39997
1.39997
1.39997
1.39997
1.39997
1.39997
1.39997
1.39997
1.39997
1.39997
1.39997
1.39997
1.39997
1.39997
1.39997
1.39997
1.39997
1.39997
1.39997
1.39997
1.39997
3.47298
5.19872
5.28938
5.38878
5.44041
5.46562
5.4879
5.49519
5.48337
5.45454
5.41958
5.38584
5.34657
5.29648
5.21629
5.07967
4.84472
4.55239
1.39997
1.39997
1.39997
1.39997
1.39997
1.39997
1.39997
1.39997
1.39997
1.39997
1.39997
1.39997
1.39997
1.39997
1.39997
1.39997
1.39997
1.39997
1.39997
1.39997
1.52052
4.2784
5.43886
5.48403
5.53627
5.58894
5.63875
5.68082
5.71294
5.7379
5.76181
5.79177
5.83155
5.87436
5.90606
5.91853
5.9156
5.90695
5.90298
5.90609
1.39997
1.39997
1.39997
1.39997
1.39997
1.39997
1.39997
1.39997
1.39997
1.39997
1.39997
1.39997
1.39997
1.39997
1.39997
1.39997
1.39997
1.39997
1.39997
1.39997
1.5198
4.26989
5.43437
5.48473
5.53788
5.5895
5.63722
5.67763
5.70994
5.73671
5.76319
5.79412
5.83078
5.86826
5.89808
5.91362
5.91531
5.90929
5.90429
5.90568
1.39997
1.39997
1.39997
1.39997
1.39997
1.39997
1.39997
1.39997
1.39997
1.39997
1.39997
1.39997
1.39997
1.39997
1.39997
1.39997
1.39997
1.39997
1.39997
1.39997
1.5177
4.25518
5.42749
5.48359
5.53894
5.59005
5.63578
5.6742
5.70625
5.73489
5.76443
5.79704
5.83122
5.86258
5.88791
5.90553
5.9126
5.91074
5.90595
5.9055
1.39997
1.39997
1.39997
1.39997
1.39997
1.39997
1.39997
1.39997
1.39997
1.39997
1.39997
1.39997
1.39997
1.39997
1.39997
1.39997
1.39997
1.39997
1.39997
1.39997
1.51328
4.23774
5.4244
5.4823
5.53897
5.58931
5.63348
5.67056
5.70237
5.73306
5.76569
5.7991
5.83046
5.85681
5.87811
5.89683
5.90939
5.91162
5.9068
5.90479
1.39997
1.39997
1.39997
1.39997
1.39997
1.39997
1.39997
1.39997
1.39997
1.39997
1.39997
1.39997
1.39997
1.39997
1.39997
1.39997
1.39997
1.39997
1.39997
1.39997
1.50637
4.22166
5.42717
5.48135
5.53784
5.58782
5.63157
5.66803
5.69972
5.73175
5.76629
5.79968
5.82872
5.852
5.87175
5.89068
5.90535
5.90975
5.90577
5.90395
1.39997
1.39997
1.39997
1.39997
1.39997
1.39997
1.39997
1.39997
1.39997
1.39997
1.39997
1.39997
1.39997
1.39997
1.39997
1.39997
1.39997
1.39997
1.39997
1.39997
1.49679
4.20736
5.4379
5.48077
5.53449
5.58437
5.62909
5.6663
5.69877
5.73126
5.76574
5.79855
5.82632
5.84924
5.86963
5.88852
5.90153
5.90524
5.90258
5.90252
1.39997
1.39997
1.39997
1.39997
1.39997
1.39997
1.39997
1.39997
1.39997
1.39997
1.39997
1.39997
1.39997
1.39997
1.39997
1.39997
1.39997
1.39997
1.39997
1.39997
1.48437
4.18844
5.4474
5.47936
5.53076
5.58075
5.6266
5.66521
5.69849
5.73038
5.76345
5.79556
5.82383
5.84862
5.87049
5.88833
5.89792
5.89929
5.89778
5.90001
1.39997
1.39997
1.39997
1.39997
1.39997
1.39997
1.39997
1.39997
1.39997
1.39997
1.39997
1.39997
1.39997
1.39997
1.39997
1.39997
1.39997
1.39997
1.39997
1.39997
1.46606
4.1618
5.45355
5.47808
5.52702
5.57654
5.62343
5.66357
5.6976
5.7289
5.76039
5.79141
5.8209
5.84789
5.87101
5.88701
5.8931
5.89264
5.89244
5.89639
1.39997
1.39997
1.39997
1.39997
1.39997
1.39997
1.39997
1.39997
1.39997
1.39997
1.39997
1.39997
1.39997
1.39997
1.39997
1.39997
1.39997
1.39997
1.39997
1.39997
1.44058
4.12959
5.45488
5.47671
5.52412
5.57284
5.61995
5.661
5.69554
5.72625
5.75652
5.7869
5.81745
5.8461
5.86928
5.88294
5.88691
5.88632
5.8872
5.89179
1.39997
1.39997
1.39997
1.39997
1.39997
1.39997
1.39997
1.39997
1.39997
1.39997
1.39997
1.39997
1.39997
1.39997
1.39997
1.39997
1.39997
1.39997
1.39997
1.39997
1.41711
4.09095
5.45172
5.47445
5.52131
5.56934
5.61588
5.6571
5.69203
5.72256
5.75233
5.78274
5.81373
5.8423
5.86422
5.8762
5.88025
5.88086
5.882
5.88587
1.39997
1.39997
1.39997
1.39997
1.39997
1.39997
1.39997
1.39997
1.39997
1.39997
1.39997
1.39997
1.39997
1.39997
1.39997
1.39997
1.39997
1.39997
1.39997
1.39997
1.40282
4.03926
5.44381
5.4711
5.51841
5.56581
5.61144
5.65224
5.68719
5.71784
5.7478
5.77849
5.80929
5.83672
5.85653
5.86808
5.87387
5.87589
5.8763
5.87869
1.39997
1.39997
1.39997
1.39997
1.39997
1.39997
1.39997
1.39997
1.39997
1.39997
1.39997
1.39997
1.39997
1.39997
1.39997
1.39997
1.39997
1.39997
1.39997
1.39997
1.40015
3.97678
5.43422
5.46721
5.51492
5.5619
5.6066
5.64659
5.68127
5.71227
5.74284
5.77371
5.80375
5.8295
5.84794
5.86016
5.86782
5.87063
5.86973
5.87059
1.39997
1.39997
1.39997
1.39997
1.39997
1.39997
1.39997
1.39997
1.39997
1.39997
1.39997