/*--------------------------------*- C++ -*----------------------------------*\
  =========                 |
  \\      /  F ield         | OpenFOAM: The Open Source CFD Toolbox
   \\    /   O peration     | Website:  https://openfoam.org
    \\  /    A nd           | Version:  6.0
     \\/     M anipulation  |
\*---------------------------------------------------------------------------*/
FoamFile
{
    version     2.0;
    format      ascii;
    class       volScalarField;
    location    "1";
    object      p;
}
// * * * * * * * * * * * * * * * * * * * * * * * * * * * * * * * * * * * * * //

dimensions      [1 -1 -2 0 0 0 0];

internalField   nonuniform List<scalar> 
4800
(
1
1
1
1
1
1
1
1
1
1
1
1
1.00001
1.00001
1.00002
1.00005
1.0001
1.00021
1.00043
1.00088
1.00181
1.00372
1.00765
1.01571
1.03234
1.06677
1.1387
1.29188
1.63203
2.45063
4.7614
21.6557
20.7282
18.8537
17.107
15.5759
13.3591
13.2415
10.1629
13.125
1
1
1
1
1
1
1
1
1
1
1
1
1.00001
1.00001
1.00002
1.00005
1.0001
1.00021
1.00043
1.00088
1.00182
1.00373
1.00765
1.01572
1.03235
1.06678
1.13872
1.29192
1.63214
2.45104
4.7624
21.6566
20.7329
18.863
17.2723
15.9256
13.4154
13.2171
10.537
12.9262
1
1
1
1
1
1
1
1
1
1
1
1
1.00001
1.00001
1.00002
1.00005
1.0001
1.00021
1.00043
1.00088
1.00182
1.00373
1.00766
1.01573
1.03238
1.06683
1.1388
1.29207
1.63242
2.45153
4.76477
21.638
20.724
18.8885
17.4213
16.2772
13.9712
13.1673
11.0863
12.3997
1
1
1
1
1
1
1
1
1
1
1
1
1.00001
1.00001
1.00002
1.00005
1.0001
1.00021
1.00043
1.00088
1.00181
1.00373
1.00765
1.01573
1.03238
1.06685
1.13885
1.2922
1.63273
2.45245
4.76897
21.654
20.7264
18.9308
17.6332
16.9262
15.862
14.2323
11.0796
11.2532
1
1
1
1
1
1
1
1
1
1
1
1
1.00001
1.00001
1.00002
1.00005
1.0001
1.00021
1.00043
1.00088
1.00181
1.00372
1.00764
1.01571
1.03235
1.06679
1.13878
1.29212
1.63266
2.45264
4.77189
21.6549
20.727
19.0595
17.8161
17.0453
15.0237
14.7728
10.8822
10.9021
1
1
1
1
1
1
1
1
1
1
1
1
1.00001
1.00001
1.00002
1.00005
1.0001
1.00021
1.00043
1.00088
1.00181
1.00371
1.00763
1.01568
1.03228
1.06666
1.13851
1.29159
1.63162
2.45076
4.77242
21.6511
20.7122
19.1539
18.0784
16.9975
19.7591
17.5215
10.4232
10.5301
1
1
1
1
1
1
1
1
1
1
1
1
1.00001
1.00001
1.00002
1.00005
1.0001
1.00021
1.00043
1.00088
1.0018
1.00371
1.00761
1.01565
1.03222
1.06652
1.13821
1.29094
1.63013
2.44751
4.76951
21.5629
20.6206
19.1985
18.151
16.9836
19.4376
16.7618
8.91565
4.89483
1
1
1
1
1
1
1
1
1
1
1
1
1.00001
1.00001
1.00002
1.00005
1.0001
1.00021
1.00043
1.00088
1.0018
1.0037
1.0076
1.01563
1.03217
1.06642
1.13798
1.29039
1.62883
2.44457
4.76875
21.4499
20.5332
19.1975
18.1355
16.9739
18.6505
15.8813
14.6572
13.3421
1
1
1
1
1
1
1
1
1
1
1
1
1.00001
1.00001
1.00002
1.00005
1.0001
1.00021
1.00043
1.00088
1.0018
1.0037
1.0076
1.01562
1.03215
1.06638
1.13789
1.29016
1.62818
2.44319
4.77323
21.3068
20.4582
19.2156
18.0908
17.0553
17.7798
15.4977
15.2624
15.0561
1
1
1
1
1
1
1
1
1
1
1
1
1.00001
1.00001
1.00002
1.00005
1.0001
1.00021
1.00043
1.00088
1.0018
1.0037
1.00761
1.01564
1.03218
1.06642
1.13796
1.2903
1.6284
2.44409
4.78665
21.1905
20.3688
19.2206
18.0589
17.0524
16.9409
15.5442
15.1491
14.9342
1
1
1
1
1
1
1
1
1
1
1
1
1.00001
1.00001
1.00002
1.00005
1.0001
1.00021
1.00043
1.00088
1.00181
1.00371
1.00762
1.01566
1.03223
1.06653
1.13818
1.29074
1.62936
2.44713
4.80955
21.1361
20.2922
19.0354
18.1004
16.9229
16.6346
15.6521
15.1768
14.8391
1
1
1
1
1
1
1
1
1
1
1
1
1.00001
1.00001
1.00002
1.00005
1.0001
1.00021
1.00043
1.00088
1.00181
1.00372
1.00764
1.01571
1.03232
1.0667
1.1385
1.29139
1.63077
2.45139
4.83966
21.1528
20.2406
18.8604
17.8065
16.687
16.2481
15.889
15.1423
14.7158
1
1
1
1
1
1
1
1
1
1
1
1
1.00001
1.00001
1.00002
1.00005
1.0001
1.00021
1.00043
1.00089
1.00182
1.00374
1.00767
1.01576
1.03243
1.06691
1.13894
1.29229
1.6327
2.45681
4.87403
21.1734
20.2408
18.8268
17.5549
16.736
15.8741
15.5532
14.9836
14.6238
1
1
1
1
1
1
1
1
1
1
1
1
1.00001
1.00001
1.00002
1.00005
1.0001
1.00021
1.00044
1.00089
1.00183
1.00376
1.00771
1.01583
1.03257
1.06719
1.13951
1.29348
1.63531
2.46385
4.91348
21.1837
20.2911
18.818
17.39
16.7608
15.5639
15.0341
14.7698
14.6333
1
1
1
1
1
1
1
1
1
1
1
1
1.00001
1.00001
1.00003
1.00005
1.00011
1.00022
1.00044
1.0009
1.00185
1.00379
1.00777
1.01595
1.03278
1.0676
1.1403
1.29508
1.63872
2.47261
4.9575
21.1708
20.3208
18.8026
17.29
16.1517
15.372
14.8347
14.5933
14.7411
1
1
1
1
1
1
1
1
1
1
1
1
1.00001
1.00001
1.00003
1.00005
1.00011
1.00022
1.00045
1.00091
1.00187
1.00383
1.00785
1.0161
1.03307
1.06816
1.14138
1.29721
1.64312
2.48331
5.00572
21.1134
20.3329
18.7515
17.2382
15.9088
15.2352
14.7156
14.4796
14.4493
1
1
1
1
1
1
1
1
1
1
1
1
1.00001
1.00001
1.00003
1.00005
1.00011
1.00022
1.00045
1.00092
1.00189
1.00387
1.00792
1.01625
1.03338
1.06879
1.14266
1.29986
1.64877
2.49689
5.06053
21.0343
20.2574
18.6066
17.2118
15.7392
15.1064
14.6123
14.6642
14.0814
1
1
1
1
1
1
1
1
1
1
1
1
1.00001
1.00001
1.00003
1.00005
1.00011
1.00022
1.00045
1.00093
1.0019
1.0039
1.00799
1.01639
1.03367
1.06938
1.14388
1.30243
1.65447
2.51132
5.12132
21.0867
20.2554
18.5543
17.0192
15.5479
14.9768
14.5097
14.8963
13.895
1
1
1
1
1
1
1
1
1
1
1
1
1.00001
1.00001
1.00003
1.00005
1.00011
1.00022
1.00046
1.00093
1.00191
1.00392
1.00804
1.01649
1.03388
1.06984
1.14489
1.30465
1.65951
2.52421
5.17536
21.1175
20.249
18.6412
16.7736
15.4025
14.8742
14.4202
14.6092
13.8417
1
1
1
1
1
1
1
1
1
1
1
1
1.00001
1.00001
1.00003
1.00005
1.00011
1.00022
1.00045
1.00093
1.00191
1.00393
1.00807
1.01656
1.03403
1.07014
1.14553
1.30612
1.66316
2.53438
5.22043
21.1425
20.1345
18.634
16.606
15.3803
14.871
14.3581
14.438
13.8694
1
1
1
1
1
1
1
1
1
1
1
1
1.00001
1.00001
1.00002
1.00005
1.00011
1.00022
1.00045
1.00092
1.0019
1.0039
1.00803
1.01653
1.03406
1.07029
1.14591
1.3069
1.66487
2.53945
5.2502
21.2187
20.1374
18.0156
16.5545
15.6274
14.7568
14.3085
14.3836
13.8784
1
1
1
1
1
1
1
1
1
1
1
1
1.00001
1.00001
1.00002
1.00005
1.0001
1.00022
1.00044
1.00091
1.00188
1.00386
1.00795
1.01639
1.03383
1.07003
1.14576
1.30713
1.66568
2.54085
5.25542
20.9682
19.9855
17.6299
16.8331
15.2331
14.3487
14.4182
14.3025
13.7916
1
1
1
1
1
1
1
1
1
1
1
1
1.00001
1.00001
1.00002
1.00005
1.0001
1.00021
1.00044
1.00091
1.00186
1.00383
1.00788
1.01622
1.03346
1.06929
1.1445
1.30544
1.66427
2.54122
5.26176
20.7089
19.7502
17.6983
16.5585
14.6853
14.2222
14.4709
14.0974
13.871
1
1
1
1
1
1
1
1
1
1
1
1
1.00001
1.00001
1.00002
1.00005
1.0001
1.00021
1.00044
1.0009
1.00185
1.0038
1.00782
1.0161
1.03318
1.06861
1.14286
1.30178
1.65723
2.53098
5.26806
21.2215
20.0131
17.8684
15.5103
14.5965
14.2929
13.9785
13.7997
13.9297
1
1
1
1
1
1
1
1
1
1
1
1
1.00001
1.00001
1.00002
1.00005
1.0001
1.00021
1.00043
1.00089
1.00183
1.00377
1.00777
1.016
1.03299
1.06819
1.1418
1.29891
1.64913
2.50841
5.20668
21.4997
19.4393
16.939
15.0948
14.616
14.8184
13.6312
13.6705
13.5109
1
1
1
1
1
1
1
1
1
1
1
1
1.00001
1.00001
1.00002
1.00005
1.0001
1.00021
1.00043
1.00088
1.00182
1.00374
1.0077
1.01588
1.03277
1.06779
1.14105
1.29724
1.64445
2.4922
5.12144
20.1582
18.6474
16.6044
14.892
14.8881
14.1987
13.4536
13.5797
13.3949
1
1
1
1
1
1
1
1
1
1
1
1
1.00001
1.00001
1.00002
1.00005
1.0001
1.00021
1.00043
1.00088
1.00181
1.00371
1.00765
1.01575
1.03251
1.0673
1.14017
1.29565
1.64122
2.48346
5.0811
19.3199
18.757
17.2647
15.2762
14.2973
13.3662
13.3589
13.5432
13.3789
1
1
1
1
1
1
1
1
1
1
1
1
1.00001
1.00001
1.00002
1.00005
1.0001
1.00021
1.00043
1.00088
1.0018
1.0037
1.0076
1.01565
1.03228
1.06679
1.13912
1.2936
1.63735
2.47586
5.06079
18.8645
18.6205
17.3124
15.6585
13.3561
13.153
13.3215
13.626
13.3841
1
1
1
1
1
1
1
1
1
1
1
1
1.00001
1.00001
1.00002
1.00005
1.0001
1.00021
1.00042
1.00087
1.00179
1.00368
1.00757
1.01557
1.03208
1.06635
1.13811
1.29137
1.63255
2.46573
5.04083
18.7115
17.6514
15.6012
14.4101
12.9669
12.9663
13.166
13.2349
13.2213
1
1
1
1
1
1
1
1
1
1
1
1
1.00001
1.00001
1.00002
1.00005
1.0001
1.00021
1.00042
1.00087
1.00178
1.00367
1.00754
1.0155
1.03193
1.06599
1.13726
1.28937
1.62775
2.45396
5.00865
18.5131
17.0295
15.2077
13.7606
12.6729
12.7638
12.8424
12.8008
13.1459
1
1
1
1
1
1
1
1
1
1
1
1
1.00001
1.00001
1.00002
1.00005
1.0001
1.00021
1.00042
1.00087
1.00178
1.00365
1.00751
1.01544
1.03179
1.06567
1.13652
1.28757
1.62324
2.44193
4.96932
18.1781
16.6872
14.9984
13.4869
12.4353
12.5207
12.6107
12.6437
13.1943
1
1
1
1
1
1
1
1
1
1
1
1
1.00001
1.00001
1.00002
1.00005
1.0001
1.0002
1.00042
1.00086
1.00177
1.00364
1.00747
1.01536
1.03163
1.06533
1.13577
1.28583
1.61891
2.43005
4.92585
17.7091
16.6001
14.7864
13.2828
12.2965
12.2356
12.3326
12.6115
12.9664
1
1
1
1
1
1
1
1
1
1
1
1
1.00001
1.00001
1.00002
1.00005
1.0001
1.0002
1.00042
1.00086
1.00176
1.00361
1.00743
1.01528
1.03146
1.06497
1.13499
1.2841
1.6148
2.41896
4.88327
17.1739
16.5759
14.5747
13.1308
12.1096
11.9306
12.0608
12.6292
12.5993
1
1
1
1
1
1
1
1
1
1
1
1
1.00001
1.00001
1.00002
1.00005
1.0001
1.0002
1.00041
1.00085
1.00175
1.00359
1.00738
1.01518
1.03126
1.06457
1.13417
1.28232
1.6106
2.40772
4.84079
16.6897
16.0788
14.6684
13.0275
12.0783
11.6431
11.7991
12.0422
12.48
1
1
1
1
1
1
1
1
1
1
1
1
1.00001
1.00001
1.00002
1.00005
1.0001
1.0002
1.00041
1.00084
1.00173
1.00356
1.00732
1.01506
1.03101
1.06406
1.1331
1.28
1.60526
2.39382
4.79083
16.2721
15.5941
14.8792
13.087
12.2946
11.3974
11.5042
11.6713
12.5245
1
1
1
1
1
1
1
1
1
1
1
1
1.00001
1.00001
1.00002
1.00005
1.0001
1.0002
1.00041
1.00083
1.00171
1.00352
1.00723
1.01488
1.03065
1.06332
1.13156
1.27676
1.59814
2.37628
4.73133
15.9221
15.2309
14.0015
12.9342
12.307
11.2759
11.1343
11.5206
12.2406
1
1
1
1
1
1
1
1
1
1
1
1
1.00001
1.00001
1.00002
1.00005
1.00009
1.00019
1.0004
1.00082
1.00168
1.00346
1.00711
1.01463
1.03015
1.06231
1.12952
1.27255
1.58907
2.35431
4.65817
15.6254
14.9247
13.4698
12.0908
11.515
11.1234
10.7388
11.4988
11.3297
1
1
1
1
1
1
1
1
1
1
1
1
1.00001
1.00001
1.00002
1.00005
1.00009
1.00019
1.00039
1.0008
1.00165
1.00339
1.00696
1.01433
1.02953
1.06105
1.12692
1.26708
1.57699
2.32434
4.55749
15.319
14.6093
13.1358
11.9888
11.1908
10.7624
10.2964
11.6311
10.8377
1
1
1
1
1
1
1
1
1
1
1
1
1.00001
1.00001
1.00002
1.00004
1.00009
1.00019
1.00038
1.00078
1.0016
1.00329
1.00677
1.01393
1.02871
1.05932
1.1233
1.25935
1.5598
2.28161
4.41423
15.0055
14.2868
12.8085
12.1972
11.2306
10.7515
9.97621
10.9075
10.2922
1
1
1
1
1
1
1
1
1
1
1
1
1
1.00001
1.00002
1.00004
1.00009
1.00018
1.00037
1.00075
1.00154
1.00317
1.00652
1.01341
1.02763
1.0571
1.11866
1.24948
1.53791
2.22761
4.23692
14.6787
13.9972
12.5627
12.3682
11.665
11.1696
10.0504
9.61609
9.51201
1
1
1
1
1
1
1
1
1
1
1
1
1
1.00001
1.00002
1.00004
1.00008
1.00016
1.00032
1.00065
1.00134
1.00275
1.00564
1.01157
1.02379
1.04902
1.10148
1.21214
1.4527
2.00637
3.51319
13.8532
13.3937
12.2784
11.3268
10.5586
9.74767
9.438
8.70834
6.79359
1
1
1
1
1
1
1
1
1
1
1
1
1
1.00001
1.00001
1.00003
1.00006
1.00012
1.00025
1.00051
1.00103
1.00212
1.00435
1.00893
1.01835
1.0378
1.07816
1.1628
1.34432
1.75277
2.80853
5.55031
12.5642
12.2325
11.3462
10.6526
9.64127
8.52389
7.49291
5.39232
1
1
1
1
1
1
1
1
1
1
1
1
1
1
1.00001
1.00002
1.00004
1.00009
1.00018
1.00036
1.00074
1.00151
1.0031
1.00636
1.01305
1.02682
1.05525
1.11442
1.23954
1.51288
2.16929
3.97034
12.2517
12.0163
11.281
10.6086
9.63128
8.1473
7.12505
5.49391
1
1
1
1
1
1
1
1
1
1
1
1
1
1
1.00001
1.00002
1.00003
1.00006
1.00013
1.00027
1.00056
1.00115
1.00236
1.00484
1.00993
1.0204
1.04197
1.08668
1.1805
1.38249
1.84099
3.07448
11.5742
11.5118
11.0978
10.3084
9.209
7.95639
7.05255
5.75694
1
1
1
1
1
1
1
1
1
1
1
1
1
1
1.00001
1.00001
1.00002
1.00005
1.0001
1.00021
1.00043
1.00088
1.0018
1.00371
1.00763
1.01569
1.0323
1.06666
1.13839
1.29107
1.62977
2.47553
4.67125
10.5039
10.4776
10.0499
9.04547
7.85144
6.89482
6.08196
1
1
1
1
1
1
1
1
1
1
1
1
1
1
1
1.00001
1.00002
1.00003
1.00007
1.00013
1.00028
1.00056
1.00116
1.00237
1.00485
1.00995
1.02043
1.04203
1.08676
1.18048
1.38145
1.8441
3.05221
10.1718
10.0588
9.65392
8.84212
7.93121
6.90074
6.06937
1
1
1
1
1
1
1
1
1
1
1
1
1
1
1
1.00001
1.00001
1.00002
1.00005
1.0001
1.0002
1.00042
1.00086
1.00175
1.0036
1.00739
1.01517
1.03115
1.06405
1.13226
1.27627
1.59331
2.37177
4.28637
9.20599
9.16287
8.86618
8.32639
7.11589
5.84813
1
1
1
1
1
1
1
1
1
1
1
1
1
1
1
1
1.00001
1.00001
1.00003
1.00006
1.00012
1.00025
1.00052
1.00106
1.00218
1.00446
1.00916
1.01884
1.03878
1.08008
1.16642
1.35093
1.77164
2.85217
8.60195
8.57975
8.49937
8.02047
6.76964
5.89102
1
1
1
1
1
1
1
1
1
1
1
1
1
1
1
1
1
1.00001
1.00002
1.00004
1.00008
1.00017
1.00035
1.00071
1.00146
1.003
1.00618
1.01273
1.0263
1.05452
1.11377
1.24031
1.52004
2.20099
3.79623
7.68657
7.65742
7.33214
6.49802
6.17855
1
1
1
1
1
1
1
1
1
1
1
1
1
1
1
1
1
1.00001
1.00001
1.00003
1.00005
1.00011
1.00023
1.00046
1.00094
1.00193
1.00396
1.00813
1.01671
1.03438
1.07089
1.14688
1.30781
1.66626
2.54996
6.07155
7.01987
6.95988
6.6975
6.09347
1
1
1
1
1
1
1
1
1
1
1
1
1
1
1
1
1
1
1.00001
1.00002
1.00004
1.00007
1.00015
1.00031
1.00063
1.0013
1.00266
1.00545
1.01114
1.02275
1.04653
1.09573
1.19922
1.42428
1.95472
3.25399
6.93525
6.81157
6.56109
5.92377
1
1
1
1
1
1
1
1
1
1
1
1
1
1
1
1
1
1
1
1.00001
1.00002
1.00003
1.00007
1.00014
1.00029
1.0006
1.00125
1.00259
1.00539
1.01117
1.023
1.04703
1.09579
1.19614
1.41227
1.88555
3.04939
6.15919
6.10707
5.85308
1
1
1
1
1
1
1
1
1
1
1
1
1
1
1
1
1
1
1
1
1.00001
1.00001
1.00003
1.00006
1.00012
1.00024
1.0005
1.00102
1.0021
1.00434
1.009
1.0187
1.03882
1.08033
1.16628
1.34724
1.74865
2.73795
5.26532
5.26487
1
1
1
1
1
1
1
1
1
1
1
1
1
1
1
1
1
1
1
1
1
1.00001
1.00001
1.00002
1.00005
1.00009
1.00019
1.00039
1.00079
1.00161
1.00329
1.00677
1.01402
1.02924
1.0612
1.1283
1.26963
1.57576
2.31793
4.2508
1
1
1
1
1
1
1
1
1
1
1
1
1
1
1
1
1
1
1
1
1
1
1
1.00001
1.00001
1.00002
1.00004
1.00009
1.00018
1.00035
1.00071
1.00143
1.00287
1.00579
1.0117
1.02377
1.04879
1.10151
1.21453
1.46975
1
1
1
1
1
1
1
1
1
1
1
1
1
1
1
1
1
1
1
1
1
1
1
1
1.00001
1.00002
1.00003
1.00006
1.00013
1.00026
1.00054
1.0011
1.00223
1.00456
1.00933
1.01918
1.03963
1.08247
1.17315
1.37582
1
1
1
1
1
1
1
1
1
1
1
1
1
1
1
1
1
1
1
1
1
1
1
1
1
1.00001
1.00001
1.00003
1.00006
1.00012
1.00024
1.0005
1.00102
1.00205
1.00414
1.00836
1.01695
1.03451
1.0705
1.14472
1
1
1
1
1
1
1
1
1
1
1
1
1
1
1
1
1
1
1
1
1
1
1
1
1
1
1.00001
1.00002
1.00003
1.00007
1.00014
1.00029
1.00059
1.00123
1.00254
1.00521
1.01065
1.02174
1.04454
1.09193
1
1
1
1
1
1
1
1
1
1
1
1
1
1
1
1
1
1
1
1
1
1
1
1
1
1
1.00001
1.00002
1.00003
1.00006
1.00013
1.00025
1.0005
1.001
1.00207
1.00438
1.00938
1.02005
1.04221
1.08648
1
1
1
1
1
1
1
1
1
1
1
1
1
1
1
1
1
1
1
1
1
1
1
1
1
1
1.00001
1.00001
1.00002
1.00004
1.00008
1.00016
1.00031
1.00063
1.00125
1.00251
1.00509
1.01072
1.02361
1.05403
1
1
1
1
1
1
1
1
1
1
1
1
1
1
1
1
1
1
1
1
1
1
1
1
1
1
1
1.00001
1.00002
1.00004
1.00008
1.00015
1.00031
1.00061
1.00125
1.00255
1.00519
1.01047
1.02104
1.04211
1
1
1
1
1
1
1
1
1
1
1
1
1
1
1
1
1
1
1
1
1
1
1
1
1
1
1
1.00001
1.00002
1.00004
1.00007
1.00015
1.00031
1.00063
1.00126
1.00252
1.00508
1.01044
1.02152
1.0443
1
1
1
1
1
1
1
1
1
1
1
1
1
1
1
1
1
1
1
1
1
1
1
1
1
1
1
1.00001
1.00002
1.00003
1.00007
1.00013
1.00027
1.00055
1.00112
1.00226
1.00455
1.00913
1.01798
1.03716
1
1
1
1
1
1
1
1
1
1
1
1
1
1
1
1
1
1
1
1
1
1
1
1
1
1
1
1.00001
1.00002
1.00003
1.00006
1.00012
1.00024
1.0005
1.00105
1.00223
1.0047
1.00969
1.01974
1.03812
1
1
1
1
1
1
1
1
1
1
1
1
1
1
1
1
1
1
1
1
1
1
1
1
1
1
1
1.00001
1.00002
1.00003
1.00007
1.00013
1.00025
1.0005
1.00099
1.00203
1.00424
1.00893
1.01883
1.03927
1
1
1
1
1
1
1
1
1
1
1
1
1
1
1
1
1
1
1
1
1
1
1
1
1
1
1.00001
1.00001
1.00003
1.00005
1.0001
1.00019
1.00037
1.00071
1.00137
1.00262
1.00513
1.01008
1.01995
1.0373
1
1
1
1
1
1
1
1
1
1
1
1
1
1
1
1
1
1
1
1
1
1
1
1
1
1
1
1.00001
1.00002
1.00005
1.00011
1.00022
1.00044
1.00087
1.00171
1.00335
1.00649
1.01261
1.02393
1.04736
1
1
1
1
1
1
1
1
1
1
1
1
1
1
1
1
1
1
1
1
1
1
1
1
1
1
1
1
1
1.00001
1.00002
1.00004
1.00011
1.00027
1.00066
1.00162
1.00386
1.00896
1.02038
1.0455
1
1
1
1
1
1
1
1
1
1
1
1
1
1
1
1
1
1
1
1
1
1
1
1
1
1
1
1
1
1.00001
1.00001
1.00002
1.00005
1.0001
1.0002
1.0004
1.00081
1.00164
1.0033
1.00669
1
1
1
1
1
1
1
1
1
1
1
1
1
1
1
1
1
1
1
1
1
1
1
1
1
1
1
1
1
1.00001
1.00001
1.00002
1.00005
1.0001
1.00021
1.00045
1.00093
1.00192
1.00394
1.00802
1
1
1
1
1
1
1
1
1
1
1
1
1
1
1
1
1
1
1
1
1
1
1
1
1
1
1
1
1
1
1.00001
1.00002
1.00004
1.00008
1.00016
1.00034
1.00075
1.00164
1.00355
1.00757
1
1
1
1
1
1
1
1
1
1
1
1
1
1
1
1
1
1
1
1
1
1
1
1
1
1
1
1
1
1
1.00001
1.00001
1.00002
1.00005
1.00011
1.00024
1.00052
1.0011
1.00231
1.00489
1
1
1
1
1
1
1
1
1
1
1
1
1
1
1
1
1
1
1
1
1
1
1
1
1
1
1
1
1
1
1.00001
1.00001
1.00003
1.00006
1.00012
1.00024
1.00048
1.00096
1.00193
1.00387
1
1
1
1
1
1
1
1
1
1
1
1
1
1
1
1
1
1
1
1
1
1
1
1
1
1
1
1
1
1
1.00001
1.00001
1.00003
1.00006
1.00012
1.00025
1.00051
1.00107
1.0022
1.00452
1
1
1
1
1
1
1
1
1
1
1
1
1
1
1
1
1
1
1
1
1
1
1
1
1
1
1
1
1
1
1.00001
1.00002
1.00003
1.00007
1.00014
1.00029
1.00059
1.00119
1.00241
1.00488
1
1
1
1
1
1
1
1
1
1
1
1
1
1
1
1
1
1
1
1
1
1
1
1
1
1
1
1
1
1
1.00001
1.00002
1.00004
1.00008
1.00017
1.00034
1.00068
1.00138
1.0028
1.00568
1
1
1
1
1
1
1
1
1
1
1
1
1
1
1
1
1
1
1
1
1
1
1
1
1
1
1
1
1
1
1
1
1
1.00001
1.00004
1.0001
1.00026
1.00062
1.00145
1.00332
1
1
1
1
1
1
1
1
1
1
1
1
1
1
1
1
1
1
1
1
1
1
1
1
1
1
1
1
1
1
1
1
0.999999
0.999999
0.999998
0.999996
0.999993
0.999986
0.999975
0.999952
1
1
1
1
1
1
1
1
1
1
1
1
1
1
1
1
1
1
1
1
1
1
1
1
1
1
1
1
1
1
1
1
0.999999
0.999999
0.999997
0.999994
0.999988
0.999975
0.99995
0.999897
1
1
1
1
1
1
1
1
1
1
1
1
1
1
1
1
1
1
1
1
1
1
1
1
1
1
1
1
1
1
1
1
0.999999
0.999998
0.999997
0.999993
0.999986
0.999971
0.999941
0.999879
3.23061
2.38896
2.28034
2.16153
2.12593
2.0657
1.93763
1.67215
1.11452
1.01785
1.02927
1.06125
1.13872
1.1428
1.18529
1.20467
1.21195
1.26728
1.24576
1.16822
1.17238
1.21432
1.38874
1.2646
1.39119
1.32217
1.20729
1.19989
1.45431
1.39406
1.24469
1.43427
1.53816
1.39041
1.32312
1.21047
1.22737
1.31267
1.76823
1.74422
3.34444
2.45528
1.73887
0.889055
0.835574
0.889425
0.873286
0.839701
1.10368
1.08105
1.08323
1.12544
1.17376
1.20589
1.18454
1.21047
1.20286
1.13764
1.25559
1.28388
1.24762
1.31713
1.25251
1.12599
1.19735
1.37886
1.2921
1.29132
1.48909
1.48785
1.2692
1.26365
1.48106
1.63053
1.61321
1.47642
1.50896
1.49783
1.8157
1.16913
3.68353
2.66872
2.39954
2.17105
1.77333
1.19438
1.24407
1.24114
1.2276
1.22884
1.22613
1.22389
1.20702
1.19854
1.19993
1.15991
1.17001
1.17565
1.22836
1.27109
1.22931
1.28035
1.22578
1.22179
1.21489
1.27903
1.11301
1.15173
1.43214
1.47553
1.33758
1.30627
1.25327
1.1888
1.17682
1.33271
1.58164
1.8002
1.35297
1.42985
4.42756
3.15959
2.50492
2.13583
1.74074
1.30161
1.31365
1.36593
1.42003
1.41384
1.38261
1.29992
1.20543
1.18839
1.18833
1.20029
1.17071
1.17049
1.29819
1.30162
1.24984
1.26793
1.25168
1.20802
1.267
1.26364
1.18055
1.17654
1.35956
1.50948
1.2712
1.25599
1.4566
1.58177
1.45347
1.59001
1.63296
1.68202
1.78139
1.55624
4.57205
3.63244
2.74527
2.22374
1.84054
1.63078
1.5471
1.40472
1.39886
1.39043
1.38696
1.3054
1.20297
1.19218
1.19378
1.20131
1.22503
1.24827
1.25397
1.23542
1.25109
1.26726
1.24059
1.22904
1.30504
1.26349
1.22021
1.28504
1.46856
1.366
1.26953
1.23979
1.54129
1.63077
1.28689
1.47362
1.59533
1.43602
1.38615
1.46313
4.58893
3.77988
3.11598
2.44195
2.06931
1.73014
1.55125
1.43838
1.42126
1.39463
1.34231
1.27494
1.20223
1.20201
1.20293
1.20709
1.20938
1.21071
1.2017
1.20595
1.20842
1.26067
1.26739
1.22055
1.24778
1.29953
1.31206
1.27397
1.4244
1.40914
1.44381
1.56238
1.63105
1.60123
1.43845
1.50208
1.49219
1.34484
1.53414
1.48916
4.59398
3.89699
3.23554
2.62371
2.17707
1.79944
1.58169
1.49513
1.44324
1.39368
1.32796
1.26209
1.22672
1.20918
1.20977
1.21108
1.20826
1.19971
1.20444
1.20942
1.2233
1.19459
1.17876
1.27936
1.31265
1.27284
1.34085
1.332
1.28321
1.21536
1.20679
1.23863
1.27192
1.31836
1.4681
1.63905
1.32417
1.45861
1.39066
1.3673
4.64064
3.97703
3.31406
2.71506
2.26934
1.88711
1.64683
1.53161
1.45639
1.40259
1.3447
1.28359
1.23125
1.20936
1.20621
1.20114
1.19728
1.20171
1.20681
1.20789
1.19822
1.23618
1.27168
1.25441
1.26534
1.24914
1.22074
1.19242
1.18901
1.21109
1.21102
1.19675
1.18212
1.28605
1.21665
1.26065
1.55882
1.64946
1.517
1.30176
4.67378
4.00422
3.36786
2.81435
2.37508
1.99042
1.72316
1.60856
1.4616
1.4085
1.36797
1.28362
1.22741
1.2081
1.19711
1.18562
1.1803
1.1807
1.18378
1.19593
1.2226
1.23694
1.22678
1.19639
1.14665
1.15554
1.18025
1.20122
1.19521
1.18499
1.28256
1.28095
1.18735
1.24477
1.23959
1.23205
1.20629
1.29978
1.79024
1.50316
4.65708
4.00365
3.39875
2.90327
2.47443
2.08179
1.81075
1.67447
1.50165
1.4248
1.37699
1.2931
1.24428
1.21549
1.19783
1.18658
1.18507
1.18639
1.18307
1.19007
1.19342
1.15224
1.14263
1.15758
1.14915
1.15139
1.18345
1.26578
1.2946
1.26595
1.27876
1.40963
1.4139
1.33957
1.23724
1.2083
1.19863
1.27752
1.40818
1.8689
4.69404
3.99513
3.41082
2.98232
2.56482
2.17139
1.91202
1.74724
1.60848
1.50726
1.41032
1.29723
1.24375
1.22687
1.21053
1.20152
1.19524
1.17924
1.17361
1.16349
1.13837
1.1313
1.16079
1.17749
1.18853
1.19529
1.26849
1.27696
1.26601
1.23599
1.23697
1.26035
1.24204
1.24031
1.26456
1.07267
1.05777
1.1254
1.40136
1.74622
4.79608
3.96476
3.41457
3.03102
2.64666
2.25745
2.01513
1.86544
1.70269
1.60248
1.48054
1.34083
1.27317
1.24611
1.23354
1.21781
1.19508
1.17881
1.16302
1.14664
1.15127
1.15025
1.15937
1.16683
1.25885
1.28684
1.29804
1.35905
1.42118
1.28497
1.24036
1.26486
1.32071
1.25965
1.25838
1.17961
1.07032
1.24497
1.34772
1.37071
4.70913
3.91639
3.42168
3.02084
2.72516
2.33563
2.0857
1.9187
1.7332
1.59346
1.4966
1.40969
1.33968
1.2759
1.24727
1.23413
1.20796
1.19182
1.18241
1.18614
1.20283
1.22269
1.22413
1.24938
1.26372
1.26461
1.25099
1.27007
1.32689
1.33069
1.20327
1.14762
1.19839
1.26856
1.45825
1.42974
1.38116
1.26816
1.32273
1.21953
4.25081
4.06289
3.36018
3.08379
2.69984
2.47099
2.1815
1.94647
1.78906
1.65659
1.47932
1.39093
1.35388
1.44154
1.34679
1.23711
1.227
1.21603
1.22943
1.19139
1.19593
1.25079
1.26724
1.2166
1.25214
1.25889
1.13824
1.15053
1.22014
1.34149
1.4083
1.50218
1.19941
1.10859
1.21784
1.32918
1.30428
1.39659
1.53706
1.24312
3.81183
3.79674
3.30945
3.09218
2.81351
2.37435
2.28589
2.21044
1.85801
1.66536
1.55348
1.50501
1.42542
1.31907
1.33923
1.34685
1.24939
1.25353
1.26762
1.23963
1.32
1.1755
1.25936
1.32748
1.19815
1.21544
1.37267
1.21646
1.17046
1.20208
1.21992
1.26717
1.68838
1.2168
1.21851
1.27348
1.22396
1.1898
1.45569
1.59716
3.52042
3.45455
3.15548
2.97908
2.87959
2.44529
2.21397
2.11108
2.25557
1.72579
1.58032
1.51311
1.4863
1.54729
1.4108
1.28362
1.28214
1.30045
1.29729
1.41079
1.19779
1.12208
1.24546
1.43741
1.22658
1.1757
1.34292
1.34148
1.17803
1.17253
1.19937
1.23874
1.45491
1.491
1.33058
1.30881
1.28599
1.17955
1.29789
1.3048
1.54355
3.11007
3.02602
2.93142
2.85061
2.45005
2.24002
2.12453
2.22463
1.79434
1.62858
1.56776
1.50628
1.56505
1.61598
1.3887
1.35254
1.33448
1.37091
1.29001
1.19915
1.25985
1.35239
1.28876
1.33679
1.29169
1.2889
1.26577
1.17217
1.09335
1.13197
1.26345
1.18864
1.2349
1.48815
1.48869
1.4139
1.43725
1.28676
1.23299
1.38013
2.60257
2.91873
2.86804
2.78873
2.51851
2.35789
2.37053
1.9999
1.83014
1.72502
1.60868
1.55028
1.6498
1.65323
1.40872
1.50018
1.48014
1.33641
1.31015
1.30364
1.35553
1.25171
1.19339
1.31639
1.29334
1.27029
1.21675
1.23447
1.17148
1.132
1.31195
1.21533
1.10065
1.17476
1.33574
1.44014
1.33757
1.33842
1.39454
1.33018
2.24572
2.71818
2.70753
2.71213
2.61286
2.49388
2.30779
1.94452
1.86581
1.93391
1.78464
1.69196
1.83918
1.62156
1.51332
1.58534
1.72524
1.44774
1.40005
1.3677
1.29253
1.25472
1.22845
1.34214
1.42502
1.24865
1.26484
1.36332
1.15752
1.11838
1.16896
1.52225
1.26527
1.06078
1.1071
1.40812
1.47362
1.34512
1.30251
1.24938
1.97121
2.69361
2.68953
2.65363
2.5977
2.51704
2.15181
2.14972
2.19313
2.00755
1.92878
1.98647
1.86745
1.69754
1.73092
1.75119
1.62008
1.70068
1.44537
1.32352
1.27656
1.24973
1.40216
1.51983
1.39445
1.26963
1.23093
1.43169
1.24906
1.18968
1.20463
1.30686
1.32427
1.14518
1.16651
1.28828
1.49753
1.32983
1.34722
1.15958
1.6258
2.70029
2.73884
2.75612
2.70387
2.40385
2.32974
2.27649
2.15183
2.10516
2.11346
1.93596
1.84382
1.898
1.78036
1.6362
1.63201
1.72763
1.47482
1.37568
1.30646
1.30547
1.47642
1.57458
1.37129
1.21987
1.32104
1.36329
1.14727
1.09406
1.23939
1.53064
1.343
1.15306
1.15673
1.32301
1.59428
1.35969
1.30423
1.16399
1.58667
2.57436
2.69251
2.673
2.58217
2.46341
2.35485
2.2427
2.26333
2.29753
2.06258
1.98251
1.94191
1.80225
1.68432
1.61922
1.7768
1.62617
1.39981
1.53509
1.7266
1.63673
1.42638
1.33507
1.40295
1.68381
1.2885
1.20042
1.21263
1.18613
1.21061
1.47559
1.6357
1.38144
1.3527
1.32865
1.57802
1.56884
1.17336
1.14063
1.50515
2.3263
2.55235
2.53924
2.51783
2.50729
2.36042
2.28036
2.33091
2.31879
2.12979
1.97568
1.83481
1.7565
1.69752
1.80675
1.84549
1.54455
1.52121
1.55529
1.8262
1.6765
1.49063
1.50501
1.47596
1.64486
1.31886
1.18633
1.20971
1.4712
1.56952
1.4236
1.38264
1.56168
1.43946
1.48697
1.4741
1.3816
1.34973
1.13373
1.46165
2.19785
2.59921
2.57191
2.54299
2.48931
2.33464
2.34974
2.41571
2.23319
2.20042
1.99497
1.8426
1.83461
1.99443
1.89992
1.68825
1.69474
1.66121
1.78197
1.8816
1.70248
1.60384
1.49088
1.59568
1.5786
1.46632
1.41341
1.36957
1.55037
1.49923
1.27332
1.32855
1.65834
1.47609
1.41418
1.61291
1.55017
1.1883
1.14663
1.50499
2.03182
2.55074
2.4986
2.44017
2.35896
2.35568
2.47104
2.24763
2.20932
2.17898
2.0159
2.07392
2.15733
1.96247
1.82444
1.80356
1.99838
2.11163
1.76716
1.71582
1.89935
1.74051
1.61642
1.59408
1.59257
1.55173
1.42665
1.48792
1.66019
1.33783
1.27799
1.42067
1.71042
1.57256
1.59662
1.57467
1.48557
1.52172
1.13039
1.47131
2.15994
2.4401
2.50039
2.35606
2.38839
2.46509
2.27792
2.25376
2.26281
2.1844
2.23242
2.20032
2.04248
1.99145
2.03373
2.04353
2.19397
2.01368
1.76047
1.74862
1.94852
1.85765
1.59122
1.5673
1.73701
1.5854
1.44352
1.64808
1.49372
1.3314
1.35973
1.73153
1.82504
1.48673
1.61691
1.54577
1.52389
1.6303
1.15517
1.41536
1.96878
2.07721
2.35608
2.40584
2.46581
2.35837
2.31511
2.32372
2.25526
2.29108
2.25969
2.1478
2.15895
2.20444
2.19046
2.28077
2.07829
1.87282
1.82747
1.82206
2.05663
1.76785
1.60594
1.7121
1.81381
1.53743
1.59721
1.75637
1.43131
1.39223
1.46601
1.89924
1.70293
1.53542
1.60834
1.51112
1.54273
1.63451
1.18515
1.21906
1.2606
1.38117
2.11407
2.28129
2.32579
2.35795
2.34597
2.32118
2.34809
2.33812
2.25316
2.24744
2.24452
2.21262
2.22849
2.19672
1.98484
1.92805
1.93227
2.18876
1.84924
1.68959
1.83871
1.93097
1.64868
1.60208
1.89524
1.83099
1.46658
1.42629
1.60714
2.02271
1.78061
1.61796
1.55035
1.61509
1.48356
1.62789
1.02404
1.08009
1.19115
1.39569
1.87569
2.09958
2.28896
2.35199
2.37424
2.3859
2.34716
2.31917
2.32546
2.27165
2.25327
2.23791
2.2513
2.12977
2.07334
2.21696
2.28268
1.8679
1.76208
1.96742
2.01982
1.66055
1.72432
2.00369
1.804
1.7224
1.88447
1.79849
1.59525
1.56021
1.93927
1.93882
1.56308
1.49337
1.51884
1.70481
1.02866
1.0913
1.19468
1.39874
1.88113
2.00798
2.38389
2.41922
2.4164
2.3639
2.31108
2.33414
2.315
2.2509
2.24446
2.26533
2.19444
2.17633
2.35106
2.25892
1.939
1.86893
2.05722
2.22673
1.73614
1.69204
1.99405
1.9635
1.71102
1.80815
1.9723
1.76139
1.7263
1.69276
1.78025
1.92196
1.46666
1.49068
1.87173
1.88177
1.0284
1.09467
1.2183
1.43888
1.76402
2.15952
2.29217
2.38849
2.39973
2.33912
2.3267
2.28786
2.30952
2.37841
2.27047
2.1602
2.22966
2.54757
2.38537
2.10182
2.06512
2.18794
2.45676
1.87944
1.70084
1.91424
2.09846
1.74646
1.77633
2.0726
1.86612
1.75668
1.6968
1.64682
2.01619
1.83647
1.58719
1.62568
2.03787
1.82443
1.0184
1.06175
1.14725
1.32519
1.83494
2.10519
2.2526
2.37092
2.37705
2.40065
2.39953
2.44868
2.39891
2.29523
2.33567
2.51547
2.55187
2.45045
2.25733
2.23833
2.18025
2.12244
1.97917
1.8759
1.98642
2.17216
1.81148
1.81804
2.07897
1.91681
1.74254
1.69931
1.72327
2.22485
1.92625
1.69487
1.75024
2.45081
2.44101
2.22244
1.01358
1.04646
1.09394
1.20575
1.45415
1.75681
2.24666
2.38344
2.40641
2.45979
2.43374
2.31393
2.20806
2.12777
2.24129
2.22429
2.28717
2.26444
2.26386
2.25692
2.21674
2.06582
2.05163
2.26836
2.07439
1.84568
1.94582
2.18558
1.91753
1.79308
1.79704
2.1938
2.51674
1.97786
2.05281
2.61048
2.44613
2.86376
2.64443
3.0592
1.01634
1.04584
1.09076
1.15412
1.28682
1.56019
2.12933
2.31133
2.36173
2.31182
2.11959
1.87995
1.94733
2.03775
2.08288
1.87958
2.17656
2.25972
2.16746
2.20828
2.23485
2.16062
2.24611
2.14786
1.95449
2.15686
2.17873
1.93159
1.90636
2.26821
2.58506
2.5613
2.19756
2.13297
2.49114
2.68702
2.56592
3.00029
3.34543
3.20389
1.01737
1.04348
1.08364
1.15405
1.30984
1.63905
2.2124
2.33598
2.27438
2.05762
1.79865
1.8679
1.97151
1.9761
1.87583
1.95729
2.06363
2.00465
1.97819
2.27457
2.38265
2.23158
2.1715
2.20733
2.37852
2.15476
2.01084
2.21147
2.70227
2.68192
2.40461
2.56569
2.75505
2.56016
2.4994
3.01385
3.02808
2.78389
3.13358
2.90544
1.02044
1.04485
1.07455
1.13329
1.26121
1.54968
2.23265
2.19293
2.13265
1.99774
1.73517
1.84491
2.03843
1.94115
1.99328
2.25195
2.17209
2.08502
2.10885
2.31042
2.32311
2.22229
2.35898
2.46729
2.26102
2.20248
2.46704
3.07457
2.71307
2.73305
2.94139
2.82744
2.82638
3.03365
3.27147
3.12931
2.92958
3.32874
3.56631
3.39918
1.01368
1.04741
1.05366
1.04474
1.01415
0.933456
0.763882
0.577209
0.489316
0.57921
1.89073
2.04935
2.03255
2.03598
1.87788
1.74663
1.52064
0.954022
2.31828
2.37873
2.44543
2.37023
2.44782
2.62922
3.07128
3.13692
3.18646
2.96992
2.56027
2.56713
2.87533
2.76451
3.02347
3.24736
3.27464
3.63129
3.77438
3.77125
3.67244
3.63838
0.999855
0.999634
0.99926
0.998373
0.996615
0.992745
0.984465
0.969368
0.942947
0.906063
0.819798
0.802632
0.7474
0.721851
0.732428
0.81005
0.938174
0.987953
2.23232
2.24423
2.53744
2.49112
2.50231
2.74247
2.809
2.92014
3.02559
3.37867
4.22405
4.32675
4.24204
4.27143
4.18395
4.00234
3.88287
3.93898
3.89213
3.56257
3.72728
3.78172
0.999632
0.99879
0.997156
0.993947
0.987646
0.977131
0.972869
0.959358
0.931379
0.91948
0.872422
0.848105
0.875776
0.859554
0.839595
0.871466
0.894145
0.961657
1.12739
1.96893
2.19114
2.63431
2.91946
3.64085
3.68203
3.7314
3.51205
3.89694
4.90055
4.82827
4.17168
4.15144
4.36552
3.93978
3.7793
3.91939
3.88341
3.60468
3.93402
3.75419
0.999565
0.998559
0.996542
0.992501
0.984409
0.968224
0.937216
0.914433
0.912575
0.895185
0.889292
0.898115
0.890629
0.884754
0.892792
0.899664
0.923024