/*--------------------------------*- C++ -*----------------------------------*\
  =========                 |
  \\      /  F ield         | OpenFOAM: The Open Source CFD Toolbox
   \\    /   O peration     | Website:  https://openfoam.org
    \\  /    A nd           | Version:  6.0
     \\/     M anipulation  |
\*---------------------------------------------------------------------------*/
FoamFile
{
    version     2.0;
    format      ascii;
    class       volScalarField;
    location    "1";
    object      p;
}
// * * * * * * * * * * * * * * * * * * * * * * * * * * * * * * * * * * * * * //

dimensions      [1 -1 -2 0 0 0 0];

internalField   nonuniform List<scalar> 
192000
(
0.758338
0.653488
0.611402
0.584046
0.566446
0.553516
0.543634
0.535809
0.529456
0.524038
0.519557
0.515515
0.512238
0.508947
0.506662
0.503672
0.503314
0.503702
0.506105
0.510637
0.532377
0.569659
0.706698
1.0269
2.02118
4.66847
5.32283
5.27697
5.12842
4.91147
4.88784
4.91185
4.99507
5.17926
5.36126
5.53342
5.7293
5.98346
6.3633
7.14619
0.758337
0.653489
0.611403
0.584048
0.566444
0.553516
0.543633
0.535809
0.529456
0.524038
0.519557
0.515515
0.512238
0.508948
0.506659
0.503677
0.50328
0.503651
0.50622
0.51012
0.533725
0.56586
0.715375
1.01504
2.0312
4.66589
5.32433
5.27794
5.12778
4.91256
4.88859
4.91243
4.99589
5.17983
5.36138
5.53363
5.73076
5.98358
6.36261
7.14285
0.758337
0.653489
0.611403
0.584048
0.566444
0.553516
0.543633
0.535809
0.529456
0.524038
0.519557
0.515515
0.512238
0.508948
0.506659
0.503677
0.503274
0.503644
0.506208
0.510097
0.533674
0.565724
0.715187
1.01434
2.03094
4.66797
5.32634
5.27908
5.12784
4.91415
4.89033
4.91415
4.99782
5.18135
5.36191
5.53369
5.73144
5.98322
6.36139
7.1391
0.758338
0.653488
0.611402
0.584046
0.566445
0.553516
0.543634
0.535809
0.529456
0.524038
0.519558
0.515515
0.512239
0.508946
0.506663
0.50367
0.503298
0.50368
0.506081
0.510481
0.53237
0.569061
0.706489
1.02495
2.01972
4.6739
5.32854
5.28012
5.12861
4.91636
4.89321
4.91714
5.00085
5.18391
5.363
5.5336
5.73102
5.98238
6.35958
7.13579
0.758338
0.653488
0.611401
0.584045
0.566445
0.553516
0.543634
0.535809
0.529457
0.524038
0.519558
0.515514
0.51224
0.508944
0.506665
0.503666
0.503303
0.503691
0.506018
0.510723
0.531786
0.569733
0.704
1.02674
2.0141
4.67498
5.33142
5.28207
5.13018
4.91982
4.8973
4.92117
5.00487
5.1871
5.36439
5.53378
5.73107
5.98164
6.3572
7.13105
0.758338
0.653488
0.611402
0.584046
0.566445
0.553516
0.543634
0.535809
0.529457
0.524038
0.519558
0.515514
0.51224
0.508946
0.506661
0.503669
0.503268
0.503642
0.50602
0.510376
0.532065
0.568706
0.704753
1.02262
2.01165
4.67072
5.33398
5.28405
5.13208
4.92423
4.90236
4.92638
5.01029
5.19141
5.36592
5.5337
5.73134
5.98041
6.35406
7.12539
0.758337
0.653488
0.611402
0.584047
0.566444
0.553516
0.543633
0.53581
0.529456
0.524038
0.519559
0.515514
0.512239
0.508948
0.506654
0.503681
0.503208
0.503563
0.506101
0.509946
0.532991
0.56544
0.71084
1.01154
2.01371
4.65997
5.33734
5.28735
5.13538
4.93009
4.90863
4.93271
5.017
5.1966
5.3676
5.53374
5.73258
5.97937
6.35041
7.11863
0.758337
0.653488
0.611402
0.584047
0.566444
0.553516
0.543633
0.53581
0.529456
0.524039
0.519558
0.515515
0.512238
0.50895
0.50665
0.503682
0.50321
0.503573
0.505948
0.510199
0.531745
0.567718
0.703646
1.01427
2.00098
4.65035
5.33893
5.28925
5.13946
4.93639
4.91579
4.94028
5.02511
5.20314
5.36975
5.53349
5.73305
5.97764
6.34614
7.11273
0.758337
0.653488
0.611402
0.584048
0.566444
0.553517
0.543632
0.53581
0.529455
0.524039
0.519558
0.515515
0.512237
0.508952
0.506645
0.503693
0.503162
0.503509
0.505966
0.509716
0.532589
0.563834
0.709096
1.00155
1.99826
4.63223
5.34044
5.29181
5.14418
4.94396
4.92417
4.94907
5.0345
5.21093
5.37259
5.53338
5.73354
5.97565
6.34147
7.10679
0.758337
0.653488
0.611402
0.584048
0.566444
0.553517
0.543632
0.535811
0.529455
0.52404
0.519557
0.515516
0.512237
0.508953
0.506642
0.503697
0.503132
0.503473
0.505896
0.509596
0.532259
0.563096
0.707378
0.996382
1.98623
4.61113
5.34187
5.29443
5.14936
4.95206
4.93333
4.95884
5.04512
5.21948
5.37584
5.53328
5.73435
5.97348
6.33655
7.10094
0.758337
0.653488
0.611402
0.584048
0.566444
0.553517
0.543632
0.535811
0.529454
0.52404
0.519557
0.515516
0.512238
0.508952
0.506642
0.503692
0.503124
0.503465
0.505758
0.509807
0.530832
0.565732
0.698168
0.999671
1.96406
4.58681
5.34266
5.29705
5.15545
4.96072
4.94359
4.96978
5.05765
5.2278
5.37919
5.53348
5.73368
5.97072
6.33137
7.09635
0.758337
0.653488
0.611403
0.584049
0.566443
0.553518
0.543631
0.535812
0.529454
0.524041
0.519557
0.515515
0.512238
0.508951
0.50664
0.503697
0.503076
0.503402
0.505774
0.509448
0.531204
0.562456
0.700885
0.986414
1.95186
4.55184
5.3444
5.3007
5.1627
4.97024
4.95459
4.98158
5.0714
5.23612
5.38257
5.53378
5.73231
5.96758
6.32605
7.09255
0.758337
0.653487
0.611403
0.584048
0.566443
0.553518
0.543631
0.535812
0.529453
0.524041
0.519556
0.515515
0.512238
0.508951
0.506637
0.503702
0.503035
0.503353
0.505695
0.509297
0.530722
0.561378
0.698117
0.977787
1.93222
4.5102
5.34669
5.30502
5.17095
4.9803
4.96619
4.994
5.08566
5.2447
5.38605
5.53371
5.73112
5.96403
6.32054
7.08906
0.758337
0.653487
0.611403
0.584048
0.566443
0.553518
0.54363
0.535812
0.529453
0.524042
0.519556
0.515516
0.512237
0.508952
0.506633
0.503708
0.502985
0.503293
0.505572
0.509088
0.530164
0.560078
0.694977
0.968856
1.90898
4.4605
5.34916
5.31
5.18036
4.99103
4.97843
5.00695
5.10011
5.25335
5.38958
5.53324
5.72971
5.96012
6.31484
7.086
0.758338
0.653488
0.611403
0.584048
0.566443
0.553518
0.543629
0.535813
0.529452
0.524043
0.519554
0.515517
0.512236
0.508954
0.506628
0.503716
0.502927
0.503222
0.505402
0.508794
0.529571
0.558394
0.691753
0.959495
1.88194
4.40212
5.3525
5.31627
5.19142
5.00275
4.99121
5.02022
5.11483
5.26209
5.39336
5.53346
5.72716
5.95596
6.3091
7.08356
0.758339
0.653487
0.611402
0.584047
0.566444
0.553518
0.54363
0.535813
0.529451
0.524043
0.519553
0.515519
0.512234
0.508957
0.506622
0.503722
0.502885
0.50317
0.505176
0.508748
0.528031
0.559594
0.682326
0.956148
1.84545
4.33536
5.35626
5.32378
5.20404
5.0154
5.00408
5.03392
5.12941
5.27052
5.39684
5.53355
5.72383
5.95161
6.30349
7.08173
0.75834
0.653487
0.611401
0.584046
0.566444
0.553518
0.54363
0.535813
0.529451
0.524044
0.519552
0.515521
0.512232
0.508961
0.506614
0.503733
0.502829
0.503097
0.505013
0.50849
0.527182
0.558078
0.677629
0.944602
1.81064
4.25599
5.36054
5.33291
5.21862
5.02895
5.01729
5.04799
5.14339
5.2785
5.3995
5.53271
5.71993
5.94701
6.29785
7.08058
0.758339
0.653487
0.611402
0.584046
0.566443
0.553518
0.543629
0.535813
0.529449
0.524045
0.51955
0.515523
0.512228
0.508968
0.506603
0.503748
0.502759
0.503013
0.504843
0.508111
0.526551
0.555068
0.674512
0.927688
1.77545
4.16229
5.36652
5.34383
5.23536
5.04319
5.03094
5.06188
5.15629
5.28561
5.40154
5.53096
5.71543
5.94201
6.29196
7.08
0.758338
0.653488
0.611402
0.584048
0.566442
0.553518
0.543627
0.535814
0.529448
0.524047
0.519547
0.515527
0.512223
0.508976
0.506589
0.503771
0.502679
0.502915
0.504768
0.507691
0.526272
0.551318
0.672688
0.906937
1.73972
4.05145
5.37656
5.35781
5.25437
5.05797
5.04473
5.0756
5.16802
5.29174
5.40282
5.5285
5.71023
5.93639
6.28567
7.0797
0.758338
0.653487
0.611402
0.584048
0.566442
0.553518
0.543627
0.535815
0.529447
0.524048
0.519545
0.51553
0.512217
0.508985
0.506574
0.503792
0.502611
0.502832
0.50457
0.507337
0.525248
0.548787
0.668023
0.887214
1.69829
3.92537
5.39105
5.3754
5.27433
5.07335
5.05839
5.08872
5.17829
5.29675
5.4033
5.52552
5.7043
5.92997
6.27869
7.07912
0.758339
0.653487
0.611402
0.584046
0.566443
0.553518
0.543627
0.535815
0.529446
0.52405
0.519543
0.515533
0.512213
0.508991
0.506564
0.503801
0.502565
0.50277
0.504307
0.507117
0.523754
0.547586
0.659929
0.870803
1.64911
3.78463
5.4085
5.39593
5.29544
5.08912
5.07127
5.10078
5.18682
5.3004
5.40298
5.52232
5.69774
5.92264
6.27086
7.07797
0.758338
0.653488
0.611402
0.584046
0.566443
0.553518
0.543627
0.535815
0.529445
0.524051
0.519541
0.515536
0.512209
0.508997
0.506552
0.503818
0.502505
0.502691
0.50415
0.506824
0.522793
0.545679
0.653131
0.852034
1.59731
3.62659
5.4301
5.4202
5.31813
5.10369
5.08313
5.11149
5.19362
5.30265
5.40151
5.51839
5.69046
5.91438
6.26206
7.07619
0.758337
0.653488
0.611401
0.584047
0.566443
0.553519
0.543626
0.535816
0.529444
0.524052
0.519539
0.515539
0.512204
0.509006
0.506537
0.503839
0.502437
0.50261
0.503963
0.506512
0.521677
0.543266
0.646907
0.829958
1.54483
3.4496
5.45786
5.44866
5.34169
5.11583
5.09359
5.1205
5.19849
5.30349
5.39863
5.51321
5.68195
5.90507
6.252
7.0736
0.758336
0.653489
0.611402
0.584047
0.566443
0.553519
0.543626
0.535816
0.529443
0.524054
0.519537
0.515543
0.512199
0.509015
0.50652
0.503862
0.502369
0.502528
0.503803
0.506225
0.520712
0.541162
0.640109
0.809497
1.48878
3.25364
5.49028
5.47897
5.36428
5.12526
5.10192
5.12743
5.20145
5.30286
5.39439
5.50665
5.67185
5.89459
6.24041
7.06998
0.758333
0.653491
0.611402
0.584049
0.566442
0.553519
0.543624
0.535817
0.529442
0.524055
0.519535
0.515546
0.512193
0.509024
0.506504
0.503885
0.502301
0.502447
0.503689
0.505901
0.520073
0.538817
0.634418
0.787561
1.43487
3.0437
5.52293
5.50709
5.3836
5.13312
5.10837
5.13246
5.20258
5.30074
5.38862
5.49839
5.65997
5.88243
6.22714
7.06503
0.758332
0.653491
0.611402
0.584049
0.566442
0.55352
0.543624
0.535818
0.529441
0.524057
0.519533
0.51555
0.512188
0.509034
0.506487
0.503907
0.502237
0.502367
0.503481
0.505676
0.518912
0.537534
0.626707
0.773218
1.37645
2.83567
5.54358
5.52331
5.39679
5.14237
5.11334
5.13564
5.20209
5.29694
5.38117
5.48841
5.64595
5.86818
6.21176
7.05836
0.75833
0.653492
0.611402
0.584049
0.566442
0.55352
0.543624
0.535819
0.52944
0.52406
0.519531
0.515554
0.512182
0.509043
0.50647
0.50393
0.502171
0.502288
0.503318
0.505418
0.51805
0.535824
0.620822
0.757248
1.33587
2.66037
5.5381
5.51725
5.4017
5.15339
5.11618
5.13683
5.20051
5.29153
5.37188
5.47676
5.62959
5.85132
6.19359
7.04913
0.758327
0.653494
0.611402
0.58405
0.566442
0.55352
0.543624
0.53582
0.529439
0.524062
0.519528
0.515558
0.512175
0.509053
0.506453
0.503954
0.502099
0.502196
0.503206
0.505074
0.517466
0.533604
0.616564
0.740824
1.30162
2.54127
5.4799
5.50462
5.39707
5.15911
5.11673
5.13656
5.19738
5.28442
5.36054
5.46319
5.61073
5.83143
6.17208
7.03666
0.758327
0.653494
0.611401
0.58405
0.566442
0.55352
0.543624
0.535821
0.529439
0.524064
0.519525
0.515563
0.512168
0.509064
0.506435
0.503977
0.502039
0.502128
0.503011
0.504926
0.516464
0.532676
0.610166
0.732271
1.2589
2.45335
5.40004
5.48587
5.38644
5.1591
5.11557
5.13479
5.19277
5.27556
5.34728
5.44722
5.58888
5.80792
6.14646
7.0199
0.758325
0.653495
0.611402
0.58405
0.566442
0.55352
0.543624
0.535822
0.529438
0.524066
0.519522
0.515568
0.512161
0.509075
0.506415
0.504003
0.501977
0.502055
0.502866
0.504701
0.515724
0.531207
0.605461
0.72123
1.22752
2.37299
5.31186
5.45947
5.37059
5.15692
5.11308
5.1314
5.18659
5.26469
5.33196
5.42849
5.56386
5.78037
6.11609
6.99777
0.758323
0.653497
0.611403
0.584051
0.566442
0.55352
0.543624
0.535821
0.529437
0.524067
0.51952
0.515572
0.512153
0.509087
0.506395
0.504029
0.501912
0.501973
0.502779
0.504343
0.515254
0.528941
0.60254
0.704404
1.21092
2.28851
5.22079
5.43081
5.34958
5.15111
5.10938
5.1267
5.17856
5.25176
5.31456
5.40651
5.53485
5.74771
6.07954
6.96855
0.758323
0.653497
0.611404
0.584051
0.566443
0.553519
0.543624
0.535822
0.529436
0.524069
0.519517
0.515577
0.512145
0.5091
0.506376
0.504053
0.501858
0.501911
0.502646
0.504141
0.514595
0.527769
0.597929
0.695371
1.18213
2.21854
5.11742
5.3991
5.32519
5.14277
5.10392
5.12022
5.16859
5.23649
5.29454
5.38118
5.50176
5.70917
6.03569
6.93031
0.758325
0.653496
0.611403
0.584049
0.566444
0.553518
0.543625
0.535822
0.529436
0.524071
0.519514
0.515582
0.512137
0.509112
0.506357
0.504076
0.5018
0.501842
0.502498
0.503952
0.513793
0.526204
0.594041
0.684078
1.1579
2.14665
5.00468
5.36541
5.30008
5.13437
5.09738
5.11251
5.15686
5.21881
5.27147
5.35192
5.46363
5.66314
5.98256
6.88021
0.758329
0.653495
0.611402
0.584046
0.566445
0.553517
0.543626
0.535821
0.529436
0.524073
0.519511
0.515587
0.51213
0.509124
0.506337
0.5041
0.501738
0.50177
0.502326
0.50388
0.512897
0.525761
0.588418
0.683634
1.11633
2.09086
4.87039
5.32943
5.27412
5.12622
5.08976
5.10323
5.14278
5.19827
5.24511
5.31833
5.42011
5.6083
5.91816
6.81452
0.758332
0.653494
0.611402
0.584044
0.566445
0.553515
0.543627
0.53582
0.529437
0.524072
0.51951
0.51559
0.512124
0.509134
0.50632
0.504121
0.501678
0.501696
0.50219
0.503672
0.512231
0.524491
0.584437
0.67573
1.08861
2.02361
4.72842
5.29335
5.24808
5.11851
5.08094
5.09225
5.12606
5.1745
5.21504
5.2797
5.36992
5.54274
5.83934
6.7277
0.758334
0.653495
0.611402
0.584044
0.566443
0.553515
0.543627
0.535819
0.529437
0.524072
0.51951
0.515591
0.51212
0.509142
0.506306
0.504139
0.501625
0.501627
0.502072
0.503364
0.511692
0.522392
0.581951
0.658809
1.07863
1.94061
4.58309
5.25497
5.22049
5.1107
5.0701
5.07874
5.10585
5.14686
5.18083
5.23583
5.31283
5.46549
5.74279
6.6116
0.758338
0.653494
0.611401
0.584042
0.566442
0.553516
0.543624
0.535823
0.529434
0.524076
0.519506
0.515596
0.512114
0.50915
0.506293
0.50415
0.501598
0.50151
0.501929
0.503233
0.510717
0.521041
0.576656
0.649956
1.04295
1.87446
4.41653
5.21643
5.19278
5.10295
5.05595
5.06156
5.08119
5.1144
5.1415
5.18472
5.2465
5.37321
5.62197
6.4537
0.758348
0.653487
0.611399
0.584042
0.566438
0.553522
0.543618
0.535831
0.529425
0.524086
0.519495
0.515609
0.5121
0.509166
0.506275
0.504163
0.501573
0.501337
0.501683
0.503839
0.507402
0.527604
0.553836
0.692467
0.933782
1.88107
4.19333
5.17948
5.16639
5.09395
5.03773
5.03929
5.05074
5.0754
5.09564
5.12567
5.16955
5.26521
5.4678
6.23354
0.75835
0.653487
0.611398
0.58404
0.566438
0.553523
0.543616
0.535834
0.529423
0.52409
0.519491
0.515614
0.512093
0.509175
0.506262
0.50417
0.501547
0.501208
0.50152
0.503671
0.506902
0.526602
0.551278
0.683454
0.899055
1.80169
3.97106
5.14164
5.13742
5.07912
5.01234
5.00639
5.01178
5.02609
5.03931
5.05428
5.07615
5.13392
5.26844
5.91844
0.75835
0.653488
0.611398
0.584039
0.566438
0.553522
0.543617
0.535834
0.529422
0.524091
0.519489
0.515616
0.51209
0.509179
0.506256
0.50417
0.501534
0.501071
0.501355
0.50334
0.50638
0.524889
0.548182
0.671672
0.87155
1.70918
3.73139
5.10484
5.10877
5.05622
4.97836
4.95978
4.96013
4.96391
4.96744
4.96658
4.96208
4.97226
5.00373
5.4381
1.05253
1.04336
1.01973
0.992485
0.973632
0.957354
0.944586
0.933979
0.925036
0.917289
0.910758
0.904785
0.899835
0.894896
0.8913
0.887058
0.887118
0.888272
0.891618
0.90697
0.933634
1.03852
1.242
1.90312
3.69593
8.57864
9.17494
9.0173
8.64923
8.4024
8.41425
8.49661
8.70992
9.02399
9.30793
9.57928
9.86124
10.2189
10.7408
11.54
1.05252
1.04336
1.01973
0.992486
0.973631
0.957355
0.944586
0.93398
0.925035
0.91729
0.910758
0.904785
0.899834
0.894898
0.891296
0.887056
0.8871
0.888079
0.893167
0.903627
0.94273
1.02072
1.26889
1.87269
3.71299
8.57417
9.17486
9.0168
8.64809
8.40315
8.41517
8.49799
8.71199
9.02493
9.30852
9.57971
9.86038
10.2162
10.7383
11.5332
1.05252
1.04336
1.01973
0.992485
0.97363
0.957355
0.944585
0.93398
0.925035
0.91729
0.910758
0.904785
0.899834
0.894897
0.891297
0.887053
0.887095
0.88807
0.893145
0.903591
0.942623
1.02052
1.26838
1.87181
3.71138
8.57339
9.17405
9.01486
8.64651
8.40557
8.41804
8.50119
8.71561
9.02675
9.30904
9.57935
9.85944
10.2138
10.7331
11.5254
1.05253
1.04336
1.01973
0.992484
0.973631
0.957354
0.944586
0.933979
0.925036
0.91729
0.910759
0.904784
0.899837
0.894893
0.891302
0.887047
0.887103
0.888241
0.891587
0.906775
0.933348
1.03775
1.24067
1.90071
3.69013
8.57525
9.17249
9.01173
8.64517
8.41001
8.42316
8.50646
8.72098
9.02962
9.30963
9.57818
9.85834
10.2116
10.7253
11.5172
1.05253
1.04336
1.01972
0.992483
0.973631
0.957354
0.944586
0.93398
0.925037
0.91729
0.91076
0.904783
0.899839
0.89489
0.891306
0.887042
0.887102
0.888243
0.891633
0.906757
0.933265
1.0375
1.2396
1.90026
3.68149
8.56807
9.1696
9.00813
8.64421
8.41531
8.42909
8.51301
8.72811
9.03336
9.31056
9.577
9.85614
10.2072
10.7152
11.505
1.05253
1.04336
1.01973
0.992484
0.973631
0.957353
0.944586
0.93398
0.925037
0.917289
0.91076
0.904782
0.899839
0.89489
0.891304
0.887024
0.887069
0.888163
0.891488
0.906476
0.932796
1.03671
1.23787
1.89565
3.67537
8.55411
9.1657
9.00464
8.64421
8.4218
8.43656
8.52148
8.73763
9.0385
9.31171
9.57513
9.8532
10.2012
10.7026
11.4912
1.05252
1.04336
1.01973
0.992485
0.97363
0.957354
0.944585
0.933981
0.925036
0.91729
0.910759
0.904783
0.899838
0.894893
0.891297
0.887022
0.88699
0.887895
0.892844
0.903174
0.941084
1.01968
1.26128
1.8649
3.67998
8.5282
9.16071
9.00171
8.64577
8.42903
8.44464
8.5309
8.74841
9.04473
9.31299
9.57258
9.84855
10.1931
10.6873
11.4763
1.05253
1.04336
1.01973
0.992485
0.973631
0.957354
0.944585
0.933981
0.925036
0.91729
0.91076
0.904783
0.899838
0.894894
0.891295
0.887013
0.887024
0.888045
0.891508
0.905857
0.932939
1.03308
1.23719
1.8804
3.6556
8.50355
9.15377
8.99743
8.64829
8.43778
8.45469
8.54241
8.76082
9.05213
9.31424
9.56889
9.84341
10.1841
10.6699
11.4628
1.05252
1.04336
1.01973
0.992486
0.97363
0.957355
0.944585
0.933981
0.925035
0.917291
0.910759
0.904784
0.899837
0.894895
0.891289
0.887021
0.886941
0.887855
0.892703
0.90283
0.940713
1.01665
1.25814
1.84789
3.65154
8.46447
9.14467
8.99285
8.6517
8.44735
8.4654
8.55497
8.77371
9.05974
9.31495
9.56387
9.83661
10.1731
10.6506
11.4494
1.05252
1.04336
1.01973
0.992486
0.97363
0.957355
0.944584
0.933981
0.925035
0.917292
0.910759
0.904784
0.899837
0.894895
0.891287
0.887017
0.886895
0.887792
0.892609
0.902592
0.940187
1.01526
1.25495
1.83927
3.62991
8.42012
9.13496
8.9883
8.65589
8.45762
8.47699
8.56876
8.78756
9.06762
9.31524
9.55771
9.82834
10.1605
10.6299
11.4359
1.05253
1.04336
1.01973
0.992485
0.97363
0.957354
0.944584
0.933982
0.925035
0.917293
0.910758
0.904784
0.899838
0.894892
0.891291
0.886995
0.886906
0.887873
0.891212
0.905147
0.931556
1.02884
1.22808
1.85493
3.58989
8.36984
9.12514
8.98416
8.66165
8.46906
8.48968
8.58367
8.80232
9.07483
9.3146
9.55094
9.81887
10.1473
10.608
11.4237
1.05252
1.04336
1.01973
0.992485
0.973629
0.957355
0.944584
0.933984
0.925034
0.917294
0.910757
0.904785
0.899838
0.894891
0.891288
0.886993
0.886818
0.887697
0.892283
0.902207
0.938575
1.01304
1.24542
1.81872
3.57201
8.29981
9.11551
8.98138
8.66869
8.48074
8.50253
8.59872
8.81735
9.08084
9.3127
9.54297
9.80763
10.1327
10.5848
11.412
1.05252
1.04336
1.01973
0.992484
0.973628
0.957355
0.944583
0.933985
0.925033
0.917296
0.910756
0.904785
0.899838
0.894889
0.891287
0.886985
0.886761
0.887617
0.892259
0.901762
0.938156
1.01042
1.24121
1.80178
3.53887
8.21987
9.10741
8.97992
8.67706
8.49292
8.51601
8.6143
8.83264
9.08596
9.30984
9.53336
9.79482
10.1167
10.5606
11.4005
1.05252
1.04336
1.01973
0.992484
0.973628
0.957355
0.944583
0.933985
0.925033
0.917297
0.910755
0.904786
0.899838
0.894887
0.891286
0.886976
0.886683
0.887516
0.89206
0.901371
0.937152
1.00811
1.23552
1.78626
3.49847
8.12691
9.10041
8.97987
8.68742
8.50563
8.53
8.63006
8.84723
9.09017
9.30593
9.52231
9.78048
10.0992
10.5354
11.3891
1.05252
1.04336
1.01973
0.992484
0.973629
0.957354
0.944583
0.933985
0.925033
0.917297
0.910755
0.904786
0.899838
0.894886
0.891284
0.886966
0.886585
0.887391
0.891706
0.900957
0.93572
1.00567
1.22874
1.77207
3.45017
8.01976
9.09474
8.98201
8.69992
8.51885
8.54423
8.64536
8.86057
9.09299
9.3007
9.51
9.76446
10.0805
10.5095
11.3778
1.05253
1.04336
1.01973
0.992483
0.97363
0.957353
0.944584
0.933984
0.925033
0.917298
0.910754
0.904787
0.899838
0.894885
0.891285
0.886949
0.886539
0.887374
0.890289
0.903088
0.926851
1.0171
1.19973
1.78029
3.382
7.89989
9.09069
8.98668
8.71509
8.53283
8.55902
8.66035
8.87251
9.09434
9.2938
9.49649
9.74702
10.0611
10.4832
11.3656
1.05253
1.04336
1.01972
0.992482
0.973631
0.957353
0.944584
0.933984
0.925032
0.917298
0.910753
0.904789
0.899836
0.894888
0.89128
0.886941
0.886453
0.887257
0.890077
0.902548
0.925803
1.01341
1.19259
1.75913
3.32177
7.75918
9.08781
8.99387
8.73305
8.5472
8.57342
8.67457
8.88255
9.09389
9.28497
9.48166
9.72809
10.0407
10.4562
11.3526
1.05253
1.04336
1.01972
0.992482
0.97363
0.957353
0.944584
0.933985
0.925031
0.9173
0.910751
0.904793
0.899831
0.894894
0.891269
0.88694
0.886341
0.887102
0.889795
0.901885
0.924402
1.00974
1.18399
1.73452
3.25734
7.59735
9.08895
9.00453
8.75396
8.56174
8.58752
8.68788
8.89027
9.09165
9.27448
9.46512
9.70745
10.0191
10.4279
11.3386
1.05253
1.04336
1.01973
0.992483
0.973629
0.957354
0.944583
0.933986
0.92503
0.917301
0.910748
0.904797
0.899825
0.894904
0.891253
0.886947
0.886186
0.886863
0.89065
0.898812
0.930181
0.992805
1.19588
1.68205
3.20068
7.40754
9.09631
9.01992
8.7767
8.57582
8.60073
8.69962
8.89504
9.08701
9.262
9.44689
9.685
9.99619
10.3984
11.3231
1.05253
1.04336
1.01973
0.992483
0.973629
0.957354
0.944583
0.933986
0.925029
0.917303
0.910745
0.904802
0.899818
0.894913
0.891238
0.886961
0.886077
0.886701
0.890404
0.898198
0.928632
0.988621
1.18681
1.65307
3.12313
7.19763
9.11113
9.04038
8.80029
8.58944
8.61304
8.70968
8.89701
9.0801
9.24743
9.42679
9.66054
9.97141
10.3671
11.3061
1.05253
1.04336
1.01972
0.992482
0.973631
0.957353
0.944584
0.933986
0.925029
0.917304
0.910743
0.904805
0.899814
0.894919
0.891229
0.886952
0.886038
0.886674
0.888997
0.899951
0.919988
0.997638
1.15507
1.64864
3.02287
6.97068
9.13184
9.06569
8.82558
8.60274
8.62429
8.71769
8.89642
9.07087
9.23081
9.40458
9.63386
9.94444
10.3338
11.2874
1.05253
1.04336
1.01972
0.992481
0.973632
0.957354
0.944584
0.933986
0.925029
0.917305
0.910741
0.904808
0.899808
0.894926
0.891215
0.886966
0.885937
0.886547
0.888814
0.899274
0.918923
0.992601
1.14598
1.61524
2.93149
6.7138
9.15939
9.09632
8.85212
8.61413
8.6334
8.72274
8.89287
9.05906
9.21188
9.38032
9.60487
9.91514
10.298
11.2668
1.05253
1.04336
1.01973
0.992482
0.973632
0.957354
0.944584
0.933987
0.925028
0.917307
0.910739
0.904812
0.899803
0.894936
0.891195
0.886985
0.885805
0.886373
0.888394
0.898751
0.916757
0.989585
1.13267
1.58509
2.8326
6.43176
9.19461
9.13185
8.87891
8.6227
8.63962
8.72432
8.8857
9.04452
9.19043
9.35386
9.57343
9.88338
10.2594
11.2436
1.05252
1.04336
1.01973
0.992483
0.973632
0.957354
0.944584
0.933988
0.925027
0.917308
0.910736
0.904816
0.899796
0.894947
0.891173
0.887009
0.885675
0.88621
0.888173
0.89801
0.91545
0.984918
1.12154
1.55238
2.73195
6.12578
9.23495
9.17048
8.90444
8.62844
8.64282
8.72283
8.87552
9.02737
9.16654
9.32489
9.53905
9.84881
10.2176
11.2173
1.05252
1.04336
1.01973
0.992485
0.973632
0.957355
0.944583
0.933989
0.925026
0.91731
0.910734
0.90482
0.899789
0.894958
0.89115
0.887035
0.885541
0.886049
0.888549
0.89611
0.918206
0.973145
1.1238
1.50176
2.6408
5.79659
9.27704
9.20793
8.92516
8.63079
8.64254
8.71765
8.86206
9.00734
9.13985
9.29318
9.50139
9.81085
10.1721
11.1868
1.05252
1.04335
1.01973
0.992485
0.973633
0.957356
0.944583
0.93399
0.925025
0.917312
0.910731
0.904825
0.899782
0.894969
0.891128
0.887055
0.885414
0.885884
0.88767
0.896698
0.912729
0.976483
1.10023
1.48875
2.53116
5.47444
9.30986
9.23539
8.93927
8.63154
8.63947
8.70875
8.84562
8.9844
9.1101
9.25838
9.46013
9.76886
10.1224
11.1512
1.05252
1.04335
1.01973
0.992487
0.973632
0.957357
0.944583
0.933991
0.925024
0.917315
0.910728
0.90483
0.899775
0.89498
0.891106
0.887078
0.885282
0.885719
0.887415
0.896036
0.911398
0.972391
1.08996
1.4609
2.44334
5.17584
9.32313
9.24195
8.94471
8.6312
8.63314
8.69717
8.8268
8.95861
9.07703
9.22013
9.41475
9.72212
10.0677
11.1101
1.05252
1.04335
1.01973
0.992489
0.973631
0.957359
0.944581
0.933994
0.925021
0.917319
0.910724
0.904836
0.899766
0.894992
0.891083
0.887102
0.885144
0.885552
0.887741
0.894099
0.914127
0.960942
1.09337
1.41599
2.36869
4.91475
9.30078
9.23057
8.9434
8.62561
8.62208
8.68265
8.80535
8.92984
9.0405
9.17808
9.36478
9.66974
10.0067
11.062
1.05252
1.04335
1.01973
0.992489
0.973631
0.95736
0.94458
0.933996
0.925019
0.917324
0.910718
0.904843
0.899756
0.895006
0.891059
0.887126
0.885014
0.885387
0.886913
0.894758
0.908796
0.964703
1.07052
1.41029
2.27375
4.68977
9.25389
9.20252
8.93591
8.61327
8.6076
8.66535
8.78108
8.89785
9.00049
9.1318
9.30968
9.61106
9.93823
11.0051
1.05252
1.04335
1.01973
0.992491
0.973629
0.957362
0.944579
0.933999
0.925016
0.917329
0.910711
0.904852
0.899742
0.895023
0.89103
0.887156
0.884878
0.885222
0.886682
0.894114
0.907594
0.960879
1.06184
1.38628
2.20358
4.5028
9.16253
9.15572
8.92275
8.59757
8.59083
8.64555
8.75403
8.8627
8.95698
9.08105
9.24895
9.54502
9.86073
10.9372
1.05251
1.04335
1.01973
0.992495
0.973626
0.957365
0.944575
0.934003
0.925012
0.917334
0.910702
0.904863
0.899726
0.895045
0.890993
0.887199
0.884726
0.885033
0.887121
0.891971
0.911039
0.948145
1.07018
1.33451
2.16422
4.31303
9.04909
9.11008
8.89367
8.57807
8.57187
8.6235
8.72394
8.82405
8.90954
9.02519
9.18204
9.47062
9.77281
10.8557
1.05251
1.04335
1.01973
0.992496
0.973624
0.957366
0.944573
0.934006
0.925008
0.917339
0.910695
0.904873
0.89971
0.895067
0.890957
0.88724
0.884605
0.884896
0.886864
0.891621
0.909692
0.945598
1.06098
1.31208
2.1035
4.14328
8.91769
9.05799
8.85684
8.55596
8.55066
8.59895
8.6909
8.78195
8.85798
8.96395
9.10814
9.38574
9.67189
10.7571
1.05251
1.04336
1.01973
0.992496
0.973622
0.957368
0.944571
0.934008
0.925005
0.917344
0.910688
0.904883
0.899696
0.895088
0.890922
0.887279
0.884464
0.884718
0.886556
0.89095
0.908322
0.941717
1.05377
1.28855
2.04411
3.98652
8.75999
8.99744
8.81771
8.53311
8.52745
8.57184
8.65452
8.73571
8.80177
8.89665
9.02667
9.28875
9.55606
10.6375
1.05252
1.04336
1.01972
0.992494
0.973621
0.957368
0.944569
0.93401
0.925001
0.917348
0.910682
0.904892
0.899682
0.895107
0.890889
0.887314
0.884335
0.884556
0.885737
0.891707
0.902803
0.94691
1.02939
1.29874
1.95361
3.87915
8.55658
8.93043
8.77611
8.51042
8.5028
8.54234
8.61471
8.68523
8.74066
8.82261
8.93674
9.17681
9.42159
10.4903
1.05253
1.04336
1.01972
0.992493
0.97362
0.957369
0.944567
0.934013
0.924997
0.917353
0.910674
0.904901
0.899669
0.895127
0.890856
0.887351
0.884201
0.884391
0.885495
0.891129
0.901626
0.94373
1.02149
1.28077
1.89803
3.74352
8.33152
8.86237
8.73046
8.48821
8.47653
8.50989
8.57071
8.62976
8.67392
8.7412
8.83667
9.04835
9.26525
10.3083
1.05253
1.04336
1.01972
0.99249
0.973619
0.957369
0.944565
0.934015
0.924993
0.917358
0.910667
0.90491
0.899655
0.895145
0.890824
0.887389
0.884074
0.884246
0.885686
0.889443
0.904325
0.932964
1.0303
1.23108
1.88733
3.5683
8.09148
8.79047
8.68132
8.46656
8.44789
8.4738
8.52203
8.5691
8.60115
8.6516
8.72471
8.90068
9.08061
10.0783
1.05253
1.04336
1.01972
0.992486
0.973621
0.957366
0.944566
0.934014
0.924992
0.91736
0.910662
0.904916
0.899644
0.895161
0.890797
0.887415
0.883958
0.884093
0.885425
0.888943
0.903072
0.930016
1.02279
1.21183
1.83569
3.43483
7.81616
8.71811
8.63148
8.44642
8.41494
8.43274
8.46741
8.50196
8.52148
8.55283
8.60005
8.73288
8.86178
9.78417
1.05254
1.04336
1.01972
0.992477
0.973628
0.957357
0.944573
0.934008
0.924997
0.917355
0.910663
0.904916
0.89964
0.895168
0.890779
0.887431
0.883848
0.883937
0.884918
0.889449
0.899089
0.933893
1.00158
1.22466
1.73575
3.35244
7.48675
8.65012
8.58464
8.42597
8.3763
8.38573
8.40615
8.42759
8.43431
8.44421
8.45945
8.54165
8.59736
9.39846
1.05255
1.04336
1.01972
0.992474
0.97363
0.957354
0.944574
0.934006
0.924997
0.917356
0.910661
0.904919
0.899633
0.895178
0.89076
0.88745
0.883734
0.883779
0.884644
0.889046
0.897855
0.93127
0.994821
1.20648
1.67949
3.21116
7.12786
8.58921
8.54079
8.40216
8.33146
8.32962
8.33726
8.34452
8.33795
8.32501
8.30101
8.32385
8.27688
8.88303
1.05255
1.04336
1.01972
0.992475
0.973631
0.957354
0.944574
0.934005
0.924996
0.917356
0.910658
0.904923
0.899626
0.895187
0.890742
0.887464
0.883638
0.883579
0.884366
0.888359
0.896952
0.927894
0.988562
1.18558
1.63025
3.05339
6.73281
8.53901
8.50177
8.37456
8.27953
8.26101
8.25908
8.25272
8.23041
8.19425
8.12717
8.07681
7.88305
8.15533
1.06612
1.10995
1.11434
1.11126
1.10353
1.0929
1.08434
1.07617
1.06886
1.06236
1.05669
1.05134
1.04675
1.04223
1.03864
1.03538
1.03565
1.03768
1.04193
1.06321
1.09687
1.23151
1.49059
2.33349
4.64359
10.9567
11.2028
10.8554
10.2968
10.0978
10.1424
10.2935
10.6188
10.971
11.2694
11.5598
11.8573
12.1918
12.6027
13.108
1.06612
1.10996
1.11433
1.11125
1.10353
1.0929
1.08434
1.07617
1.06886
1.06237
1.05669
1.05134
1.04675
1.04223
1.03863
1.03539
1.03568
1.03734
1.04385
1.05819
1.10861
1.20941
1.52136
2.30495
4.65754
10.9521
11.2004
10.8526
10.2959
10.0995
10.1445
10.2955
10.6217
10.9716
11.2696
11.5603
11.8568
12.1892
12.5985
13.1041
1.06612
1.10996
1.11433
1.11125
1.10353
1.0929
1.08434
1.07617
1.06886
1.06237
1.05669
1.05134
1.04675
1.04223
1.03863
1.03538
1.03567
1.03733
1.04383
1.05815
1.10848
1.20924
1.52072
2.30403
4.65504
10.9482
11.1952
10.8457
10.2932
10.1023
10.1481
10.2997
10.6259
10.9728
11.2694
11.5595
11.8546
12.1843
12.5888
13.097
1.06612
1.10995
1.11433
1.11126
1.10353
1.0929
1.08434
1.07617
1.06886
1.06236
1.05669
1.05134
1.04675
1.04223
1.03864
1.03536
1.03564
1.03764
1.04193
1.06295
1.09658
1.2306
1.48897
2.33065
4.63545
10.9439
11.1874
10.8355
10.2892
10.1063
10.1534
10.3059
10.6317
10.9749
11.2691
11.557
11.8506
12.1769
12.5744
13.0867
1.06612
1.10996
1.11433
1.11125
1.10353
1.0929
1.08434
1.07617
1.06886
1.06236
1.05669
1.05134
1.04676
1.04222
1.03864
1.03535
1.03564
1.03762
1.04254
1.06186
1.09961
1.22409
1.49635
2.32337
4.6277
10.9305
11.1768
10.8239
10.2853
10.1111
10.1597
10.3134
10.6391
10.9774
11.2685
11.5536
11.8448
12.1666
12.5566
13.0724
1.06612
1.10995
1.11433
1.11126
1.10353
1.0929
1.08434
1.07617
1.06886
1.06236
1.05669
1.05134
1.04676
1.04222
1.03865
1.03533
1.0356
1.03751
1.04189
1.06243
1.09604
1.22922
1.48569
2.3251
4.61722
10.9098
11.1631
10.8116
10.2815
10.1165
10.1667
10.3224
10.6479
10.9805
11.2675
11.5489
11.8369
12.1537
12.5352
13.0554
1.06612
1.10996
1.11433
1.11125
1.10353
1.0929
1.08434
1.07617
1.06886
1.06237
1.05669
1.05134
1.04676
1.04222
1.03864
1.03532
1.03557
1.03696
1.04395
1.05652
1.10876
1.20485
1.51756
2.28966
4.61973
10.8763
11.1463
10.7998
10.2787
10.1225
10.1743
10.3323
10.6574
10.9838
11.266
11.5428
11.8266
12.1383
12.5103
13.0361
1.06612
1.10996
1.11433
1.11126
1.10353
1.0929
1.08434
1.07617
1.06886
1.06237
1.05669
1.05134
1.04676
1.04222