/*--------------------------------*- C++ -*----------------------------------*\
  =========                 |
  \\      /  F ield         | OpenFOAM: The Open Source CFD Toolbox
   \\    /   O peration     | Website:  https://openfoam.org
    \\  /    A nd           | Version:  6.0
     \\/     M anipulation  |
\*---------------------------------------------------------------------------*/
FoamFile
{
    version     2.0;
    format      ascii;
    class       surfaceScalarField;
    location    "1";
    object      phi;
}
// * * * * * * * * * * * * * * * * * * * * * * * * * * * * * * * * * * * * * //

dimensions      [1 0 -1 0 0 0 0];

internalField   nonuniform List<scalar> 
9440
(
0.00209995
-3.43845e-16
0.00209995
-2.03575e-15
0.00209995
-5.9901e-15
0.00209995
-1.25602e-14
0.00209995
-2.06602e-14
0.00209995
-2.5268e-14
0.00209995
-1.13144e-14
0.00209995
5.97321e-14
0.00209995
2.77309e-13
0.00209995
8.35081e-13
0.00209995
2.12944e-12
0.00209995
4.93142e-12
0.00209995
1.06673e-11
0.00209995
2.18399e-11
0.00209995
4.25882e-11
0.00209995
7.92895e-11
0.00209995
1.40929e-10
0.00209996
2.38726e-10
0.00209996
3.84333e-10
0.00209996
5.86363e-10
0.00209996
8.46929e-10
0.00209996
1.16519e-09
0.00209996
1.56534e-09
0.00209996
2.18316e-09
0.00209995
3.46256e-09
0.00209995
6.50739e-09
0.00209997
1.34747e-08
0.00210001
2.66847e-08
0.00210037
3.51948e-08
0.00209731
-1.08855e-07
0.00211219
2.01908e-07
0.00199701
5.61391e-05
0.00195683
7.08076e-05
0.00199782
0.000146872
0.00217214
5.01845e-05
0.00267154
-0.000426123
0.00185743
0.000456669
-0.000937013
0.00258023
0.00171799
-0.00248388
0.00231715
0.00209995
-4.77192e-16
0.00209995
-3.03706e-15
0.00209995
-9.65838e-15
0.00209995
-2.19835e-14
0.00209995
-4.09067e-14
0.00209995
-6.47035e-14
0.00209995
-8.32277e-14
0.00209995
-6.35459e-14
0.00209995
8.21645e-14
0.00209995
5.64116e-13
0.00209995
1.85078e-12
0.00209995
4.93205e-12
0.00209995
1.1811e-11
0.00209995
2.6394e-11
0.00209995
5.60602e-11
0.00209995
1.14374e-10
0.00209995
2.25707e-10
0.00209995
4.33077e-10
0.00209995
8.11458e-10
0.00209995
1.4906e-09
0.00209996
2.69468e-09
0.00209996
4.81227e-09
0.00209996
8.52319e-09
0.00209997
1.50391e-08
0.00209999
2.65984e-08
0.00210001
4.76092e-08
0.00210001
8.76706e-08
0.00209991
1.7061e-07
0.0020998
3.72178e-07
0.00209533
8.30725e-07
0.00211165
-1.70616e-06
0.0019924
0.000111785
0.00194608
0.000120467
0.00187184
0.000339691
0.00234195
-0.000264148
0.00254946
-0.000521852
0.00166881
0.000956742
-0.000532482
0.00448897
0.00176077
-0.00482449
0.00468854
0.00209995
-4.88084e-16
0.00209995
-3.4031e-15
0.00209995
-1.17766e-14
0.00209995
-2.90172e-14
0.00209995
-5.98368e-14
0.00209995
-1.11274e-13
0.00209995
-1.92411e-13
0.00209995
-3.10439e-13
0.00209995
-4.57813e-13
0.00209995
-5.78169e-13
0.00209995
-4.83596e-13
0.00209995
3.35636e-13
0.00209995
3.13142e-12
0.00209995
1.07955e-11
0.00209995
2.97198e-11
0.00209995
7.35361e-11
0.00209995
1.70407e-10
0.00209995
3.76814e-10
0.00209995
8.0289e-10
0.00209995
1.6579e-09
0.00209995
3.33061e-09
0.00209994
6.5313e-09
0.00209994
1.25463e-08
0.00209993
2.37093e-08
0.00209994
4.43123e-08
0.00209995
8.24474e-08
0.00209997
1.53886e-07
0.00210002
2.90209e-07
0.0021004
5.62241e-07
0.00209755
8.63496e-07
0.0021122
-1.95248e-06
0.0019946
0.000182568
0.00187617
0.000247894
0.00185371
0.000454034
0.00207142
-0.000477145
-0.000122238
0.00172244
0.00189796
-0.00256823
0.00777546
-0.00182237
0.00163459
0.00172545
0.00674065
0.00209995
-5.77277e-16
0.00209995
-4.16104e-15
0.00209995
-1.48518e-14
0.00209995
-3.79134e-14
0.00209995
-8.20794e-14
0.00209995
-1.63609e-13
0.00209995
-3.11834e-13
0.00209995
-5.77097e-13
0.00209995
-1.04235e-12
0.00209995
-1.83919e-12
0.00209995
-3.16689e-12
0.00209995
-5.30573e-12
0.00209995
-8.59231e-12
0.00209995
-1.32604e-11
0.00209995
-1.88847e-11
0.00209995
-2.27652e-11
0.00209995
-1.56839e-11
0.00209995
2.8451e-11
0.00209995
1.76363e-10
0.00209994
5.87004e-10
0.00209993
1.61807e-09
0.00209992
4.03591e-09
0.00209989
9.41202e-09
0.00209985
2.08462e-08
0.00209978
4.42499e-08
0.00209969
9.05745e-08
0.00209957
1.79523e-07
0.00209937
3.44321e-07
0.0020994
6.43088e-07
0.00209595
6.25594e-07
0.00211094
-4.80579e-06
0.00198322
0.000241789
0.00175496
0.000501398
0.00189547
0.000440585
0.00159683
-0.000247191
0.00162716
0.00129761
0.00335744
-0.00252832
-0.000896953
0.00419034
-0.00303705
0.0042864
0.00398095
0.00209995
-6.40313e-16
0.00209995
-4.87855e-15
0.00209995
-1.80748e-14
0.00209995
-4.74829e-14
0.00209995
-1.06732e-13
0.00209995
-2.23686e-13
0.00209995
-4.52944e-13
0.00209995
-8.97087e-13
0.00209995
-1.74367e-12
0.00209995
-3.32959e-12
0.00209995
-6.2531e-12
0.00209995
-1.15698e-11
0.00209995
-2.11374e-11
0.00209995
-3.82217e-11
0.00209995
-6.85434e-11
0.00209995
-1.22019e-10
0.00209995
-2.15436e-10
0.00209995
-3.7595e-10
0.00209995
-6.43907e-10
0.00209994
-1.06948e-09
0.00209993
-1.68758e-09
0.00209991
-2.43305e-09
0.00209986
-2.91201e-09
0.00209978
-1.8617e-09
0.00209962
3.99175e-09
0.00209933
2.20447e-08
0.00209886
6.68393e-08
0.00209813
1.60654e-07
0.0020975
3.39089e-07
0.00209305
-2.10667e-07
0.00210899
-1.04825e-05
0.00191846
0.000353686
0.00172526
0.000720406
0.00163784
0.000660671
0.000444923
0.000979053
-0.00124188
0.00280406
-0.00377468
0.000856421
-0.000667773
0.00194251
-0.00272603
0.00682705
0.00176882
0.00209995
-8.89642e-16
0.00209995
-6.5218e-15
0.00209995
-2.32996e-14
0.00209995
-5.94345e-14
0.00209995
-1.31682e-13
0.00209995
-2.76388e-13
0.00209995
-5.68895e-13
0.00209995
-1.16028e-12
0.00209995
-2.34713e-12
0.00209995
-4.70209e-12
0.00209995
-9.31422e-12
0.00209995
-1.82291e-11
0.00209995
-3.52532e-11
0.00209995
-6.74308e-11
0.00209995
-1.27767e-10
0.00209995
-2.40283e-10
0.00209995
-4.49403e-10
0.00209995
-8.37366e-10
0.00209995
-1.55615e-09
0.00209994
-2.88488e-09
0.00209993
-5.33015e-09
0.00209991
-9.79484e-09
0.00209987
-1.78524e-08
0.00209979
-3.21903e-08
0.00209963
-5.74157e-08
0.00209932
-1.02031e-07
0.00209874
-1.85073e-07
0.0020977
-3.62071e-07
0.00209649
-7.93746e-07
0.00209097
-3.16441e-06
0.00210813
-2.03472e-05
0.00189183
0.000425422
0.00169028
0.000869338
0.00141953
0.000948093
0.000553904
0.00183067
0.000714603
0.00260201
-0.00159773
0.00372389
-0.000702228
0.000546817
-0.00453205
0.0111122
-0.00226525
0.00209995
-1.97424e-15
0.00209995
-1.22369e-14
0.00209995
-3.82058e-14
0.00209995
-8.95455e-14
0.00209995
-1.86361e-13
0.00209995
-3.71141e-13
0.00209995
-7.30746e-13
0.00209995
-1.441e-12
0.00209995
-2.85739e-12
0.00209995
-5.69684e-12
0.00209995
-1.13971e-11
0.00209995
-2.28185e-11
0.00209995
-4.56015e-11
0.00209995
-9.0768e-11
0.00209995
-1.79673e-10
0.00209995
-3.53385e-10
0.00209995
-6.90431e-10
0.00209995
-1.34037e-09
0.00209995
-2.5875e-09
0.00209995
-4.97217e-09
0.00209994
-9.5224e-09
0.00209992
-1.81973e-08
0.00209989
-3.47425e-08
0.00209983
-6.63748e-08
0.00209972
-1.27291e-07
0.00209951
-2.46779e-07
0.00209909
-4.90897e-07
0.00209828
-1.02951e-06
0.00209735
-2.3246e-06
0.0020914
-7.2346e-06
0.00211386
-3.53004e-05
0.00188871
0.000446331
0.00163213
0.00100835
0.00132089
0.00126083
0.000722572
0.00240514
0.000605755
0.00254792
-0.00119405
0.00607213
-0.00762464
0.00748072
0.00208376
0.00271221
0.00155291
0.00209995
-3.99009e-15
0.00209995
-2.23309e-14
0.00209995
-6.33611e-14
0.00209995
-1.40512e-13
0.00209995
-2.81563e-13
0.00209995
-5.41257e-13
0.00209995
-1.02487e-12
0.00209995
-1.93649e-12
0.00209995
-3.6784e-12
0.00209995
-7.05538e-12
0.00209995
-1.36931e-11
0.00209995
-2.6892e-11
0.00209995
-5.33561e-11
0.00209995
-1.06666e-10
0.00209995
-2.14187e-10
0.00209995
-4.30674e-10
0.00209995
-8.64819e-10
0.00209995
-1.73072e-09
0.00209995
-3.44739e-09
0.00209995
-6.83149e-09
0.00209995
-1.34733e-08
0.00209994
-2.6479e-08
0.00209992
-5.1961e-08
0.00209989
-1.02115e-07
0.00209983
-2.01872e-07
0.00209974
-4.04421e-07
0.00209959
-8.31566e-07
0.0020993
-1.7925e-06
0.00209928
-4.13108e-06
0.00209406
-1.21361e-05
0.00212209
-5.2502e-05
0.00185649
0.000474611
0.0016125
0.00116838
0.0012964
0.00154185
0.000774323
0.00291896
0.000453201
0.00310072
-0.000682367
0.0074605
-0.000401089
0.00713004
-0.000270041
0.0023756
0.000845959
0.00209995
-6.01151e-15
0.00209995
-3.19528e-14
0.00209995
-8.61289e-14
0.00209995
-1.8707e-13
0.00209995
-3.73567e-13
0.00209995
-7.19963e-13
0.00209995
-1.3655e-12
0.00209995
-2.57241e-12
0.00209995
-4.84126e-12
0.00209995
-9.1416e-12
0.00209995
-1.73771e-11
0.00209995
-3.33292e-11
0.00209995
-6.45789e-11
0.00209995
-1.26428e-10
0.00209995
-2.49897e-10
0.00209995
-4.97985e-10
0.00209995
-9.98565e-10
0.00209995
-2.01049e-09
0.00209995
-4.05548e-09
0.00209996
-8.17999e-09
0.00209996
-1.64749e-08
0.00209996
-3.31128e-08
0.00209995
-6.6449e-08
0.00209995
-1.33393e-07
0.00209994
-2.68918e-07
0.00209996
-5.48293e-07
0.00210004
-1.14437e-06
0.00210028
-2.49351e-06
0.00210136
-5.79188e-06
0.00209719
-1.65199e-05
0.00213179
-6.95264e-05
0.00186544
0.000517821
0.00161916
0.00131507
0.00125595
0.00192368
0.000778664
0.00343509
-4.82461e-05
0.00411804
9.13214e-05
0.00729546
0.00122208
0.0060456
0.000216969
0.00328225
0.00113439
0.00209995
-6.51889e-15
0.00209995
-3.34232e-14
0.00209995
-8.69397e-14
0.00209995
-1.88108e-13
0.00209995
-3.8279e-13
0.00209995
-7.61108e-13
0.00209995
-1.49654e-12
0.00209995
-2.92241e-12
0.00209995
-5.67983e-12
0.00209995
-1.10045e-11
0.00209995
-2.12856e-11
0.00209995
-4.11636e-11
0.00209995
-7.97064e-11
0.00209995
-1.54767e-10
0.00209995
-3.01801e-10
0.00209995
-5.91866e-10
0.00209995
-1.16857e-09
0.00209995
-2.32397e-09
0.00209996
-4.65405e-09
0.00209996
-9.375e-09
0.00209996
-1.89628e-08
0.00209997
-3.84431e-08
0.00209999
-7.80104e-08
0.00210002
-1.58456e-07
0.00210007
-3.22914e-07
0.00210018
-6.64112e-07
0.00210046
-1.394e-06
0.00210111
-3.04287e-06
0.00210305
-7.05963e-06
0.00209996
-1.9699e-05
0.00214005
-8.32394e-05
0.00194297
0.000604321
0.0016765
0.00146551
0.0011891
0.00222272
0.000889944
0.00397572
-0.000166583
0.00521561
0.000857649
0.00631491
0.000646634
0.00608838
0.000611168
0.00335239
0.00197332
0.00209995
-4.33087e-15
0.00209995
-2.11417e-14
0.00209995
-5.24542e-14
0.00209995
-1.15601e-13
0.00209995
-2.52067e-13
0.00209995
-5.49279e-13
0.00209995
-1.18618e-12
0.00209995
-2.52384e-12
0.00209995
-5.28324e-12
0.00209995
-1.08934e-11
0.00209995
-2.21735e-11
0.00209995
-4.46715e-11
0.00209995
-8.92914e-11
0.00209995
-1.77459e-10
0.00209995
-3.51316e-10
0.00209995
-6.93991e-10
0.00209995
-1.37028e-09
0.00209996
-2.7093e-09
0.00209996
-5.37384e-09
0.00209996
-1.07094e-08
0.00209997
-2.14635e-08
0.00209998
-4.32666e-08
0.00210002
-8.76803e-08
0.00210009
-1.78536e-07
0.00210022
-3.65508e-07
0.00210046
-7.54991e-07
0.00210094
-1.58717e-06
0.00210191
-3.45188e-06
0.00210434
-7.93897e-06
0.00210201
-2.15936e-05
0.00214548
-9.20456e-05
0.00203125
0.000757081
0.0017491
0.00165347
0.00120141
0.00242331
0.000983121
0.00416513
0.000501311
0.00548
0.000579737
0.00596987
0.000657538
0.00655418
0.000489244
0.00357233
0.00264062
0.00209995
2.00267e-16
0.00209995
2.75175e-15
0.00209995
1.1239e-14
0.00209995
1.96405e-14
0.00209995
5.64128e-15
0.00209995
-8.88957e-14
0.00209995
-4.00343e-13
0.00209995
-1.22999e-12
0.00209995
-3.21927e-12
0.00209995
-7.70342e-12
0.00209995
-1.74259e-11
0.00209995
-3.79828e-11
0.00209995
-8.07417e-11
0.00209995
-1.68721e-10
0.00209995
-3.48359e-10
0.00209996
-7.12927e-10
0.00209996
-1.44887e-09
0.00209996
-2.92756e-09
0.00209996
-5.88819e-09
0.00209997
-1.18063e-08
0.00209998
-2.36457e-08
0.0021
-4.74088e-08
0.00210005
-9.53624e-08
0.00210016
-1.92834e-07
0.00210038
-3.92887e-07
0.00210083
-8.09584e-07
0.00210168
-1.69966e-06
0.00210322
-3.68549e-06
0.00210622
-8.42025e-06
0.00210429
-2.23954e-05
0.0021479
-9.66784e-05
0.00204961
0.000957217
0.00176576
0.00188775
0.00130365
0.00277051
0.00100785
0.00401028
0.00092087
0.00577387
0.000682951
0.00574153
0.000722538
0.0066479
0.000295955
0.00387144
0.00296778
0.00209995
4.55536e-15
0.00209995
2.55785e-14
0.00209995
7.26498e-14
0.00209995
1.56853e-13
0.00209995
2.88873e-13
0.00209995
4.68985e-13
0.00209995
6.60598e-13
0.00209995
7.29063e-13
0.00209995
3.07491e-13
0.00209995
-1.48926e-12
0.00209995
-6.66567e-12
0.00209995
-1.96015e-11
0.00209995
-4.96725e-11
0.00209995
-1.1672e-10
0.00209996
-2.62439e-10
0.00209996
-5.73938e-10
0.00209996
-1.23197e-09
0.00209996
-2.60842e-09
0.00209997
-5.46109e-09
0.00209998
-1.13211e-08
0.00210001
-2.32656e-08
0.00210005
-4.74798e-08
0.00210013
-9.64705e-08
0.00210029
-1.95827e-07
0.00210061
-3.98861e-07
0.00210125
-8.19752e-07
0.0021025
-1.71407e-06
0.0021048
-3.69442e-06
0.00210887
-8.37105e-06
0.00210843
-2.18508e-05
0.00215057
-9.70711e-05
0.0019873
0.00115744
0.00173879
0.00219911
0.00137142
0.00315939
0.00102026
0.00417365
0.00107556
0.00648671
0.00078458
0.00560084
0.000690253
0.00552208
0.000166898
0.00415887
0.00318208
0.00209995
6.25586e-15
0.00209995
3.47339e-14
0.00209995
9.93321e-14
0.00209995
2.26672e-13
0.00209995
4.62756e-13
0.00209995
8.80558e-13
0.00209995
1.58464e-12
0.00209995
2.70208e-12
0.00209995
4.33435e-12
0.00209995
6.41436e-12
0.00209995
8.35069e-12
0.00209995
8.2111e-12
0.00209995
9.25383e-13
0.00209995
-2.55992e-11
0.00209996
-9.88395e-11
0.00209996
-2.79685e-10
0.00209996
-7.01329e-10
0.00209997
-1.65273e-09
0.00209998
-3.75559e-09
0.0021
-8.33347e-09
0.00210005
-1.81694e-08
0.00210012
-3.90455e-08
0.00210027
-8.2874e-08
0.00210052
-1.74163e-07
0.002101
-3.63782e-07
0.00210191
-7.59675e-07
0.00210362
-1.60019e-06
0.00210671
-3.44614e-06
0.00211194
-7.74999e-06
0.00211386
-1.98799e-05
0.00215438
-9.21224e-05
0.00191933
0.00137565
0.00170343
0.00253909
0.00138594
0.00352565
0.00110187
0.00439001
0.0010744
0.00585892
0.000833192
0.00557481
0.000671201
0.00546886
0.000349918
0.0042909
0.00385331
0.00209995
5.42219e-15
0.00209995
3.05302e-14
0.00209995
8.99555e-14
0.00209995
2.16442e-13
0.00209995
4.75642e-13
0.00209995
9.92196e-13
0.00209995
1.9921e-12
0.00209995
3.86628e-12
0.00209995
7.25656e-12
0.00209995
1.31525e-11
0.00209995
2.29546e-11
0.00209995
3.83837e-11
0.00209995
6.0951e-11
0.00209995
9.03585e-11
0.00209996
1.20451e-10
0.00209996
1.29676e-10
0.00209996
5.91686e-11
0.00209997
-2.37398e-10
0.00209999
-1.10847e-09
0.00210001
-3.36507e-09
0.00210007
-8.86337e-09
0.00210018
-2.17809e-08
0.00210039
-5.13519e-08
0.00210078
-1.17641e-07
0.0021015
-2.63709e-07
0.00210282
-5.81809e-07
0.0021052
-1.273e-06
0.00210936
-2.79619e-06
0.00211609
-6.30803e-06
0.00212116
-1.60392e-05
0.00215908
-8.08609e-05
0.00188893
0.00157282
0.00165875
0.00289544
0.00135966
0.00392582
0.00115573
0.00465632
0.001035
0.00543889
0.000844293
0.00566387
0.00066024
0.00560437
0.000461421
0.0043892
0.00433331
0.00209995
3.84044e-15
0.00209995
2.20665e-14
0.00209995
6.71033e-14
0.00209995
1.6842e-13
0.00209995
3.90322e-13
0.00209995
8.67446e-13
0.00209995
1.8722e-12
0.00209995
3.93788e-12
0.00209995
8.07488e-12
0.00209995
1.61351e-11
0.00209995
3.13996e-11
0.00209995
5.94755e-11
0.00209995
1.09576e-10
0.00209995
1.96163e-10
0.00209996
3.40694e-10
0.00209996
5.72563e-10
0.00209996
9.26774e-10
0.00209997
1.43183e-09
0.00209999
2.07119e-09
0.00210002
2.67669e-09
0.00210008
2.65483e-09
0.0021002
3.16339e-10
0.00210043
-8.70429e-09
0.0021009
-3.50683e-08
0.0021018
-1.03847e-07
0.00210354
-2.72495e-07
0.00210676
-6.70939e-07
0.00211243
-1.59571e-06
0.00212126
-3.78385e-06
0.00213026
-1.00504e-05
0.00216543
-6.41087e-05
0.00187478
0.00172122
0.00162636
0.00316882
0.00131592
0.00414514
0.00116009
0.00497397
0.00101393
0.00551891
0.000840509
0.00581359
0.00067589
0.00578768
0.000518515
0.00479346
0.00400951
0.00209995
2.72639e-15
0.00209995
1.58218e-14
0.00209995
4.87256e-14
0.00209995
1.23946e-13
0.00209995
2.92869e-13
0.00209995
6.69572e-13
0.00209995
1.50146e-12
0.00209995
3.31268e-12
0.00209995
7.18754e-12
0.00209995
1.53154e-11
0.00209995
3.20084e-11
0.00209995
6.55401e-11
0.00209995
1.31345e-10
0.00209995
2.57358e-10
0.00209995
4.92529e-10
0.00209996
9.19964e-10
0.00209996
1.67687e-09
0.00209997
2.9851e-09
0.00209998
5.1981e-09
0.00210001
8.86884e-09
0.00210007
1.48271e-08
0.00210019
2.41997e-08
0.00210042
3.81801e-08
0.00210089
5.71122e-08
0.00210181
7.81072e-08
0.00210361
9.01418e-08
0.00210705
6.63423e-08
0.00211338
-4.26683e-08
0.00212376
-3.25262e-07
0.0021378
-1.54082e-06
0.00216906
-3.72662e-05
0.00192026
0.00197484
0.00156875
0.00348821
0.00130503
0.0044847
0.00114397
0.00521528
0.000995305
0.00567089
0.000835646
0.00600377
0.000690152
0.00595708
0.000551521
0.00587113
0.00422822
0.00209995
2.21886e-15
0.00209995
1.27486e-14
0.00209995
3.86668e-14
0.00209995
9.6606e-14
0.00209995
2.24815e-13
0.00209995
5.09973e-13
0.00209995
1.14612e-12
0.00209995
2.56166e-12
0.00209995
5.6875e-12
0.00209995
1.25129e-11
0.00209995
2.72191e-11
0.00209995
5.84558e-11
0.00209995
1.23831e-10
0.00209995
2.58541e-10
0.00209995
5.31378e-10
0.00209995
1.07305e-09
0.00209995
2.12377e-09
0.00209996
4.11008e-09
0.00209997
7.7683e-09
0.00209999
1.43532e-08
0.00210003
2.60183e-08
0.00210013
4.6536e-08
0.00210033
8.2631e-08
0.00210074
1.46336e-07
0.00210157
2.59214e-07
0.00210325
4.61388e-07
0.00210654
8.37153e-07
0.0021127
1.60124e-06
0.00212279
3.37963e-06
0.00213924
7.74349e-06
0.00216041
-5.06544e-06
0.00193234
0.00232746
0.00149919
0.00394509
0.00132588
0.00495856
0.00111166
0.00524712
0.000984096
0.00590975
0.000834972
0.00626908
0.000739903
0.00614203
0.000424192
0.00615325
0.00455721
0.00209995
1.97602e-15
0.00209995
1.11522e-14
0.00209995
3.30162e-14
0.00209995
8.0461e-14
0.00209995
1.82754e-13
0.00209995
4.05798e-13
0.00209995
8.97722e-13
0.00209995
1.99002e-12
0.00209995
4.41841e-12
0.00209995
9.79638e-12
0.00209995
2.16141e-11
0.00209995
4.73215e-11
0.00209995
1.0265e-10
0.00209995
2.20566e-10
0.00209995
4.69758e-10
0.00209995
9.92268e-10
0.00209995
2.0778e-09
0.00209994
4.30337e-09
0.00209994
8.77996e-09
0.00209994
1.75637e-08
0.00209996
3.43265e-08
0.00210002
6.55098e-08
0.00210017
1.22563e-07
0.00210049
2.26741e-07
0.00210112
4.19854e-07
0.00210239
7.89198e-07
0.00210499
1.53062e-06
0.00211018
3.12965e-06
0.00211921
6.92973e-06
0.00213718
1.67617e-05
0.00214624
2.66744e-05
0.00193135
0.00260244
0.00148344
0.00432277
0.00130197
0.00569927
0.00107851
0.00550561
0.000991459
0.00633591
0.000836532
0.00668823
0.000829769
0.00634042
0.000330876
0.00591953
0.00500832
0.00209995
1.70775e-15
0.00209995
9.51384e-15
0.00209995
2.77149e-14
0.00209995
6.66188e-14
0.00209995
1.49394e-13
0.00209995
3.27498e-13
0.00209995
7.15361e-13
0.00209995
1.56839e-12
0.00209995
3.45745e-12
0.00209995
7.65426e-12
0.00209995
1.69679e-11
0.00209995
3.75266e-11
0.00209995
8.25102e-11
0.00209995
1.79905e-10
0.00209995
3.88647e-10
0.00209995
8.32622e-10
0.00209995
1.77317e-09
0.00209994
3.76386e-09
0.00209993
7.97409e-09
0.0020999
1.68346e-08
0.00209987
3.52429e-08
0.00209984
7.26601e-08
0.00209984
1.46621e-07
0.00209998
2.88953e-07
0.00210041
5.58801e-07
0.00210133
1.07543e-06
0.00210311
2.10952e-06
0.00210645
4.35426e-06
0.00211231
9.78595e-06
0.00212898
2.43644e-05
0.00212571
5.6097e-05
0.00194705
0.0029412
0.00158132
0.00471757
0.00120019
0.00554363
0.00109171
0.00586549
0.00101446
0.0071476
0.000827811
0.00736928
0.000900293
0.00648841
0.00034976
0.00634797
0.00557608
0.00209995
1.32916e-15
0.00209995
7.36463e-15
0.00209995
2.13151e-14
0.00209995
5.11572e-14
0.00209995
1.15048e-13
0.00209995
2.53318e-13
0.00209995
5.54989e-13
0.00209995
1.2171e-12
0.00209995
2.67853e-12
0.00209995
5.92228e-12
0.00209995
1.31538e-11
0.00209995
2.93006e-11
0.00209995
6.52604e-11
0.00209995
1.44776e-10
0.00209995
3.18695e-10
0.00209995
6.94236e-10
0.00209995
1.49531e-09
0.00209994
3.18957e-09
0.00209993
6.76407e-09
0.0020999
1.43355e-08
0.00209984
3.04936e-08
0.00209971
6.51511e-08
0.00209949
1.39223e-07
0.00209919
2.95255e-07
0.00209894
6.16875e-07
0.00209908
1.26752e-06
0.00210016
2.58685e-06
0.00210273
5.38455e-06
0.00210636
1.19521e-05
0.00211871
2.94704e-05
0.00209589
7.60379e-05
0.00183985
0.00318487
0.00168564
0.00521728
0.00114301
0.00528355
0.00118082
0.00659264
0.00103823
0.00789245
0.000846365
0.00683544
0.000939313
0.00674267
0.000366942
0.00683303
0.00597868
0.00209995
9.51615e-16
0.00209995
5.24255e-15
0.00209995
1.50906e-14
0.00209995
3.63404e-14
0.00209995
8.28186e-14
0.00209995
1.8587e-13
0.00209995
4.1511e-13
0.00209995
9.24e-13
0.00209995
2.05124e-12
0.00209995
4.5492e-12
0.00209995
1.01025e-11
0.00209995
2.25067e-11
0.00209995
5.03276e-11
0.00209995
1.12799e-10
0.00209995
2.52593e-10
0.00209995
5.62721e-10
0.00209995
1.24178e-09
0.00209994
2.70559e-09
0.00209993
5.81359e-09
0.0020999
1.23411e-08
0.00209985
2.60116e-08
0.00209974
5.48528e-08
0.00209948
1.16664e-07
0.00209889
2.51496e-07
0.00209775
5.49054e-07
0.00209593
1.2074e-06
0.00209395
2.66655e-06
0.00209357
5.95357e-06
0.00209679
1.37357e-05
0.00211159
3.38094e-05
0.00207914
8.79809e-05
0.00176149
0.00294219
0.00156074
0.00514297
0.001257
0.00559561
0.00125712
0.00765725
0.000998074
0.00663927
0.000911547
0.00693255
0.000922948
0.00748794
0.000345272
0.00737045
0.00643645
0.00209995
6.94775e-16
0.00209995
3.75908e-15
0.00209995
1.05893e-14
0.00209995
2.52699e-14
0.00209995
5.80314e-14
0.00209995
1.32804e-13
0.00209995
3.03641e-13
0.00209995
6.90566e-13
0.00209995
1.55798e-12
0.00209995
3.48746e-12
0.00209995
7.76377e-12
0.00209995
1.72494e-11
0.00209995
3.83851e-11
0.00209995
8.57761e-11
0.00209995
1.92617e-10
0.00209995
4.33951e-10
0.00209995
9.77171e-10
0.00209994
2.18824e-09
0.00209992
4.84811e-09
0.0020999
1.05842e-08
0.00209985
2.27304e-08
0.00209976
4.81015e-08
0.00209958
1.00899e-07
0.00209916
2.11956e-07
0.00209811
4.5179e-07
0.0020956
9.89599e-07
0.00209032
2.24753e-06
0.0020818
5.32177e-06
0.00207383
1.33365e-05
0.00208626
3.59506e-05
0.00206338
0.000106855
0.00183147
0.00344016
0.00142025
0.00583853
0.00148637
0.00680345
0.00101599
0.00601069
0.000982537
0.00682649
0.00102312
0.00716445
0.00083166
0.0072396
0.000330495
0.00734067
0.00745924
0.00209995
5.29937e-16
0.00209995
2.78756e-15
0.00209995
7.56189e-15
0.00209995
1.77147e-14
0.00209995
4.09008e-14
0.00209995
9.55124e-14
0.00209995
2.23774e-13
0.00209995
5.20502e-13
0.00209995
1.19578e-12
0.00209995
2.71111e-12
0.00209995
6.07656e-12
0.00209995
1.35076e-11
0.00209995
2.98998e-11
0.00209995
6.61948e-11
0.00209995
1.47142e-10
0.00209995
3.29231e-10
0.00209995
7.41741e-10
0.00209994
1.67882e-09
0.00209993
3.80005e-09
0.00209989
8.55216e-09
0.00209983
1.90241e-08
0.00209973
4.16364e-08
0.00209954
8.94821e-08
0.00209923
1.89259e-07
0.00209861
3.97107e-07
0.00209714
8.39271e-07
0.00209325
1.82795e-06
0.00208346
4.22239e-06
0.00206304
1.06944e-05
0.00204773
3.01909e-05
0.00200383
0.000108676
0.00193597
0.00498794
0.00151915
0.0069088
0.00148982
0.00623533
0.00097802
0.00577188
0.00100715
0.00720449
0.00112081
0.00872855
0.00070306
0.00674793
0.000347423
0.00766052
0.00734311
0.00209995
4.01845e-16
0.00209995
2.01441e-15
0.00209995
5.18301e-15
0.00209995
1.19311e-14
0.00209995
2.81152e-14
0.00209995
6.82055e-14
0.00209995
1.66076e-13
0.00209995
3.99022e-13
0.00209995
9.40334e-13
0.00209995
2.1732e-12
0.00209995
4.93635e-12
0.00209995
1.1055e-11
0.00209995
2.44978e-11
0.00209995
5.39326e-11
0.00209995
1.18474e-10
0.00209995
2.60821e-10
0.00209995
5.77664e-10
0.00209994
1.29017e-09
0.00209993
2.90599e-09
0.0020999
6.58417e-09
0.00209984
1.49332e-08
0.00209971
3.36947e-08
0.00209947
7.51743e-08
0.00209904
1.65094e-07
0.00209836
3.56584e-07
0.00209726
7.61464e-07
0.00209523
1.63173e-06
0.00209047
3.60788e-06
0.00207756
8.61387e-06
0.00205474
2.29307e-05
0.00195272
7.39002e-05
0.00166029
0.00406058
0.00152791
0.0050913
0.00139525
0.005431
0.00103538
0.00595443
0.00108949
0.00824088
0.000973712
0.00953031
0.000638072
0.006868
0.000351513
0.00806205
0.0072228
0.00209995
2.59695e-16
0.00209995
1.24661e-15
0.00209995
3.0693e-15
0.00209995
7.28806e-15
0.00209995
1.86633e-14
0.00209995
4.92199e-14
0.00209995
1.27588e-13
0.00209995
3.20016e-13
0.00209995
7.76697e-13
0.00209995
1.83255e-12
0.00209995
4.22434e-12
0.00209995
9.55554e-12
0.00209995
2.12888e-11
0.00209995
4.68718e-11
0.00209995
1.02336e-10
0.00209995
2.22418e-10
0.00209995
4.83274e-10
0.00209995
1.05449e-09
0.00209994
2.31973e-09
0.00209992
5.15769e-09
0.00209986
1.15909e-08
0.00209974
2.62568e-08
0.00209949
5.9656e-08
0.00209896
1.35134e-07
0.002098
3.03638e-07
0.00209639
6.75487e-07
0.00209402
1.49482e-06
0.00209071
3.34279e-06
0.00208507
7.82393e-06
0.00207734
1.95778e-05
0.00201167
5.19137e-05
0.00117411
0.00292846
0.00152935
0.00521878
0.00136641
0.00631901
0.00117882
0.0066353
0.0011293
0.00891518
0.000705709
0.00708001
0.00058943
0.00710129
0.000313545
0.00852885
0.0076803
0.00209995
-8.44221e-18
0.00209995
-6.62053e-17
0.00209995
-8.71332e-17
0.00209995
1.08983e-15
0.00209995
7.42774e-15
0.00209995
2.96178e-14
0.00209995
9.4163e-14
0.00209995
2.63764e-13
0.00209995
6.81918e-13
0.00209995
1.66906e-12
0.00209995
3.92798e-12
0.00209995
8.97947e-12
0.00209995
2.00824e-11
0.00209995
4.41736e-11
0.00209995
9.59731e-11
0.00209995
2.0674e-10
0.00209995
4.43223e-10
0.00209995
9.49442e-10
0.00209994
2.04076e-09
0.00209993
4.41976e-09
0.00209989
9.67805e-09
0.0020998
2.14676e-08
0.00209958
4.82204e-08
0.0020991
1.09399e-07
0.00209806
2.49755e-07
0.00209601
5.72165e-07
0.00209242
1.3168e-06
0.00208715
3.07066e-06
0.00208111
7.42851e-06
0.00207906
1.87404e-05
0.0020421
4.69453e-05
0.00128193
0.00280451
0.0016029
0.00589613
0.00134031
0.00906743
0.00133193
0.00897873
0.00084449
0.00677182
0.00067488
0.00700368
0.000553475
0.00745399
0.000285898
0.00927083
0.00824554
0.00209995
-1.20176e-16
0.00209995
-5.28457e-16
0.00209995
-9.84951e-16
0.00209995
-7.90706e-16
0.00209995
2.75004e-15
0.00209995
1.77421e-14
0.00209995
6.62049e-14
0.00209995
2.04295e-13
0.00209995
5.68336e-13
0.00209995
1.47662e-12
0.00209995
3.64942e-12
0.00209995
8.67666e-12
0.00209995
1.99999e-11
0.00209995
4.49583e-11
0.00209995
9.90387e-11
0.00209995
2.14721e-10
0.00209995
4.60022e-10
0.00209995
9.77837e-10
0.00209994
2.07085e-09
0.00209993
4.3884e-09
0.0020999
9.34643e-09
0.00209984
2.00895e-08
0.00209969
4.37295e-08
0.00209932
9.66165e-08
0.00209846
2.16892e-07
0.00209652
4.9506e-07
0.00209251
1.1522e-06
0.0020852
2.75813e-06
0.00207445
6.93964e-06
0.00206784
1.83669e-05
0.00204459
4.95493e-05
0.00191355
0.00283203
0.0015732
0.00493649
0.0013067
0.00647555
0.00126735
0.00830566
0.000818353
0.00662407
0.000660981
0.00713031
0.000521936
0.0078962
0.000258754
0.00977896
0.00862042
0.00209995
1.7629e-16
0.00209995
1.13449e-15
0.00209995
3.79939e-15
0.00209995
9.68668e-15
0.00209995
2.23286e-14
0.00209995
5.02737e-14
0.00209995
1.14988e-13
0.00209995
2.70663e-13
0.00209995
6.51394e-13
0.00209995
1.57957e-12
0.00209995
3.80834e-12
0.00209995
9.05166e-12
0.00209995
2.11209e-11
0.00209995
4.8326e-11
0.00209995
1.08493e-10
0.00209995
2.39372e-10
0.00209995
5.20167e-10
0.00209995
1.11611e-09
0.00209994
2.37134e-09
0.00209993
5.00467e-09
0.00209991
1.05284e-08
0.00209987
2.21626e-08
0.00209976
4.68767e-08
0.0020995
1.00082e-07
0.00209888
2.16794e-07
0.00209737
4.79445e-07
0.00209389
1.09182e-06
0.00208656
2.59428e-06
0.00207311
6.58836e-06
0.00205749
1.79705e-05
0.00202446
5.25628e-05
0.00230997
0.00290272
0.00146537
0.00460384
0.00136851
0.00539884
0.0011353
0.00637235
0.000818534
0.00669657
0.000691994
0.00730683
0.000482548
0.00754727
0.000218973
0.00873571
0.00881875
0.00209995
7.20162e-16
0.00209995
4.16265e-15
0.00209995
1.25984e-14
0.00209995
3.04349e-14
0.00209995
6.64296e-14
0.00209995
1.38332e-13
0.00209995
2.83886e-13
0.00209995
5.86232e-13
0.00209995
1.23167e-12
0.00209995
2.63936e-12
0.00209995
5.7485e-12
0.00209995
1.26444e-11
0.00209995
2.79058e-11
0.00209995
6.14716e-11
0.00209995
1.3468e-10
0.00209995
2.92884e-10
0.00209995
6.31615e-10
0.00209995
1.35065e-09
0.00209994
2.86557e-09
0.00209993
6.03862e-09
0.00209991
1.26604e-08
0.00209987
2.64688e-08
0.00209978
5.5346e-08
0.00209959
1.16199e-07
0.00209914
2.46262e-07
0.00209804
5.30932e-07
0.00209539
1.17847e-06
0.00208925
2.74282e-06
0.00207632
6.88908e-06
0.0020563
1.89266e-05
0.00200862
5.75874e-05
0.00202197
0.00295372
0.00147735
0.00471173
0.00138153
0.00557278
0.00111482
0.00650303
0.000867382
0.00684551
0.00070912
0.00745285
0.000474379
0.00770541
0.000220726
0.00902764
0.00950355
0.00209995
1.37475e-15
0.00209995
7.86365e-15
0.00209995
2.36961e-14
0.00209995
5.79579e-14
0.00209995
1.28577e-13
0.00209995
2.70795e-13
0.00209995
5.55355e-13
0.00209995
1.12701e-12
0.00209995
2.28658e-12
0.00209995
4.66682e-12
0.00209995
9.6091e-12
0.00209995
1.99672e-11
0.00209995
4.18143e-11
0.00209995
8.80487e-11
0.00209995
1.85964e-10
0.00209995
3.93063e-10
0.00209995
8.29931e-10
0.00209995
1.74836e-09
0.00209994
3.67219e-09
0.00209993
7.68862e-09
0.00209991
1.60531e-08
0.00209987
3.34558e-08
0.00209978
6.97151e-08
0.00209962
1.45646e-07
0.00209926
3.06365e-07
0.00209844
6.5342e-07
0.0020965
1.4298e-06
0.00209186
3.27254e-06
0.00208109
8.07693e-06
0.0020602
2.20303e-05
0.00200327
6.82556e-05
0.00159177
0.00304691
0.00153272
0.00499636
0.00136652
0.00583171
0.00111015
0.00678589
0.000942539
0.00705541
0.000715348
0.00755306
0.000440024
0.00784965
0.000274524
0.00952846
0.0102688
0.00209995
2.08468e-15
0.00209995
1.1968e-14
0.00209995
3.63325e-14
0.00209995
8.98398e-14
0.00209995
2.01368e-13
0.00209995
4.27379e-13
0.00209995
8.79432e-13
0.00209995
1.7805e-12
0.00209995
3.5818e-12
0.00209995
7.20795e-12
0.00209995
1.45751e-11
0.00209995
2.96881e-11
0.00209995
6.09596e-11
0.00209995
1.26099e-10
0.00209995
2.62369e-10
0.00209995
5.48021e-10
0.00209995
1.14688e-09
0.00209995
2.4007e-09
0.00209994
5.01986e-09
0.00209993
1.04758e-08
0.00209991
2.18093e-08
0.00209986
4.52992e-08
0.00209978
9.39502e-08
0.00209963
1.94943e-07
0.00209932
4.06209e-07
0.00209865
8.55864e-07
0.00209714
1.84562e-06
0.00209357
4.15646e-06
0.00208501
1.00805e-05
0.00206586
2.7158e-05
0.00200768
8.39985e-05
0.00132858
0.00309225
0.00160692
0.00540745
0.0013502
0.006125
0.00110801
0.00715418
0.00100548
0.00732337
0.000718871
0.00762308
0.000428802
0.00797499
0.00033927
0.0104247
0.00974952
0.00209995
2.58972e-15
0.00209995
1.5222e-14
0.00209995
4.74772e-14
0.00209995
1.19797e-13
0.00209995
2.72767e-13
0.00209995
5.86832e-13
0.00209995
1.2224e-12
0.00209995