/*--------------------------------*- C++ -*----------------------------------*\
  =========                 |
  \\      /  F ield         | OpenFOAM: The Open Source CFD Toolbox
   \\    /   O peration     | Website:  https://openfoam.org
    \\  /    A nd           | Version:  6.0
     \\/     M anipulation  |
\*---------------------------------------------------------------------------*/
FoamFile
{
    version     2.0;
    format      ascii;
    class       volScalarField;
    location    "1";
    object      T;
}
// * * * * * * * * * * * * * * * * * * * * * * * * * * * * * * * * * * * * * //

dimensions      [0 0 0 1 0 0 0];

internalField   nonuniform List<scalar> 
4800
(
1
1
1
1
1
1
1
1
1
1
1
1
1
1.00001
1.00001
1.00002
1.00004
1.00009
1.00019
1.00039
1.00079
1.00163
1.00335
1.00689
1.01419
1.02934
1.0612
1.12962
1.2887
1.63279
3.40306
2.21046
2.5199
2.70572
2.80929
2.82116
2.78294
2.97082
3.374
2.64271
1
1
1
1
1
1
1
1
1
1
1
1
1
1.00001
1.00001
1.00002
1.00004
1.00009
1.00019
1.00039
1.00079
1.00163
1.00335
1.00689
1.01419
1.02935
1.0612
1.12964
1.28876
1.6329
3.40412
2.21008
2.52274
2.70808
2.7989
2.86496
2.78119
2.96074
3.08855
2.63381
1
1
1
1
1
1
1
1
1
1
1
1
1
1.00001
1.00001
1.00002
1.00004
1.00009
1.00019
1.00039
1.0008
1.00163
1.00335
1.00689
1.0142
1.02936
1.06122
1.12967
1.28878
1.63316
3.40351
2.21307
2.52318
2.70543
2.81306
2.86492
2.6938
2.7742
2.8642
2.65701
1
1
1
1
1
1
1
1
1
1
1
1
1
1.00001
1.00001
1.00002
1.00004
1.00009
1.00019
1.00039
1.00079
1.00163
1.00335
1.00689
1.0142
1.02936
1.06124
1.12971
1.28884
1.63361
3.40438
2.21691
2.5221
2.7028
2.82853
2.94645
2.71072
2.75011
2.63777
2.50283
1
1
1
1
1
1
1
1
1
1
1
1
1
1.00001
1.00001
1.00002
1.00004
1.00009
1.00019
1.00039
1.00079
1.00163
1.00335
1.00689
1.01419
1.02935
1.06122
1.12969
1.28878
1.63424
3.40404
2.22015
2.52131
2.72333
2.79898
2.92312
2.95652
2.94614
2.45192
2.32494
1
1
1
1
1
1
1
1
1
1
1
1
1
1.00001
1.00001
1.00002
1.00004
1.00009
1.00019
1.00039
1.00079
1.00163
1.00335
1.00688
1.01417
1.02932
1.06115
1.12956
1.28843
1.63485
3.4009
2.22473
2.52477
2.72797
2.82361
2.91154
2.69767
2.79021
2.41311
2.13748
1
1
1
1
1
1
1
1
1
1
1
1
1
1.00001
1.00001
1.00002
1.00004
1.00009
1.00019
1.00039
1.00079
1.00163
1.00334
1.00687
1.01416
1.02929
1.06109
1.12941
1.28799
1.63569
3.39549
2.22808
2.52701
2.73256
2.83815
2.9075
2.6937
2.56001
2.51048
2.58745
1
1
1
1
1
1
1
1
1
1
1
1
1
1.00001
1.00001
1.00002
1.00004
1.00009
1.00019
1.00039
1.00079
1.00163
1.00334
1.00687
1.01416
1.02928
1.06105
1.12933
1.28764
1.63731
3.38824
2.23118
2.52937
2.73734
2.85449
2.88405
2.68439
2.5414
2.45981
2.1755
1
1
1
1
1
1
1
1
1
1
1
1
1
1.00001
1.00001
1.00002
1.00004
1.00009
1.00019
1.00039
1.00079
1.00163
1.00334
1.00688
1.01416
1.02929
1.06107
1.12936
1.28755
1.64005
3.38013
2.23327
2.53201
2.74632
2.86472
2.87068
2.69827
2.58044
2.69411
2.64149
1
1
1
1
1
1
1
1
1
1
1
1
1
1.00001
1.00001
1.00002
1.00004
1.00009
1.00019
1.00039
1.00079
1.00163
1.00335
1.00689
1.01418
1.02932
1.06114
1.12953
1.28774
1.644
3.37181
2.23662
2.53551
2.75808
2.86711
2.87935
2.77265
2.72902
2.78224
2.65381
1
1
1
1
1
1
1
1
1
1
1
1
1
1.00001
1.00001
1.00002
1.00004
1.00009
1.00019
1.00039
1.0008
1.00163
1.00336
1.0069
1.01421
1.02938
1.06126
1.12979
1.28817
1.64897
3.3636
2.24313
2.54187
2.76315
2.87078
2.89444
2.86567
2.86033
2.83936
2.64417
1
1
1
1
1
1
1
1
1
1
1
1
1
1.00001
1.00001
1.00002
1.00004
1.00009
1.00019
1.00039
1.0008
1.00164
1.00337
1.00692
1.01425
1.02946
1.06141
1.13011
1.28873
1.6545
3.35536
2.25387
2.55119
2.76884
2.86043
2.89515
2.89266
2.94573
2.86632
2.6388
1
1
1
1
1
1
1
1
1
1
1
1
1
1.00001
1.00001
1.00002
1.00005
1.00009
1.00019
1.00039
1.0008
1.00164
1.00338
1.00694
1.01429
1.02954
1.06159
1.13049
1.28943
1.66038
3.34702
2.26679
2.56373
2.77893
2.85341
2.89912
2.88826
2.95472
2.86565
2.63015
1
1
1
1
1
1
1
1
1
1
1
1
1
1.00001
1.00001
1.00002
1.00005
1.00009
1.00019
1.00039
1.0008
1.00165
1.00339
1.00696
1.01434
1.02964
1.06179
1.13094
1.29031
1.66657
3.33925
2.28119
2.57861
2.78832
2.85152
2.90182
2.87289
2.93064
2.85714
2.62206
1
1
1
1
1
1
1
1
1
1
1
1
1
1.00001
1.00001
1.00002
1.00005
1.00009
1.00019
1.00039
1.00081
1.00166
1.00341
1.007
1.0144
1.02976
1.06204
1.13147
1.29139
1.67294
3.33254
2.29695
2.59321
2.79647
2.85214
2.8701
2.85992
2.90758
2.83896
2.61341
1
1
1
1
1
1
1
1
1
1
1
1
1
1.00001
1.00001
1.00002
1.00005
1.00009
1.00019
1.0004
1.00081
1.00167
1.00343
1.00704
1.01448
1.02993
1.06236
1.13213
1.29271
1.67943
3.32745
2.31321
2.6082
2.8031
2.85481
2.8583
2.85199
2.89248
2.80968
2.58209
1
1
1
1
1
1
1
1
1
1
1
1
1
1.00001
1.00001
1.00002
1.00005
1.0001
1.0002
1.0004
1.00082
1.00168
1.00345
1.00708
1.01457
1.03009
1.06271
1.13288
1.29432
1.68619
3.3248
2.33012
2.62111
2.80553
2.85946
2.853
2.8469
2.88314
2.78956
2.55167
1
1
1
1
1
1
1
1
1
1
1
1
1
1.00001
1.00001
1.00002
1.00005
1.0001
1.0002
1.0004
1.00082
1.00169
1.00346
1.00711
1.01464
1.03024
1.06302
1.13357
1.29584
1.69237
3.32468
2.35358
2.63801
2.81243
2.85743
2.84754
2.8434
2.87744
2.77536
2.53764
1
1
1
1
1
1
1
1
1
1
1
1
1
1.00001
1.00001
1.00002
1.00005
1.0001
1.0002
1.0004
1.00082
1.00169
1.00347
1.00713
1.01468
1.03035
1.06326
1.1341
1.29707
1.69733
3.32487
2.37844
2.65535
2.82541
2.85256
2.84488
2.84204
2.87423
2.73845
2.53584
1
1
1
1
1
1
1
1
1
1
1
1
1
1.00001
1.00001
1.00002
1.00005
1.00009
1.00019
1.0004
1.00082
1.00169
1.00348
1.00714
1.01471
1.03039
1.06337
1.13439
1.29779
1.70076
3.32478
2.40484
2.66953
2.83549
2.85159
2.84848
2.84599
2.87354
2.71234
2.54458
1
1
1
1
1
1
1
1
1
1
1
1
1
1.00001
1.00001
1.00002
1.00005
1.00009
1.00019
1.0004
1.00082
1.00168
1.00346
1.00713
1.01469
1.0304
1.06339
1.13444
1.29789
1.70221
3.32267
2.43499
2.68768
2.81721
2.85601
2.86758
2.8464
2.87283
2.69791
2.55928
1
1
1
1
1
1
1
1
1
1
1
1
1
1.00001
1.00001
1.00002
1.00005
1.00009
1.00019
1.00039
1.00081
1.00167
1.00343
1.00708
1.01461
1.03029
1.06326
1.13429
1.29759
1.70228
3.31661
2.45608
2.69857
2.80731
2.87791
2.85419
2.82491
2.88031
2.68749
2.57276
1
1
1
1
1
1
1
1
1
1
1
1
1
1.00001
1.00001
1.00002
1.00005
1.00009
1.00019
1.00039
1.00081
1.00166
1.00341
1.00702
1.01449
1.03003
1.06282
1.1336
1.29653
1.70146
3.31044
2.47619
2.70524
2.8183
2.87679
2.82155
2.81921
2.88775
2.67525
2.59885
1
1
1
1
1
1
1
1
1
1
1
1
1
1.00001
1.00001
1.00002
1.00004
1.00009
1.00019
1.00039
1.0008
1.00165
1.00339
1.00698
1.01439
1.0298
1.06226
1.13237
1.29395
1.69733
3.30168
2.52503
2.73317
2.83737
2.82592
2.81716
2.82245
2.861
2.66189
2.62965
1
1
1
1
1
1
1
1
1
1
1
1
1
1.00001
1.00001
1.00002
1.00004
1.00009
1.00019
1.00039
1.0008
1.00164
1.00337
1.00694
1.01432
1.02965
1.06189
1.13139
1.29119
1.69035
3.27685
2.57196
2.72775
2.8005
2.80896
2.81868
2.85675
2.83785
2.66426
2.63518
1
1
1
1
1
1
1
1
1
1
1
1
1
1.00001
1.00001
1.00002
1.00004
1.00009
1.00019
1.00038
1.00079
1.00163
1.00335
1.0069
1.01425
1.02951
1.06162
1.13079
1.28945
1.68599
3.24574
2.5581
2.7034
2.78958
2.80417
2.83732
2.8287
2.82336
2.67789
2.65834
1
1
1
1
1
1
1
1
1
1
1
1
1
1.00001
1.00001
1.00002
1.00004
1.00009
1.00019
1.00038
1.00079
1.00162
1.00333
1.00686
1.01417
1.02935
1.06132
1.13023
1.28812
1.68414
3.22255
2.55581
2.72277
2.82891
2.83008
2.81246
2.77277
2.81387
2.69991
2.68796
1
1
1
1
1
1
1
1
1
1
1
1
1
1.00001
1.00001
1.00002
1.00004
1.00009
1.00019
1.00038
1.00078
1.00161
1.00332
1.00683
1.01409
1.02919
1.06098
1.12954
1.28664
1.68259
3.20217
2.56803
2.74008
2.85028
2.86279
2.75326
2.7619
2.80872
2.72909
2.71651
1
1
1
1
1
1
1
1
1
1
1
1
1
1.00001
1.00001
1.00002
1.00004
1.00009
1.00019
1.00038
1.00078
1.00161
1.00331
1.0068
1.01402
1.02904
1.06064
1.12881
1.28491
1.6803
3.18039
2.59215
2.71723
2.76991
2.80173
2.73128
2.7524
2.79858
2.72988
2.73237
1
1
1
1
1
1
1
1
1
1
1
1
1
1.00001
1.00001
1.00002
1.00004
1.00009
1.00019
1.00038
1.00078
1.0016
1.00329
1.00678
1.01397
1.02892
1.06036
1.12815
1.28321
1.67753
3.15487
2.61413
2.70461
2.75716
2.76477
2.71688
2.74123
2.77511
2.7186
2.75098
1
1
1
1
1
1
1
1
1
1
1
1
1
1.00001
1.00001
1.00002
1.00004
1.00009
1.00018
1.00038
1.00078
1.0016
1.00328
1.00676
1.01392
1.0288
1.0601
1.12753
1.28158
1.6746
3.12721
2.62994
2.70355
2.75707
2.75362
2.70615
2.72678
2.7576
2.7224
2.77567
1
1
1
1
1
1
1
1
1
1
1
1
1
1.00001
1.00001
1.00002
1.00004
1.00009
1.00018
1.00038
1.00077
1.00159
1.00327
1.00673
1.01386
1.02868
1.05982
1.1269
1.27996
1.67147
3.09867
2.63932
2.71453
2.75718
2.74599
2.7023
2.70924
2.73685
2.73019
2.78251
1
1
1
1
1
1
1
1
1
1
1
1
1
1.00001
1.00001
1.00002
1.00004
1.00009
1.00018
1.00038
1.00077
1.00158
1.00325
1.00669
1.0138
1.02854
1.05952
1.12623
1.27832
1.66816
3.07127
2.64448
2.73015
2.75661
2.74063
2.69478
2.69152
2.71785
2.73974
2.77373
1
1
1
1
1
1
1
1
1
1
1
1
1
1
1.00001
1.00002
1.00004
1.00009
1.00018
1.00037
1.00077
1.00157
1.00323
1.00665
1.01371
1.02837
1.05917
1.12549
1.27654
1.66423
3.04558
2.65033
2.72409
2.77119
2.73808
2.69775
2.67515
2.69993
2.70684
2.77982
1
1
1
1
1
1
1
1
1
1
1
1
1
1
1.00001
1.00002
1.00004
1.00009
1.00018
1.00037
1.00076
1.00156
1.00321
1.0066
1.01361
1.02816
1.05872
1.12451
1.27428
1.65869
3.02033
2.657
2.71711
2.798
2.74521
2.71495
2.66068
2.68029
2.67999
2.79597
1
1
1
1
1
1
1
1
1
1
1
1
1
1
1.00001
1.00002
1.00004
1.00009
1.00018
1.00037
1.00075
1.00154
1.00317
1.00653
1.01346
1.02785
1.05808
1.12316
1.27131
1.65055
3.00255
2.66497
2.71238
2.7611
2.74534
2.72438
2.65516
2.65356
2.67003
2.794
1
1
1
1
1
1
1
1
1
1
1
1
1
1
1.00001
1.00002
1.00004
1.00009
1.00018
1.00036
1.00074
1.00152
1.00312
1.00643
1.01326
1.02743
1.05723
1.12138
1.26752
1.63954
2.99004
2.67372
2.71039
2.7363
2.69138
2.6748
2.64796
2.62402
2.66623
2.7324
1
1
1
1
1
1
1
1
1
1
1
1
1
1
1.00001
1.00002
1.00004
1.00008
1.00017
1.00035
1.00072
1.00149
1.00306
1.0063
1.01299
1.0269
1.05612
1.11903
1.26247
1.62435
2.97831
2.67579
2.70767
2.72648
2.68918
2.6505
2.62432
2.59051
2.67746
2.70224
1
1
1
1
1
1
1
1
1
1
1
1
1
1
1.00001
1.00002
1.00004
1.00008
1.00017
1.00034
1.0007
1.00145
1.00298
1.00613
1.01264
1.02616
1.05457
1.11569
1.25527
1.60192
2.96383
2.67367
2.70135
2.71053
2.70393
2.65753
2.63044
2.57188
2.63687
2.65138
1
1
1
1
1
1
1
1
1
1
1
1
1
1
1.00001
1.00002
1.00004
1.00008
1.00016
1.00033
1.00068
1.00139
1.00287
1.0059
1.01217
1.02519
1.05256
1.1114
1.24606
1.57424
2.96056
2.65932
2.69901
2.7078
2.72905
2.69594
2.66732
2.58047
2.54693
2.62602
1
1
1
1
1
1
1
1
1
1
1
1
1
1
1.00001
1.00002
1.00003
1.00007
1.00014
1.00029
1.00059
1.00121
1.00247
1.00508
1.01046
1.02158
1.04481
1.09405
1.2057
1.43381
2.8268
2.48598
2.53049
2.60629
2.63113
2.60777
2.56886
2.55026
2.45123
2.49489
1
1
1
1
1
1
1
1
1
1
1
1
1
1
1.00001
1.00001
1.00003
1.00005
1.00011
1.00022
1.00045
1.00093
1.00191
1.00392
1.00807
1.01664
1.03448
1.07211
1.15448
1.34092
2.00101
2.72879
2.70851
2.66397
2.64619
2.61084
2.55322
2.50319
2.35048
2.28937
1
1
1
1
1
1
1
1
1
1
1
1
1
1
1
1.00001
1.00002
1.00004
1.00008
1.00016
1.00032
1.00066
1.00136
1.00278
1.00571
1.01174
1.02423
1.05032
1.10638
1.22789
1.62204
2.61545
2.67965
2.6684
2.65836
2.6482
2.57979
2.47754
2.36215
2.28132
1
1
1
1
1
1
1
1
1
1
1
1
1
1
1
1.00001
1.00001
1.00003
1.00006
1.00012
1.00024
1.0005
1.00103
1.00211
1.00434
1.00892
1.01837
1.03805
1.07957
1.17185
1.37093
2.59068
2.43874
2.48216
2.56771
2.57882
2.53352
2.46209
2.40729
2.31798
1
1
1
1
1
1
1
1
1
1
1
1
1
1
1
1.00001
1.00001
1.00002
1.00004
1.00009
1.00019
1.00038
1.00079
1.00162
1.00333
1.00686
1.01413
1.02923
1.06093
1.12957
1.28352
1.78556
2.6093
2.60242
2.57819
2.55995
2.51461
2.45447
2.40352
2.3794
1
1
1
1
1
1
1
1
1
1
1
1
1
1
1
1
1.00001
1.00001
1.00003
1.00006
1.00012
1.00024
1.0005
1.00103
1.00211
1.00433
1.00889
1.01832
1.03791
1.07962
1.16758
1.44622
2.39177
2.48483
2.48832
2.49056
2.46189
2.43531
2.38409
2.36107
1
1
1
1
1
1
1
1
1
1
1
1
1
1
1
1
1.00001
1.00001
1.00002
1.00004
1.00009
1.00018
1.00037
1.00076
1.00156
1.00321
1.00659
1.01356
1.02796
1.05809
1.12251
1.27133
1.73133
2.32672
2.50031
2.49776
2.47985
2.46226
2.3907
2.30799
1
1
1
1
1
1
1
1
1
1
1
1
1
1
1
1
1
1.00001
1.00001
1.00003
1.00005
1.00011
1.00023
1.00046
1.00095
1.00195
1.004
1.00822
1.01693
1.03504
1.07343
1.15447
1.40177
2.18151
2.4142
2.41134
2.43176
2.41813
2.32026
2.26585
1
1
1
1
1
1
1
1
1
1
1
1
1
1
1
1
1
1
1.00001
1.00002
1.00004
1.00007
1.00015
1.00031
1.00064
1.00132
1.00271
1.00558
1.01152
1.02387
1.04986
1.10588
1.23036
1.66259
2.10674
2.38461
2.38267
2.36089
2.28005
2.28107
1
1
1
1
1
1
1
1
1
1
1
1
1
1
1
1
1
1
1.00001
1.00001
1.00002
1.00005
1.0001
1.0002
1.00042
1.00085
1.00175
1.00359
1.00737
1.01517
1.03135
1.06543
1.13735
1.33266
1.90344
2.19979
2.27974
2.31234
2.30171
2.25919
1
1
1
1
1
1
1
1
1
1
1
1
1
1
1
1
1
1
1
1.00001
1.00002
1.00003
1.00007
1.00013
1.00028
1.00057
1.00117
1.00239
1.00489
1.01001
1.02055
1.04251
1.0892
1.1934
1.4829
2.00188
2.2128
2.23676
2.24538
2.19896
1
1
1
1
1
1
1
1
1
1
1
1
1
1
1
1
1
1
1
1
1.00001
1.00002
1.00003
1.00006
1.00013
1.00027
1.00055
1.00113
1.00235
1.00485
1.00997
1.02044
1.04233
1.08554
1.22382
1.39359
1.79003
2.06073
2.08955
2.12964
1
1
1
1
1
1
1
1
1
1
1
1
1
1
1
1
1
1
1
1
1
1.00001
1.00001
1.00003
1.00005
1.00011
1.00022
1.00045
1.00092
1.0019
1.00394
1.00815
1.0169
1.03484
1.07452
1.15163
1.31999
1.71067
1.95554
1.98118
1
1
1
1
1
1
1
1
1
1
1
1
1
1
1
1
1
1
1
1
1
1
1
1.00001
1.00002
1.00004
1.00008
1.00017
1.00035
1.00071
1.00144
1.00297
1.00613
1.01273
1.02662
1.05496
1.11498
1.24848
1.64937
1.86546
1
1
1
1
1
1
1
1
1
1
1
1
1
1
1
1
1
1
1
1
1
1
1
1
1
1.00001
1.00002
1.00004
1.00008
1.00016
1.00031
1.00063
1.00126
1.00255
1.00517
1.01075
1.02118
1.04655
1.08685
1.2526
1
1
1
1
1
1
1
1
1
1
1
1
1
1
1
1
1
1
1
1
1
1
1
1
1
1.00001
1.00001
1.00003
1.00006
1.00012
1.00024
1.00048
1.00099
1.00202
1.00413
1.00856
1.01728
1.03965
1.07196
1.25376
1
1
1
1
1
1
1
1
1
1
1
1
1
1
1
1
1
1
1
1
1
1
1
1
1
1
1.00001
1.00001
1.00002
1.00005
1.00011
1.00022
1.00044
1.0009
1.00181
1.00375
1.00737
1.01701
1.0296
1.09999
1
1
1
1
1
1
1
1
1
1
1
1
1
1
1
1
1
1
1
1
1
1
1
1
1
1
1
1.00001
1.00001
1.00003
1.00006
1.00013
1.00026
1.00053
1.0011
1.00225
1.00461
1.0094
1.01958
1.03925
1
1
1
1
1
1
1
1
1
1
1
1
1
1
1
1
1
1
1
1
1
1
1
1
1
1
1
1.00001
1.00001
1.00003
1.00006
1.00011
1.00022
1.00045
1.00093
1.00194
1.00411
1.00858
1.01852
1.0357
1
1
1
1
1
1
1
1
1
1
1
1
1
1
1
1
1
1
1
1
1
1
1
1
1
1
1
1
1.00001
1.00002
1.00004
1.00008
1.00015
1.00031
1.00063
1.00124
1.00262
1.00517
1.01207
1.02333
1
1
1
1
1
1
1
1
1
1
1
1
1
1
1
1
1
1
1
1
1
1
1
1
1
1
1
1
1.00001
1.00002
1.00004
1.00007
1.00015
1.0003
1.00062
1.00123
1.00259
1.005
1.01062
1.01937
1
1
1
1
1
1
1
1
1
1
1
1
1
1
1
1
1
1
1
1
1
1
1
1
1
1
1
1
1.00001
1.00002
1.00004
1.00007
1.00015
1.0003
1.0006
1.00119
1.00245
1.00492
1.01023
1.01976
1
1
1
1
1
1
1
1
1
1
1
1
1
1
1
1
1
1
1
1
1
1
1
1
1
1
1
1
1.00001
1.00002
1.00003
1.00007
1.00014
1.00027
1.00056
1.0011
1.00227
1.00443
1.00884
1.01725
1
1
1
1
1
1
1
1
1
1
1
1
1
1
1
1
1
1
1
1
1
1
1
1
1
1
1
1
1.00001
1.00002
1.00003
1.00006
1.00012
1.00024
1.00051
1.00104
1.00221
1.00442
1.00898
1.01667
1
1
1
1
1
1
1
1
1
1
1
1
1
1
1
1
1
1
1
1
1
1
1
1
1
1
1
1
1.00001
1.00001
1.00003
1.00006
1.00011
1.00022
1.00045
1.00093
1.00194
1.00401
1.00832
1.01678
1
1
1
1
1
1
1
1
1
1
1
1
1
1
1
1
1
1
1
1
1
1
1
1
1
1
1
1
1.00001
1.00002
1.00004
1.00007
1.00014
1.00028
1.00055
1.00107
1.00213
1.00426
1.00835
1.01603
1
1
1
1
1
1
1
1
1
1
1
1
1
1
1
1
1
1
1
1
1
1
1
1
1
1
1
1
1.00001
1.00002
1.00004
1.00008
1.00015
1.00031
1.00062
1.00123
1.00241
1.00481
1.00899
1.019
1
1
1
1
1
1
1
1
1
1
1
1
1
1
1
1
1
1
1
1
1
1
1
1
1
1
1
1
1
1
1.00001
1.00002
1.00004
1.0001
1.00023
1.00056
1.00131
1.00302
1.00684
1.0148
1
1
1
1
1
1
1
1
1
1
1
1
1
1
1
1
1
1
1
1
1
1
1
1
1
1
1
1
1
1
1
1.00001
1.00002
1.00004
1.00008
1.00017
1.00034
1.00068
1.00146
1.00274
1
1
1
1
1
1
1
1
1
1
1
1
1
1
1
1
1
1
1
1
1
1
1
1
1
1
1
1
1
1
1
1.00001
1.00002
1.00004
1.00008
1.00017
1.00036
1.00075
1.0016
1.00307
1
1
1
1
1
1
1
1
1
1
1
1
1
1
1
1
1
1
1
1
1
1
1
1
1
1
1
1
1
1
1
1.00001
1.00001
1.00003
1.00007
1.00014
1.0003
1.00064
1.00143
1.00285
1
1
1
1
1
1
1
1
1
1
1
1
1
1
1
1
1
1
1
1
1
1
1
1
1
1
1
1
1
1
1
1.00001
1.00001
1.00003
1.00005
1.00011
1.00024
1.00049
1.00109
1.00206
1
1
1
1
1
1
1
1
1
1
1
1
1
1
1
1
1
1
1
1
1
1
1
1
1
1
1
1
1
1
1
1.00001
1.00001
1.00003
1.00006
1.00012
1.00024
1.00047
1.001
1.00185
1
1
1
1
1
1
1
1
1
1
1
1
1
1
1
1
1
1
1
1
1
1
1
1
1
1
1
1
1
1
1
1.00001
1.00001
1.00003
1.00006
1.00012
1.00025
1.00051
1.00105
1.00212
1
1
1
1
1
1
1
1
1
1
1
1
1
1
1
1
1
1
1
1
1
1
1
1
1
1
1
1
1
1
1
1.00001
1.00001
1.00003
1.00006
1.00012
1.00025
1.00051
1.00103
1.0021
1
1
1
1
1
1
1
1
1
1
1
1
1
1
1
1
1
1
1
1
1
1
1
1
1
1
1
1
1
1
1
1.00001
1.00001
1.00003
1.00006
1.00012
1.00025
1.00051
1.00105
1.00218
1
1
1
1
1
1
1
1
1
1
1
1
1
1
1
1
1
1
1
1
1
1
1
1
1
1
1
1
1
1
1
1
1
1
1.00001
1.00003
1.00008
1.00019
1.00045
1.00098
1
1
1
1
1
1
1
1
1
1
1
1
1
1
1
1
1
1
1
1
1
1
1
1
1
1
1
1
1
1
1
1
1
0.999999
0.999999
0.999998
0.999996
0.999992
0.999983
0.999972
1
1
1
1
1
1
1
1
1
1
1
1
1
1
1
1
1
1
1
1
1
1
1
1
1
1
1
1
1
1
1
1
1
0.999999
0.999999
0.999997
0.999995
0.999989
0.999977
0.999956
1
1
1
1
1
1
1
1
1
1
1
1
1
1
1
1
1
1
1
1
1
1
1
1
1
1
1
1
1
1
1
1
1
0.999999
0.999999
0.999997
0.999994
0.999988
0.999975
0.999951
2.30679
2.35533
2.13897
1.85657
1.77775
1.8544
1.7909
1.73994
1.79965
2.04633
2.25041
2.37608
2.41183
2.40846
2.42765
2.43254
2.42764
2.45077
2.45306
2.42683
2.45462
2.51257
2.68584
2.68148
2.80095
2.80377
2.75622
2.77687
2.95619
2.95704
2.85114
2.97661
3.05667
2.97331
2.93247
2.86777
2.87743
2.95915
3.29152
3.32977
2.25157
2.27795
2.3279
2.4657
2.52763
2.41231
2.1723
2.05693
2.01969
2.26883
2.35612
2.36866
2.32969
2.38833
2.42419
2.46534
2.47603
2.42159
2.47556
2.49769
2.49695
2.55647
2.53252
2.47556
2.5496
2.76799
2.79799
2.87233
3.03703
3.07719
2.94132
2.94052
3.07068
3.12795
3.0993
3.01523
3.0468
3.09249
3.30993
2.91867
2.24952
2.29439
2.39131
2.41852
2.3908
2.2713
2.18199
2.13764
2.16598
2.28607
2.31813
2.2678
2.25281
2.30214
2.33393
2.32418
2.35606
2.37163
2.40211
2.42425
2.40606
2.42229
2.39349
2.40801
2.45889
2.60632
2.62279
2.72137
2.95674
3.03981
2.97397
2.95253
2.90881
2.83341
2.78715
2.87473
3.03587
3.19778
2.93985
2.95298
2.27191
2.28531
2.2593
2.26708
2.28068
2.26189
2.21034
2.1562
2.20273
2.25453
2.20401
2.17222
2.18147
2.20649
2.21683
2.23408
2.24186
2.23181
2.2732
2.25477
2.2127
2.24506
2.26993
2.28306
2.35425
2.44129
2.49274
2.54536
2.70582
2.87912
2.80829
2.82766
2.95952
3.00409
2.89495
2.95767
2.95447
2.99179
3.13889
2.80897
2.25342
2.23228
2.22656
2.23688
2.23682
2.23984
2.19227
2.0687
2.06817
2.08199
2.12589
2.14916
2.1322
2.13148
2.13888
2.17799
2.19052
2.1526
2.12759
2.11596
2.13879
2.16437
2.14394
2.11721
2.1481
2.16246
2.22344
2.3845
2.62001
2.71133
2.74371
2.77591
2.97817
3.00932
2.68215
2.72013
2.70831
2.61654
2.7304
2.6387
2.23336
2.1982
2.22046
2.2443
2.22989
2.18893
2.10403
2.01662
2.00914
2.02021
2.06561
2.10992
2.10195
2.09877
2.09822
2.13838
2.17222
2.1573
2.11913
2.08891
2.06643
2.07346
2.06501
2.03161
2.04098
2.07627
2.14363
2.27534
2.51079
2.66523
2.82585
2.96959
3.01903
2.95588
2.72205
2.62789
2.51754
2.42458
2.58187
2.51519
2.20457
2.18248
2.20611
2.21198
2.18348
2.14419
2.06662
1.98859
1.96384
1.96822
2.00732
2.05406
2.06421
2.05598
2.04625
2.05614
2.12805
2.1621
2.1612
2.14625
2.12446
2.09464
2.06591
2.09028
2.099
2.0899
2.19363
2.30849
2.37605
2.47098
2.56609
2.67606
2.75605
2.7768
2.77068
2.71374
2.39926
2.40683
2.32747
2.30096
2.17329
2.17206
2.18456
2.17584
2.14265
2.11327
2.05672
1.96816
1.92562
1.92973
1.96297
2.00599
2.01161
2.01058
2.00321
1.99853
2.01479
2.10164
2.21458
2.27924
2.29447
2.30413
2.23892
2.13505
2.102
2.084
2.09028
2.14546
2.23429
2.36464
2.43855
2.5233
2.61206
2.71451
2.62252
2.4782
2.47513
2.44326
2.31751
2.13674
2.1505
2.15303
2.16009
2.14265
2.11387
2.09284
2.04003
1.94808
1.8844
1.89382
1.93634
1.96481
1.96719
1.96408
1.94655
1.93644
1.94365
2.01279
2.19276
2.32983
2.39856
2.39992
2.31579
2.17624
2.07832
2.05077
2.05835
2.10192
2.19867
2.24824
2.31474
2.4253
2.54264
2.62239
2.57075
2.43294
2.25794
2.18287
2.2883
2.12346
2.12472
2.13015
2.12657
2.10185
2.08662
2.07115
2.02316
1.93128
1.86675
1.87076
1.90773
1.93262
1.94445
1.94223
1.92306
1.90909
1.91459
1.96
2.12196
2.3092
2.4308
2.44467
2.41387
2.28552
2.13312
2.05203
2.04504
2.09016
2.14894
2.14108
2.13817
2.30061
2.49458
2.54934
2.49071
2.40424
2.28087
2.21349
2.14209
2.28675
2.10578
2.11136
2.10229
2.07778
2.07112
2.0573
2.00916
1.91783
1.87116
1.8719
1.88863
1.89372
1.90805
1.92145
1.91397
1.89206
1.8836
1.88886
1.97219
2.18421
2.35386
2.44026
2.45549
2.34807
2.17284
2.06121
2.05223
2.04927
2.04916
2.04032
2.03965
2.06924
2.1217
2.2523
2.34789
2.23963
2.19721
2.18149
2.21566
2.28908
2.07068
2.06372
2.05677
2.05304
2.0569
2.0433
1.99676
1.91969
1.87727
1.87601
1.87346
1.85801
1.86301
1.88217
1.88471
1.8703
1.8557
1.85748
1.91339
2.10938
2.32361
2.43004
2.4356
2.30142
2.16615
2.08246
2.05031
2.07075
2.10655
2.05829
2.02416
2.00641
2.02203
2.06492
2.16563
2.20251
2.16027
2.24087
2.2478
2.2264
2.02147
2.03163
2.02314
2.01226
2.03295
2.02205
1.97246
1.90647
1.86924
1.84863
1.84442
1.84802
1.85642
1.86257
1.85748
1.84675
1.83763
1.84136
1.89178
2.09062
2.31659
2.41561
2.40653
2.31994
2.19016
2.09551
2.05677
2.05725
2.10644
2.12814
2.04487
1.96374
1.94337
1.954
2.05189
2.1143
2.19736
2.19934
2.24811
2.19315
1.93719
1.99446
1.9786
1.99811
1.99043
2.00951
1.96889
1.90234
1.86609
1.83517
1.79818
1.79734
1.81624
1.88886
1.87865
1.83279
1.83319
1.83575
1.86433
1.94674
2.14497
2.33357
2.4462
2.44933
2.39141
2.22983
2.10659
2.10407
2.14326
2.19914
2.19473
2.18498
1.96327
1.83898
1.84632
1.91629
1.97595
2.12615
2.26784
2.18707
1.88607
1.94697
1.91404
1.9434
1.97786
1.94974
1.96755
1.97399
1.8835
1.82718
1.80243
1.80681
1.80023
1.78418
1.81793
1.85002
1.82592
1.84539
1.8786
1.9235
2.10886
2.24079
2.40643
2.43485
2.2833
2.24129
2.33158
2.24749
2.1951
2.17396
2.14167
2.10489
2.21409
1.90188
1.81956
1.83822
1.84742
1.91563
2.11639
2.23296
1.76622
1.79515
1.82839
1.87505
1.9507
1.92605
1.92583
1.9264
1.99314
1.85101
1.80293
1.79047
1.79123
1.83056
1.81197
1.78696
1.8184
1.85543
1.87866
1.96649
1.975
2.10853
2.29763
2.46612
2.3714
2.33182
2.39895
2.36284
2.21416
2.1649
2.13261
2.09633
2.10864
2.0086
1.84028
1.79331
1.80042
1.79966
1.88599
1.92792
1.30087
1.68352
1.78474
1.83318
1.88661
1.86871
1.87697
1.8963
1.95946
1.87396
1.82864
1.81135
1.78579
1.80672
1.85062
1.79118
1.80718
1.83717
1.87818
1.86919
1.88023
2.04894
2.26017
2.34047
2.41261
2.39226
2.35823
2.29031
2.16509
2.07443
2.05386
2.08191
1.98251
1.9028
1.90199
1.84302
1.76202
1.76282
1.69411
1.75761
1.30295
1.64999
1.7444
1.78654
1.82045
1.82353
1.85243
1.92143
1.8799
1.85891
1.84705
1.80917
1.78361
1.80994
1.83214
1.76115
1.8213
1.85688
1.82501
1.83172
1.86675
1.99111
2.09521
2.19328
2.33707
2.35025
2.30962
2.22415
2.16562
2.08681
2.02418
2.07042
1.98675
1.85277
1.79339
1.7804
1.73683
1.65575
1.62913
1.71629
1.24362
1.59693
1.67364
1.72784
1.77097
1.80184
1.8466
1.87834
1.8352
1.84373
1.87155
1.82562
1.77972
1.81979
1.77013
1.75035
1.80188
1.89444
1.82722
1.82338
1.83516
1.86251
1.96493
2.10249
2.24617
2.32432
2.22073
2.17271
2.1648
2.00711
1.94622
1.93081
2.05633
1.91759
1.75773
1.71291
1.74381
1.69437
1.59069
1.62288
1.16945
1.5708
1.64545
1.69689
1.73004
1.77397
1.83833
1.82104
1.86731
1.90613
1.86437
1.82709
1.82717
1.79373
1.74503
1.77721
1.81979
1.80382
1.85549
1.7874
1.75644
1.78803
1.87631
2.06651
2.21207
2.19725
2.12168
2.06084
2.09457
1.97346
1.90129
1.88193
1.90076
1.88548
1.76059
1.72115
1.6928
1.69053
1.57579
1.6024
1.11111
1.40822
1.61351
1.67277
1.73198
1.7871
1.79973
1.84635
1.88212
1.87453
1.85986
1.84391
1.77601
1.74011
1.76629
1.76232
1.74388
1.76537
1.81926
1.75368
1.74178
1.75893
1.82792
1.99657
2.11447
2.06983
1.99035
2.0073
1.98832
1.83701
1.77084
1.7985
1.90988
1.84144
1.72994
1.69472
1.68211
1.70775
1.56679
1.54874
1.09743
1.34068
1.55651
1.64749
1.71362
1.76478
1.80267
1.83069
1.83119
1.84532
1.84597
1.76198
1.72192
1.71379
1.69122
1.68115
1.68983
1.76011
1.74265
1.671
1.72759
1.82409
1.85155
1.83791
1.86236
1.93097
2.06933
1.89999
1.8122
1.78332
1.73405
1.70507
1.78872
1.85265
1.74511
1.70853
1.6497
1.67029
1.62037
1.49584
1.08206
1.28315
1.52055
1.59731
1.64854
1.69236
1.73472
1.7243
1.7077
1.72093
1.71988
1.68284
1.65494
1.63513
1.634
1.64097
1.6979
1.7468
1.67148
1.67243
1.69112
1.80247
1.81365
1.79844
1.8605
1.88352
1.95644
1.81701
1.714
1.67619
1.7324
1.75296
1.6958
1.67437
1.73267
1.68012
1.66919
1.6163
1.54176
1.55576
1.08148
1.24509
1.47198
1.50723
1.50456
1.51648
1.55674
1.57121
1.60361
1.64294
1.62543
1.63631
1.61341
1.59359
1.6098
1.67632
1.68783
1.64949
1.66885
1.67214
1.71853
1.78613
1.77567
1.79555
1.79523
1.85151
1.85199
1.78347
1.72522
1.66983
1.69891
1.67581
1.58848
1.60728
1.71713
1.6515
1.59275
1.62475
1.58018
1.48033
1.07923
1.20915
1.34674
1.43806
1.44735
1.477
1.51108
1.54627
1.59989
1.58037
1.58787
1.60286
1.585
1.61615
1.65788
1.63318
1.61257
1.6219
1.68799
1.74457
1.67989
1.69385
1.7933
1.79327
1.7733
1.77055
1.75512
1.71273
1.63183
1.61647
1.65513
1.54376
1.52458
1.57422
1.66765
1.61609
1.60083
1.57709
1.52303
1.54695
1.06507
1.159
1.2465
1.41625
1.44749
1.48088
1.53164
1.57289
1.55638
1.5668
1.58726
1.58659
1.61187
1.62164
1.59578
1.59134
1.61332
1.63211
1.68569
1.67569
1.62989
1.65917
1.74967
1.76013
1.68118
1.66502
1.69654
1.63132
1.55205
1.59003
1.54131
1.47927
1.49146
1.61579
1.66077
1.54363
1.55804
1.52179
1.49056
1.54245
1.05778
1.13226
1.21719
1.318
1.49791
1.53996
1.56637
1.55186
1.55153
1.56599
1.55922
1.56881
1.56735
1.5461
1.55479
1.5758
1.58762
1.62637
1.61239
1.58623
1.60723
1.63266
1.71814
1.66041
1.60504
1.62122
1.63858
1.53594
1.52795
1.56334
1.46068
1.44745
1.47294
1.60709
1.5657
1.4891
1.49644
1.46147
1.46648
1.5289
1.06073
1.07102
1.09948
1.18129
1.53102
1.53954
1.52293
1.52907
1.53333
1.52045
1.50866
1.50122
1.49067
1.50541
1.524
1.53553
1.558
1.57898
1.55521
1.5699
1.59303
1.67701
1.60928
1.55788
1.58559
1.60403
1.51444
1.48544
1.5478
1.54095
1.42908
1.41882
1.46819
1.58287
1.51065
1.44016
1.40894
1.42454
1.39236
1.50928
1.01347
1.03532
1.07914
1.15987
1.42916
1.46571
1.47468
1.47894
1.46714
1.44168
1.42998
1.44364
1.47749
1.49393
1.5119
1.5294
1.55222
1.54774
1.55248
1.60179
1.63801
1.5441
1.50886
1.5472
1.55986
1.45688
1.46286
1.52857
1.48369
1.45722
1.49517
1.4731
1.40516
1.37868
1.45368
1.45621
1.35301
1.34434
1.35647
1.49239
1.0143
1.03713
1.07801
1.15759
1.34519
1.34805
1.43315
1.44444
1.41307
1.38454
1.38985
1.4406
1.47791
1.49148
1.50803
1.52756
1.52584
1.53022
1.57485
1.56612
1.48652
1.46188
1.49329
1.53184
1.40766
1.38764
1.45288
1.45585
1.39571
1.41839
1.45937
1.40233
1.37524
1.35337
1.35946
1.40064
1.29162
1.30632
1.40843
1.5015
1.01399
1.03665
1.08537
1.1609
1.267
1.36467
1.42163
1.42845
1.38183
1.34468
1.35851
1.40938
1.46166
1.50271
1.49962
1.48265
1.49812
1.56592
1.53939
1.46148
1.43811
1.44583
1.49235
1.36431
1.30961
1.34827
1.39276
1.3214
1.33429
1.40706
1.36167
1.32294
1.29687
1.27928
1.35374
1.33591
1.28226
1.30123
1.40801
1.4677
1.01151
1.02605
1.05466
1.12008
1.27717
1.34602
1.40859
1.41903
1.37168
1.34222
1.36269
1.40589
1.46151
1.47792
1.47675
1.48281
1.51063
1.49739
1.41605
1.39722
1.37778
1.35305
1.31142
1.28296
1.29515
1.33313
1.26809
1.27498
1.33527
1.30508
1.25283
1.23924
1.23959
1.34413
1.31272
1.26834
1.2892
1.44226
1.49152
1.5096
1.00945
1.01929
1.03513
1.07696
1.17776
1.28567
1.45186
1.44891
1.38938
1.3442
1.32524
1.28406
1.29917
1.35895
1.32727
1.2251
1.2866
1.2773
1.26518
1.25176
1.26305
1.25513
1.2594
1.29594
1.25615
1.20515
1.22615
1.28386
1.24137
1.21873
1.21847
1.29504
1.37255
1.29179
1.30897
1.40922
1.39647
1.5098
1.56811
1.59244
1.00877
1.01633
1.03632
1.05943
1.12572
1.2101
1.40287
1.41949
1.3892
1.27417
1.15131
1.11963
1.22011
1.25446
1.18474
1.05076
1.14087
1.11668
1.08306
1.1528
1.18869
1.19484
1.22261
1.19212
1.14411
1.18535
1.21097
1.1925
1.20615
1.27802
1.33887
1.34598
1.29083
1.28124
1.3358
1.37668
1.38383
1.49488
1.61673
1.56077
1.00789
1.01485
1.03305
1.06165
1.12508
1.20475
1.32375
1.30917
1.29279
1.14736
1.05665
0.983424
1.13199
1.15449
1.0069
0.928335
0.910315
0.892615
0.844908
1.06226
1.16505
1.16266
1.13825
1.10239
1.11887
1.10354
1.11265
1.18386
1.29827
1.33324
1.31379
1.34501
1.37049
1.32997
1.31158
1.38054
1.40219
1.40254
1.50283
1.45464
1.00728
1.01486
1.02657
1.04692
1.07206
1.12607
1.20341
1.15098
1.13882
1.08486
0.994649
0.956958
1.00933
0.98261
0.916521
0.903512
0.893994
0.861326
0.858424
0.983394
1.08734
1.12425
1.14485
1.15917
1.12261
1.11031
1.16387
1.31935
1.33991
1.38091
1.44579
1.39286
1.38166
1.40164
1.43164
1.41525
1.37768
1.41955
1.46024
1.45626
1.00393
1.01333
1.01957
1.01272
1.00065
0.972553
0.902685
0.808115
0.727263
0.740192
1.11306
1.07827
1.04128
1.01017
1.04378
1.12982
1.15325
1.18544
1.07373
1.14142
1.11347
1.15079
1.29734
1.31803
1.30776
1.28304
1.30333
1.34704
1.39558
1.49962
1.56003
1.46015
1.41564
1.41269
1.40004
1.41741
1.4077
1.40533
1.38931
1.41281
0.999836
0.999671
0.999353
0.9987
0.997264
0.994609
0.988578
0.976401
0.96565
0.956037
0.938577
0.94321
0.925528
0.922298
0.920912
0.972245
1.01033
1.24931
1.17123
1.38842
1.2832
1.23401
1.47508
1.46469
1.41745
1.35358
1.43335
1.49697
1.5321
1.50439
1.49201
1.49551
1.48755
1.4617
1.43963
1.45396
1.45936
1.42364
1.4454
1.47838
0.999794
0.999479
0.998859
0.997606
0.995243
0.991226
0.989983
0.981931
0.978478
0.980494
0.969494
0.965258
0.969524
0.961381
0.957029
0.974093
0.995492
1.09876
1.16756
1.44963
1.47197
1.38063
1.51634
1.6747
1.67373
1.57703
1.53841
1.5476
1.53986
1.49961
1.48541
1.54078
1.59277
1.54259
1.48201
1.46371
1.44501
1.40583
1.44281
1.48016
0.999789
0.999439
0.998732
0.997308
0.994469
0.988545
0.979646
0.96826
0.975792
0.974591
0.97472
0.981904
0.973859
0.967467
0.971957
0.980983
1.00159
1.04159
1.12831
1.24186
1.38536
1.52604
1.56372
1.77794
1.79221
1.77099
1.73298
1.66934
1.53974
1.47909
1.47173
1.5614
1.63396
1.6459
1.56988
1.54102
1.5107
1.50788
1.44446
1.50812
)
;

boundaryField
{
    inlet
    {
        type            fixedValue;
        value           uniform 1;
    }
    outlet
    {
        type            inletOutlet;
        inletValue      uniform 1;
        value           nonuniform List<scalar> 
40
(
3.33043
2.91633
2.953
2.80884
2.6387
2.51515
2.30093
2.13673
2.12237
2.28743
2.28906