/*--------------------------------*- C++ -*----------------------------------*\
  =========                 |
  \\      /  F ield         | OpenFOAM: The Open Source CFD Toolbox
   \\    /   O peration     | Website:  https://openfoam.org
    \\  /    A nd           | Version:  6.0
     \\/     M anipulation  |
\*---------------------------------------------------------------------------*/
FoamFile
{
    version     2.0;
    format      ascii;
    class       volScalarField;
    location    "1";
    object      T;
}
// * * * * * * * * * * * * * * * * * * * * * * * * * * * * * * * * * * * * * //

dimensions      [0 0 0 1 0 0 0];

internalField   nonuniform List<scalar> 
192000
(
0.896128
0.861477
0.84462
0.833219
0.825459
0.819504
0.814966
0.811129
0.808144
0.805363
0.803241
0.801108
0.79952
0.797821
0.796601
0.795382
0.795311
0.795518
0.797376
0.801847
0.817216
0.850607
0.949692
1.25079
1.76128
2.2974
2.4145
2.42014
2.38508
2.31443
2.29793
2.29526
2.30079
2.3134
2.31961
2.34118
2.43733
2.493
2.58387
2.32893
0.896128
0.861475
0.844625
0.833216
0.825467
0.819499
0.814977
0.811118
0.808157
0.80535
0.803251
0.8011
0.799525
0.797813
0.79661
0.795362
0.795315
0.795454
0.797641
0.801468
0.818683
0.851903
0.955891
1.24795
1.76056
2.29476
2.4184
2.42637
2.39304
2.32478
2.30338
2.29629
2.30147
2.31435
2.3238
2.35446
2.46112
2.51333
2.59192
2.33584
0.896128
0.861475
0.844625
0.833216
0.825467
0.819499
0.814977
0.811118
0.808156
0.80535
0.803251
0.8011
0.799525
0.797814
0.796609
0.795361
0.795312
0.795451
0.797632
0.801449
0.818627
0.851752
0.955721
1.24621
1.76095
2.29699
2.42011
2.42739
2.39345
2.32558
2.30373
2.29687
2.30224
2.31542
2.32583
2.35931
2.46838
2.51886
2.5947
2.34107
0.896128
0.861477
0.84462
0.833219
0.825459
0.819505
0.814966
0.811129
0.808143
0.805362
0.803241
0.801108
0.79952
0.797821
0.796601
0.795377
0.795305
0.795492
0.797411
0.801658
0.817318
0.850097
0.94968
1.24659
1.76075
2.30342
2.4187
2.42254
2.38554
2.31663
2.2996
2.29653
2.30259
2.31666
2.3257
2.3547
2.45857
2.51027
2.59453
2.34604
0.896128
0.861476
0.844622
0.833218
0.825462
0.819502
0.81497
0.811123
0.808149
0.805356
0.803245
0.801104
0.799522
0.797817
0.796604
0.795377
0.795297
0.795533
0.797233
0.801991
0.816753
0.850329
0.94844
1.25077
1.75816
2.31068
2.42458
2.427
2.38739
2.31835
2.30232
2.29842
2.30411
2.31735
2.32625
2.35616
2.4614
2.51261
2.59816
2.35551
0.896127
0.861477
0.844619
0.833221
0.825458
0.819507
0.814964
0.81113
0.808142
0.805362
0.803241
0.801107
0.79952
0.79782
0.796601
0.795369
0.79529
0.795469
0.797376
0.801589
0.81702
0.849872
0.948341
1.24478
1.75365
2.3112
2.42255
2.42377
2.38319
2.31547
2.30072
2.29837
2.30448
2.31847
2.32809
2.35897
2.46446
2.51541
2.60227
2.36188
0.896126
0.861476
0.844625
0.83322
0.825465
0.819503
0.814973
0.811119
0.808156
0.805344
0.803258
0.801088
0.799533
0.797809
0.796609
0.795347
0.795281
0.795394
0.797521
0.801664
0.81816
0.851061
0.953294
1.24451
1.74974
2.31305
2.42865
2.43038
2.38991
2.32467
2.30731
2.30267
2.3084
2.3218
2.33373
2.37112
2.48136
2.52813
2.60969
2.36829
0.896129
0.861475
0.844621
0.83322
0.825458
0.819508
0.814962
0.811132
0.808139
0.805365
0.803239
0.801107
0.799521
0.797821
0.796598
0.795362
0.795264
0.795429
0.797339
0.801611
0.816488
0.850467
0.946667
1.23591
1.74514
2.3147
2.42359
2.42253
2.3792
2.31516
2.30073
2.30023
2.30698
2.32181
2.33432
2.37182
2.48137
2.52837
2.61088
2.36871
0.896127
0.861476
0.844626
0.833221
0.825463
0.819506
0.814969
0.811123
0.808148
0.805352
0.803248
0.801098
0.799525
0.797815
0.796603
0.795347
0.795252
0.795378
0.797466
0.801191
0.817697
0.850237
0.950605
1.23119
1.73886
2.31849
2.42774
2.42583
2.38079
2.31864
2.30397
2.30339
2.31015
2.32486
2.3385
2.37876
2.48941
2.53474
2.61441
2.36987
0.896126
0.861477
0.844625
0.833222
0.825462
0.819507
0.814966
0.811125
0.808146
0.805353
0.803247
0.801099
0.799524
0.797816
0.796601
0.795345
0.795235
0.795359
0.797424
0.801041
0.817424
0.849564
0.949023
1.22589
1.73162
2.32204
2.4307
2.42697
2.37924
2.31919
2.30456
2.30512
2.31268
2.32762
2.34409
2.39098
2.50358
2.54585
2.61984
2.37265
0.896128
0.861477
0.844621
0.833223
0.825456
0.819512
0.814956
0.811136
0.808132
0.805368
0.803235
0.801109
0.79952
0.79782
0.796595
0.795353
0.795217
0.795362
0.797244
0.801243
0.815694
0.849472
0.941952
1.22152
1.72088
2.32428
2.42633
2.41957
2.36827
2.31151
2.30213
2.30439
2.31412
2.32875
2.34529
2.39196
2.50344
2.54595
2.61966
2.37214
0.896125
0.861478
0.844626
0.833224
0.825461
0.819511
0.814962
0.811127
0.808142
0.805351
0.803251
0.801089
0.799535
0.797805
0.796605
0.795333
0.795207
0.795311
0.797287
0.801271
0.816386
0.849345
0.944235
1.2163
1.71219
2.33064
2.43016
2.42099
2.36722
2.31326
2.30612
2.30878
2.31853
2.33193
2.34805
2.39409
2.50429
2.54703
2.62064
2.37331
0.896128
0.861475
0.844629
0.833222
0.825462
0.81951
0.814961
0.811127
0.808141
0.805352
0.80325
0.801088
0.799537
0.797802
0.796607
0.795327
0.795186
0.795288
0.797229
0.801157
0.815898
0.848834
0.941312
1.20811
1.70072
2.33214
2.43026
2.41882
2.36338
2.31185
2.30714
2.31052
2.32129
2.33444
2.35229
2.40141
2.51038
2.55119
2.62324
2.37547
0.896126
0.861477
0.844629
0.833224
0.82546
0.819512
0.814958
0.811128
0.808136
0.805354
0.803246
0.801089
0.799537
0.797802
0.796607
0.795322
0.795159
0.795256
0.797154
0.800953
0.8155
0.847838
0.938683
1.19932
1.68832
2.33351
2.42781
2.41307
2.35676
2.30924
2.30736
2.31167
2.32358
2.33655
2.35666
2.40983
2.51712
2.55571
2.62431
2.37547
0.896121
0.861485
0.844626
0.83323
0.825457
0.819516
0.81495
0.811132
0.808129
0.805358
0.80324
0.801092
0.799535
0.797802
0.796605
0.795319
0.795125
0.795216
0.797064
0.800567
0.815275
0.846212
0.936343
1.19158
1.67319
2.33669
2.42821
2.41023
2.35358
2.31005
2.31013
2.31532
2.32799
2.34057
2.36272
2.41964
2.52354
2.56032
2.6248
2.37487
0.896119
0.861489
0.84462
0.833235
0.825449
0.819522
0.814941
0.81114
0.808117
0.805371
0.803226
0.801111
0.799517
0.79782
0.796592
0.795325
0.79509
0.795194
0.796878
0.800367
0.813707
0.845662
0.929127
1.18172
1.65197
2.33687
2.42276
2.4008
2.34438
2.30751
2.31028
2.31746
2.33127
2.34334
2.3666
2.42539
2.52663
2.56277
2.62511
2.37474
0.896116
0.861495
0.844619
0.833238
0.825446
0.819524
0.814935
0.811142
0.808112
0.805372
0.803223
0.801112
0.799517
0.797822
0.79659
0.795321
0.795059
0.795155
0.796764
0.800203
0.813046
0.844946
0.925593
1.17222
1.63253
2.33944
2.4194
2.39335
2.33698
2.30664
2.31239
2.32114
2.33519
2.34633
2.36855
2.42619
2.52645
2.56297
2.62506
2.3754
0.896115
0.861498
0.844618
0.83324
0.825444
0.819526
0.81493
0.811144
0.808106
0.805377
0.803216
0.801119
0.799512
0.797826
0.796587
0.795316
0.795022
0.795111
0.79668
0.799693
0.812865
0.842038
0.922856
1.15668
1.61364
2.3365
2.4107
2.38136
2.3296
2.30589
2.31409
2.32357
2.33755
2.34788
2.36926
2.42603
2.52513
2.56195
2.62484
2.37791
0.896117
0.861503
0.844623
0.833238
0.825448
0.819519
0.81493
0.811139
0.808105
0.805371
0.80322
0.80111
0.799524
0.797806
0.796608
0.79529
0.794992
0.795054
0.796657
0.799688
0.812927
0.840266
0.922483
1.14445
1.59885
2.33104
2.4065
2.37595
2.32957
2.31
2.31946
2.32859
2.34123
2.35031
2.37037
2.42543
2.52336
2.56029
2.62515
2.38222
0.896116
0.861505
0.84462
0.833239
0.825444
0.81952
0.814925
0.811142
0.8081
0.805378
0.803214
0.801119
0.799515
0.79782
0.796593
0.795302
0.794951
0.795014
0.796557
0.799048
0.812309
0.836558
0.920005
1.12599
1.57779
2.32234
2.40208
2.37089
2.3313
2.31521
2.32483
2.33318
2.34497
2.35359
2.37294
2.42677
2.52255
2.55869
2.62464
2.38488
0.896115
0.861511
0.844612
0.833245
0.825434
0.819526
0.814913
0.811152
0.808088
0.805392
0.803198
0.801139
0.799495
0.797842
0.796575
0.79531
0.794914
0.794984
0.796355
0.798657
0.811106
0.834649
0.914065
1.10387
1.55342
2.30267
2.38778
2.35838
2.32774
2.31597
2.32614
2.33468
2.34647
2.35566
2.37699
2.43215
2.52447
2.55889
2.62385
2.38694
0.896122
0.861512
0.844609
0.833247
0.825428
0.819525
0.814907
0.811152
0.808083
0.805395
0.803197
0.80114
0.799498
0.797838
0.796577
0.795305
0.794883
0.794935
0.796232
0.798649
0.810399
0.834098
0.909307
1.08979
1.53311
2.28741
2.37658
2.34955
2.32679
2.31825
2.3285
2.33661
2.34773
2.35686
2.37972
2.43734
2.52701
2.55932
2.62287
2.38864
0.896125
0.861514
0.844605
0.833249
0.825422
0.819527
0.814902
0.811156
0.808077
0.805402
0.803189
0.801151
0.799485
0.797853
0.796564
0.795308
0.794845
0.794896
0.796124
0.798232
0.809632
0.831053
0.90599
1.06767
1.51126
2.26302
2.36736
2.34547
2.33001
2.32378
2.33302
2.33966
2.34918
2.35784
2.38131
2.4403
2.52801
2.55889
2.62109
2.38897
0.896134
0.86151
0.844603
0.833248
0.825415
0.819527
0.814897
0.811158
0.808075
0.805405
0.803187
0.801155
0.799483
0.797855
0.796561
0.795306
0.79481
0.794854
0.796024
0.79798
0.808905
0.829183
0.901305
1.0491
1.48726
2.2236
2.35491
2.3414
2.332
2.32622
2.33433
2.34013
2.34869
2.35723
2.38173
2.44193
2.5276
2.5572
2.61853
2.38912
0.896162
0.861485
0.844616
0.833232
0.825418
0.819518
0.814895
0.811157
0.808074
0.805404
0.80319
0.801151
0.799486
0.797848
0.796571
0.795287
0.794787
0.794816
0.795992
0.797746
0.808476
0.827767
0.897167
1.03608
1.46941
2.18998
2.35334
2.34574
2.33963
2.33262
2.33771
2.34169
2.34876
2.35662
2.38112
2.44164
2.52607
2.5553
2.61746
2.39067
0.896159
0.861487
0.844609
0.833237
0.82541
0.819525
0.81489
0.811166
0.808066
0.805416
0.80318
0.801164
0.799474
0.797865
0.796553
0.795303
0.794739
0.79477
0.795841
0.797478
0.807562
0.826
0.891653
1.01937
1.4368
2.14054
2.35161
2.35004
2.34681
2.34018
2.34101
2.34375
2.34907
2.35631
2.38062
2.44066
2.52345
2.55271
2.61627
2.39404
0.896176
0.861466
0.84462
0.833223
0.825416
0.819517
0.814894
0.811165
0.808065
0.805423
0.803174
0.80117
0.79947
0.797869
0.796548
0.795301
0.794706
0.79473
0.795749
0.797267
0.806922
0.824688
0.887593
1.00673
1.41777
2.10002
2.35037
2.34922
2.34791
2.34236
2.33928
2.34214
2.34744
2.35498
2.38057
2.44055
2.52038
2.5489
2.61357
2.39567
0.896207
0.861424
0.844649
0.83319
0.825439
0.819492
0.814917
0.811143
0.808085
0.80541
0.803182
0.801168
0.799468
0.79787
0.79655
0.795291
0.794683
0.794675
0.795704
0.796969
0.806692
0.822532
0.884242
1.00005
1.39481
2.07821
2.35014
2.35348
2.352
2.3463
2.33935
2.34167
2.34593
2.3537
2.38126
2.44146
2.518
2.54547
2.61026
2.39706
0.896204
0.861423
0.844645
0.833193
0.825433
0.8195
0.814912
0.81115
0.808081
0.805416
0.803177
0.801176
0.799461
0.797882
0.796537
0.795301
0.794642
0.794642
0.79559
0.796774
0.805794
0.821897
0.879766
0.986713
1.37387
2.05843
2.34689
2.35754
2.35524
2.35075
2.34065
2.34223
2.34542
2.35293
2.38191
2.442
2.51503
2.54133
2.60631
2.39725
0.896218
0.861396
0.844665
0.833171
0.825448
0.819488
0.814924
0.811141
0.808093
0.805407
0.803186
0.801169
0.799466
0.797881
0.796532
0.795306
0.794608
0.794603
0.795501
0.796613
0.805254
0.820827
0.876356
0.978686
1.35488
2.0408
2.33679
2.35571
2.35308
2.35063
2.34018
2.34128
2.34373
2.35112
2.38166
2.44169
2.5126
2.53829
2.60405
2.39925
0.896243
0.861352
0.844706
0.833125
0.825489
0.819452
0.814958
0.81111
0.808125
0.805374
0.803218
0.801138
0.799498
0.797853
0.796557
0.79529
0.79458
0.794556
0.795429
0.796512
0.805156
0.818455
0.874852
0.969919
1.34417
2.02215
2.32771
2.35279
2.34981
2.34793
2.33767
2.33869
2.34121
2.34912
2.38142
2.44011
2.50691
2.5313
2.59774
2.39896
0.896241
0.861341
0.844722
0.833106
0.825509
0.819439
0.814969
0.811105
0.808132
0.805369
0.803225
0.801134
0.799504
0.797847
0.796568
0.795273
0.794563
0.794538
0.795354
0.79628
0.8046
0.817657
0.871357
0.959927
1.33068
2.00784
2.32381
2.35488
2.35144
2.34756
2.3348
2.3352
2.3372
2.34541
2.38013
2.4382
2.50272
2.52638
2.5942
2.39997
0.896237
0.861334
0.844739
0.833082
0.825542
0.819409
0.814998
0.811084
0.80815
0.805353
0.803243
0.801117
0.799522
0.797834
0.796583
0.795252
0.794558
0.794482
0.795257
0.796157
0.804152
0.815729
0.86885
0.952273
1.31228
1.98268
2.31564
2.35543
2.35278
2.34804
2.33413
2.33386
2.33512
2.34291
2.37828
2.43437
2.49489
2.51718
2.58622
2.39902
0.896216
0.861356
0.844728
0.833087
0.825551
0.819396
0.815016
0.811071
0.808157
0.805355
0.803237
0.801126
0.799515
0.797842
0.796573
0.795254
0.79452
0.794439
0.795156
0.796009
0.803273
0.815933
0.863812
0.94809
1.2868
1.95297
2.30355
2.35387
2.352
2.34773
2.33306
2.33156
2.33241
2.33999
2.37547
2.42967
2.48716
2.50832
2.58054
2.39858
0.896201
0.861372
0.844719
0.833092
0.825558
0.81938
0.815044
0.811035
0.808197
0.805318
0.803271
0.8011
0.79954
0.797821
0.796594
0.795228
0.794509
0.79438
0.795066
0.795861
0.802774
0.815015
0.860822
0.942121
1.26578
1.9197
2.28713
2.34842
2.34787
2.34498
2.33168
2.32975
2.33047
2.33787
2.37267
2.42357
2.47679
2.49562
2.56874
2.39587
0.896193
0.861384
0.84471
0.833099
0.825556
0.819375
0.81506
0.811008
0.808239
0.80527
0.80333
0.801045
0.799594
0.797773
0.796638
0.795179
0.794524
0.794301
0.794992
0.795709
0.802587
0.812721
0.859672
0.932728
1.25796
1.8946
2.27151
2.33782
2.34038
2.3373
2.32702
2.32582
2.32683
2.33492
2.37065
2.4199
2.47078
2.48793
2.56253
2.39345
0.896174
0.86141
0.844686
0.833128
0.825528
0.819407
0.815031
0.811038
0.808217
0.805286
0.803326
0.801039
0.799612
0.797749
0.79666
0.795154
0.794514
0.794237
0.794884
0.795635
0.802287
0.809936
0.85727
0.921129
1.23629
1.86488
2.26217
2.33465
2.33758
2.33243
2.32192
2.3214
2.32315
2.33272
2.36861
2.41205
2.45737
2.47073
2.54671
2.38702
0.896072
0.861551
0.84456
0.833278
0.825388
0.819561
0.814877
0.8112
0.808056
0.805456
0.803167
0.801213
0.799463
0.797912
0.796536
0.795287
0.794384
0.794284
0.794469
0.796536
0.7991
0.816394
0.838186
0.952973
1.16219
1.78192
2.22983
2.32561
2.33074
2.32651
2.31724
2.31628
2.31853
2.33013
2.36799
2.40801
2.44992
2.45922
2.53319
2.3754
0.896068
0.861564
0.84454
0.833292
0.825369
0.819575
0.814864
0.811219
0.808042
0.80548
0.80315
0.801237
0.799442
0.797938
0.796508
0.795307
0.794329
0.794227
0.794372
0.796269
0.799429
0.814612
0.839406
0.942283
1.1333
1.74158
2.20119
2.31668
2.32296
2.3201
2.31083
2.30923
2.31195
2.32545
2.36537
2.39868
2.43432
2.43837
2.5052
2.35457
0.896078
0.861548
0.844543
0.833287
0.825369
0.819576
0.81487
0.81122
0.808049
0.805483
0.803152
0.801239
0.79944
0.797939
0.796502
0.795307
0.794294
0.794147
0.794281
0.796047
0.798883
0.813204
0.83625
0.931902
1.10995
1.69761
2.17388
2.31109
2.32037
2.31936
2.31108
2.31058
2.31471
2.33077
2.36978
2.39767
2.42728
2.42493
2.47537
2.29973
1.00317
0.9969
0.990534
0.98341
0.977936
0.973322
0.969692
0.966474
0.963919
0.961481
0.959598
0.957697
0.956187
0.954725
0.953447
0.952744
0.952764
0.953743
0.955395
0.964334
0.978097
1.03402
1.14347
1.50695
2.19516
2.73897
2.80819
2.8016
2.73735
2.65023
2.62621
2.62951
2.65295
2.74247
2.83141
2.86344
2.89561
2.95832
3.01003
2.79299
1.00317
0.99685
0.990585
0.983358
0.977992
0.973266
0.969752
0.966414
0.963978
0.961426
0.959642
0.957664
0.956206
0.95471
0.953475
0.952695
0.952873
0.953631
0.955589
0.96524
0.979802
1.03096
1.14881
1.5188
2.18478
2.73465
2.80498
2.80131
2.74132
2.6521
2.6266
2.6302
2.65912
2.75774
2.83996
2.8671
2.89492
2.95764
3.00592
2.78779
1.00317
0.99685
0.990585
0.983358
0.977992
0.973267
0.969752
0.966414
0.963978
0.961426
0.959643
0.957663
0.956207
0.954709
0.953475
0.952693
0.952871
0.953629
0.955578
0.965217
0.979749
1.03086
1.14859
1.5179
2.18467
2.73617
2.80536
2.80137
2.74004
2.65158
2.62651
2.63063
2.66201
2.76303
2.842
2.86736
2.89514
2.95724
3.00346
2.78816
1.00317
0.9969
0.990534
0.98341
0.977936
0.973323
0.969692
0.966475
0.963919
0.961481
0.9596
0.957695
0.956189
0.954723
0.95345
0.952735
0.952757
0.953736
0.955365
0.964264
0.9779
1.0337
1.1427
1.50505
2.19261
2.74233
2.80821
2.80045
2.73208
2.64747
2.62541
2.63005
2.65965
2.75701
2.83701
2.8639
2.89589
2.95775
3.00235
2.795
1.00317
0.996902
0.990531
0.98341
0.977934
0.973322
0.969692
0.966473
0.963922
0.961477
0.959604
0.957689
0.956192
0.954722
0.953447
0.952734
0.95276
0.953739
0.955366
0.964206
0.97786
1.03371
1.14354
1.50532
2.18763
2.74537
2.81142
2.80406
2.73534
2.65071
2.62769
2.63206
2.66178
2.7591
2.83814
2.86503
2.90097
2.96165
3.00254
2.79734
1.00317
0.996899
0.990535
0.983409
0.977936
0.973324
0.96969
0.966477
0.963919
0.961481
0.959602
0.957691
0.956195
0.954717
0.953454
0.952715
0.952742
0.953719
0.955309
0.964111
0.977621
1.03296
1.14136
1.50175
2.18655
2.74737
2.80957
2.79986
2.72717
2.64621
2.62605
2.63129
2.66252
2.76009
2.83742
2.86403
2.90178
2.96185
3.00144
2.79946
1.00317
0.996848
0.990586
0.983356
0.977993
0.973267
0.969751
0.966416
0.963979
0.961422
0.959654
0.957649
0.956225
0.954696
0.95348
0.952657
0.952841
0.953536
0.955507
0.964485
0.979463
1.02916
1.14536
1.51592
2.1701
2.74217
2.80468
2.7981
2.73006
2.64928
2.62804
2.63352
2.66818
2.76772
2.84106
2.8659
2.90282
2.96147
2.99967
2.80155
1.00317
0.996894
0.990541
0.983404
0.97794
0.973321
0.969692
0.966477
0.963919
0.961479
0.959606
0.957684
0.956202
0.95471
0.953459
0.952689
0.952735
0.953712
0.955271
0.963937
0.977224
1.03219
1.13919
1.49496
2.17344
2.74664
2.80182
2.79124
2.71734
2.64057
2.62453
2.63137
2.66913
2.76983
2.84097
2.86507
2.90233
2.9594
2.99711
2.80327
1.00317
0.996849
0.990586
0.983358
0.97799
0.973271
0.969746
0.966421
0.963975
0.961425
0.959655
0.957646
0.956228
0.954693
0.95348
0.95265
0.952814
0.953568
0.955359
0.96488
0.978712
1.02866
1.14281
1.4996
2.15941
2.74822
2.80117
2.79085
2.71756
2.64212
2.62595
2.63306
2.67261
2.77283
2.84121
2.86412
2.9009
2.95721
2.99465
2.80493
1.00317
0.996849
0.990585
0.983359
0.977989
0.973272
0.969744
0.966423
0.963973
0.961426
0.959656
0.957643
0.956233
0.954688
0.953481
0.95264
0.952804
0.953522
0.955319
0.964746
0.978419
1.02791
1.14093
1.49533
2.15005
2.7482
2.79947
2.78921
2.71609
2.64224
2.62685
2.63468
2.67843
2.77917
2.84348
2.86456
2.89934
2.95512
2.99242
2.80636
1.00317
0.996894
0.99054
0.983406
0.977938
0.973325
0.969687
0.966483
0.963914
0.961485
0.959606
0.957681
0.956211
0.954697
0.953467
0.952659
0.9527
0.953628
0.955135
0.963549
0.976462
1.0299
1.13376
1.48121
2.14711
2.75154
2.7959
2.78202
2.70435
2.63562
2.6253
2.63421
2.6817
2.78206
2.84386
2.86375
2.89628
2.94989
2.98893
2.80675
1.00317
0.996845
0.99059
0.983354
0.977993
0.973268
0.969747
0.966422
0.963975
0.961424
0.959663
0.957631
0.956249
0.954673
0.953484
0.952628
0.952739
0.9536
0.955145
0.96461
0.977586
1.02662
1.13532
1.48013
2.12829
2.75264
2.79416
2.77977
2.7027
2.63642
2.6272
2.63647
2.68546
2.7839
2.84333
2.86235
2.89439
2.9458
2.98611
2.80856
1.00317
0.996862
0.990568
0.983375
0.977969
0.973291
0.969723
0.966447
0.963949
0.961448
0.959644
0.957641
0.95625
0.954667
0.953486
0.952619
0.95271
0.953705
0.95501
0.965052
0.976897
1.02646
1.1319
1.46811
2.11283
2.74953
2.78864
2.77364
2.69835
2.6353
2.6279
2.63752
2.68844
2.78548
2.84316
2.86169
2.89335
2.94341
2.98436
2.81218
1.00317
0.996861
0.990568
0.983375
0.977969
0.973292
0.969721
0.966449
0.963947
0.961451
0.959644
0.95764
0.956255
0.954658
0.953494
0.952601
0.952685
0.953647
0.954927
0.964811
0.976379
1.02532
1.12852
1.45953
2.09652
2.7483
2.78241
2.76573
2.69069
2.63257
2.62787
2.63852
2.69315
2.78853
2.84349
2.86101
2.89191
2.9404
2.98197
2.8136
1.00317
0.996847
0.990588
0.983357
0.97799
0.973273
0.969741
0.966429
0.963969
0.961431
0.959664
0.957623
0.956272
0.954644
0.953505
0.952574
0.952667
0.953431
0.954887
0.963934
0.976009
1.02301
1.12532
1.45592
2.07752
2.7461
2.77912
2.76187
2.68871
2.63286
2.62953
2.64088
2.69887
2.79222
2.84398
2.8602
2.88973
2.93674
2.97939
2.81449
1.00317
0.996896
0.990535
0.98341
0.977933
0.973331
0.96968
0.966494
0.963904
0.9615
0.959599
0.957683
0.956224
0.954671
0.953491
0.952569
0.952589
0.953389
0.954727
0.962292
0.974241
1.02321
1.11803
1.44164
2.0664
2.74682
2.77288
2.75296
2.68052
2.62991
2.6296
2.64241
2.7042
2.79524
2.84405
2.85895
2.88657
2.93265
2.97702
2.81571
1.00317
0.996899
0.990532
0.983412
0.97793
0.973334
0.969676
0.966497
0.963901
0.961504
0.959596
0.957687
0.956224
0.954669
0.953495
0.952549
0.952565
0.95333
0.954626
0.962042
0.973703
1.02193
1.11434
1.43102
2.04565
2.74889
2.77144
2.75007
2.67847
2.63014
2.63128
2.64531
2.70907
2.79738
2.84294
2.85633
2.88245
2.92766
2.97406
2.81721
1.00317
0.996897
0.990533
0.983413
0.977931
0.973335
0.969677
0.966499
0.9639
0.961508
0.959592
0.957693
0.95622
0.95467
0.953498
0.952523
0.952532
0.953263
0.954509
0.961676
0.972965
1.01959
1.10852
1.41842
2.01963
2.74594
2.76525
2.74176
2.67171
2.62853
2.6317
2.64716
2.71256
2.79804
2.84125
2.85368
2.87879
2.92263
2.97085
2.81973
1.00317
0.996855
0.990583
0.983364
0.977983
0.97328
0.969732
0.966441
0.963959
0.961448
0.959656
0.957632
0.956283
0.954614
0.953544
0.952472
0.952537
0.953173
0.954459
0.96268
0.973367
1.01642
1.10671
1.40723
1.97677
2.73437
2.75997
2.73657
2.66893
2.6282
2.63255
2.64877
2.71414
2.7976
2.83946
2.85137
2.87605
2.91828
2.96831
2.8229
1.00317
0.996862
0.990577
0.983369
0.977978
0.973286
0.969726
0.966449
0.963952
0.961457
0.959647
0.95764
0.956277
0.954613
0.953551
0.952448
0.952524
0.952967
0.954455
0.961993
0.972987
1.01369
1.10247
1.3938
1.94392
2.71991
2.75685
2.73391
2.66819
2.62793
2.63266
2.64923
2.71465
2.79697
2.83814
2.84975
2.87427
2.91465
2.96616
2.82485
1.00317
0.996895
0.990535
0.983416
0.977928
0.97334
0.969672
0.966509
0.963893
0.961522
0.959581
0.95771
0.956206
0.954679
0.953492
0.952476
0.952435
0.953055
0.95415
0.960716
0.970906
1.01334
1.09239
1.37686
1.92736
2.70869
2.74844
2.72421
2.66172
2.62566
2.63207
2.64997
2.7152
2.79585
2.83636
2.84787
2.87297
2.91154
2.96396
2.82609
1.00317
0.996894
0.990537
0.983413
0.977932
0.973336
0.969676
0.966506
0.963895
0.961521
0.95958
0.957711
0.956203
0.954677
0.953494
0.952459
0.952407
0.952995
0.954053
0.960357
0.970268
1.01131
1.08743
1.36127
1.89062
2.69905
2.74401
2.71847
2.65867
2.62553
2.63295
2.65174
2.71682
2.79496
2.83344
2.84444
2.87023
2.90763
2.96132
2.827
1.00317
0.996889
0.990543
0.983413
0.977933
0.973338
0.969676
0.966509
0.963896
0.961525
0.959578
0.957716
0.956196
0.954686
0.953482
0.952455
0.952351
0.952898
0.953912
0.959951
0.969545
1.00848
1.08128
1.34574
1.85522
2.68216
2.73846
2.71282
2.65719
2.62597
2.63423
2.65361
2.71865
2.79458
2.83126
2.84155
2.86705
2.90444
2.95922
2.82735
1.00317
0.996887
0.990545
0.983413
0.977932
0.97334
0.969676
0.966511
0.963895
0.961527
0.959576
0.957719
0.956193
0.954687
0.95348
0.95244
0.952309
0.952834
0.9538
0.959649
0.968782
1.00631
1.07519
1.32809
1.82228
2.65155
2.72262
2.69763
2.6515
2.62494
2.63447
2.65483
2.72023
2.79396
2.82889
2.83854
2.86338
2.90044
2.95715
2.82726
1.00318
0.99686
0.990575
0.983378
0.977968
0.973301
0.969716
0.966471
0.96394
0.961483
0.959627
0.957669
0.956246
0.954632
0.953535
0.952363
0.952332
0.952686
0.954023
0.959099
0.969117
1.00324
1.0729
1.3071
1.76605
2.62572
2.71983
2.69603
2.65148
2.62579
2.63553
2.65605
2.72131
2.79184
2.82356
2.83223
2.85699
2.89417
2.95369
2.82694
1.00318
0.996882
0.990552
0.98341
0.977936
0.973341
0.969677
0.966513
0.963896
0.961527
0.959577
0.957718
0.95619
0.95469
0.953472
0.952414
0.952222
0.952693
0.953575
0.95899
0.967383
1.00187
1.06474
1.2934
1.73892
2.57898
2.71028
2.6912
2.65161
2.62549
2.63507
2.65552
2.72107
2.78995
2.82013
2.82819
2.85172
2.88789
2.94956
2.82693
1.00318
0.996881
0.990556
0.983407
0.977939
0.97334
0.969679
0.966514
0.963897
0.961525
0.959578
0.957715
0.956191
0.954688
0.953469
0.952401
0.952178
0.95262
0.953459
0.958651
0.966694
0.99977
1.05921
1.2785
1.71427
2.52701
2.68976
2.67634
2.64783
2.62452
2.63384
2.65408
2.71965
2.78616
2.81477
2.82256
2.84641
2.88196
2.9462
2.82666
1.00319
0.996851
0.990581
0.98338
0.977969
0.973309
0.969714
0.96648
0.963933
0.961489
0.959617
0.957672
0.956237
0.954636
0.95352
0.95233
0.952195
0.952467
0.953635
0.958221
0.966998
0.997025
1.05666
1.26109
1.66727
2.51421
2.68986
2.67589
2.64822
2.62589
2.63414
2.65373
2.71768
2.78249
2.81015
2.81774
2.84135
2.87663
2.94127
2.82567
1.00318
0.996882
0.990559
0.983404
0.977945
0.973338
0.969682
0.966515
0.963894
0.961527
0.959574
0.957713
0.956192
0.954682
0.953471
0.952371
0.952088
0.952477
0.953232
0.958011
0.965328
0.995841
1.04955
1.24973
1.63951
2.4626
2.68592
2.67377
2.64807
2.62632
2.63385
2.65322
2.71595
2.77773
2.80358
2.81085
2.83419
2.86857
2.9374
2.82393
1.00318
0.996884
0.990558
0.983404
0.977947
0.973337
0.969684
0.966514
0.963893
0.961528
0.959571
0.957713
0.956192
0.954679
0.953473
0.952354
0.952045
0.952404
0.953126
0.957693
0.964683
0.993951
1.04464
1.23718
1.61382
2.42258
2.67231
2.66263
2.6454
2.62513
2.63249
2.65195
2.71408
2.77374
2.79801
2.80474
2.82826
2.86177
2.93042
2.82028
1.00319
0.996847
0.99059
0.983377
0.977974
0.973313
0.969714
0.966484
0.963927
0.961493
0.959605
0.957676
0.95623
0.954634
0.953519
0.952287
0.952058
0.952273
0.953083
0.958508
0.964605
0.994503
1.04236
1.21962
1.5904
2.4262
2.66785
2.65916
2.64121
2.62265
2.6297
2.64969
2.71121
2.76756
2.79007
2.79623
2.81847
2.85338
2.92585
2.81731
1.00319
0.996849
0.990591
0.983378
0.977976
0.973314
0.969711
0.966486
0.963922
0.961496
0.9596
0.957682
0.956224
0.954639
0.953512
0.952282
0.952013
0.952224
0.953022
0.958061
0.964127
0.992177
1.03905
1.2045
1.56971
2.40431
2.66229
2.65641
2.63974
2.62158
2.62808
2.64797
2.70882
2.76281
2.78363
2.78921
2.81027
2.84179
2.9155
2.81109
1.00318
0.99686
0.990586
0.98338
0.977976
0.973314
0.969709
0.966488
0.963917
0.961497
0.959596
0.957684
0.95622
0.954641
0.953508
0.952269
0.951962
0.952139
0.952862
0.957892
0.963343
0.991502
1.03414
1.19425
1.54727
2.38925
2.65657
2.65226
2.63531
2.61862
2.62478
2.64578
2.7061
2.75613
2.77488
2.77964
2.80014
2.83323
2.90906
2.806
1.00317
0.996917
0.990529
0.983434
0.977926
0.973358
0.969665
0.966525
0.963878
0.961533
0.959563
0.957716
0.956186
0.954675
0.953467
0.952294
0.95187
0.952106
0.952719
0.956421
0.962214
0.986859
1.02842
1.18717
1.51918
2.34178
2.64739
2.64664
2.63187
2.61431
2.6202
2.64274
2.70401
2.75114
2.76791
2.77162
2.78895
2.81833
2.89473
2.79502
1.00317
0.996932
0.990518
0.983444
0.977916
0.973365
0.969656
0.966533
0.963866
0.961546
0.959548
0.957727
0.956178
0.954675
0.953466
0.952277
0.951826
0.952029
0.952617
0.956115
0.961623
0.985266
1.02431
1.17754
1.49664
2.28512
2.62841
2.64106
2.62912
2.61103
2.61658
2.63973
2.69947
2.74163
2.75604
2.75896
2.77693
2.80754
2.8852
2.78601
1.00317
0.996923
0.990537
0.983417
0.977946
0.973326
0.969694
0.966488
0.963908
0.961504
0.959583
0.957697
0.956204
0.954648
0.953489
0.952238
0.951817
0.951931
0.952543
0.956846
0.96151
0.986463
1.02294
1.16148
1.4871
2.28496
2.61155
2.63612
2.62685
2.6097
2.6147
2.63745
2.69558
2.73488
2.74737
2.74875
2.76233
2.78779
2.86482
2.76685
1.00317
0.996947
0.990511
0.983437
0.977923
0.973344
0.969674
0.966503
0.963897
0.961508
0.959581
0.957697
0.9562
0.954649
0.953483
0.952227
0.951768
0.951869
0.952447
0.956453
0.96094
0.984808
1.01956
1.15107
1.46443
2.2691
2.60319
2.63275
2.62339
2.6085
2.6127
2.63479
2.68936
2.72491
2.73626
2.7368
2.74917
2.77427
2.84847
2.74984
1.00315
0.996978
0.990471
0.983464
0.977886
0.973368
0.969638
0.966529
0.963857
0.961534
0.959544
0.957713
0.956173
0.954657
0.953462
0.952222
0.9517
0.951799
0.952692
0.954393
0.963521
0.976426
1.02386
1.12761
1.43952
2.193
2.59772
2.63301
2.61841
2.60608
2.60974
2.63295
2.68589
2.71876
2.72842
2.72719
2.7339
2.74802
2.82078
2.71415
1.00315
0.996994
0.99045
0.983482
0.977866
0.97338
0.969625
0.966537
0.963845
0.961546
0.959527
0.957727
0.956156
0.95467
0.953446
0.952217
0.951652
0.951719
0.952783
0.954052
0.963686
0.974601
1.02131
1.11415
1.41095
2.11756
2.57998
2.63206
2.61739
2.60183
2.60312
2.62798
2.67815
2.70586
2.71404
2.7118
2.71793
2.73011
2.7898
2.67681
1.00315
0.997007
0.990424
0.983508
0.977832
0.973411
0.969593
0.966565
0.963816
0.961574
0.959495
0.957757
0.956123
0.954698
0.953417
0.952236
0.951578
0.951675
0.952399
0.953945
0.961959
0.973456
1.01629
1.105
1.38169
2.06006
2.54933
2.6275
2.61629
2.60063
2.60149
2.62637
2.67327
2.69741
2.70374
2.6988
2.69904
2.69459
2.75121
2.59999
1.02214
1.02696
1.02402
1.02125
1.01831
1.01491
1.01209
1.0094
1.00717
1.00504
1.00326
1.00158
1.00002
0.998767
0.99743
0.996984
0.996973
0.998023
1.00007
1.01009
1.02763
1.08819
1.22097
1.63002
2.40908
2.85474
2.92084
2.89258
2.73916
2.6761
2.67288
2.71957
2.81903
2.86547
2.90878
2.93846
2.93666
2.94028
2.97056
2.79603
1.02216
1.02695
1.0241
1.02118
1.01838
1.01484
1.01216
1.00934
1.00721
1.005
1.00329
1.00156
1.00004
0.998736
0.997464
0.996949
0.997065
0.997701
1.00142
1.00742
1.03306
1.08033
1.22843
1.65718
2.38781
2.85206
2.91569
2.89141
2.74218
2.67608
2.67258
2.72231
2.82208
2.86599
2.90834
2.93727
2.9349
2.93834
2.96381
2.78966
1.02216
1.02695
1.0241
1.02118
1.01838
1.01484
1.01216
1.00934
1.00721
1.005
1.00329
1.00155
1.00004
0.998735
0.997464
0.996947
0.997062
0.997698
1.00141
1.0074
1.033
1.08021
1.22817
1.65647
2.38738
2.85336
2.91557
2.89047
2.74054
2.67642
2.67369
2.72665
2.82443
2.86705
2.90911
2.93656
2.93302
2.93572
2.95909
2.78898
1.02214
1.02696
1.02402
1.02125
1.01831
1.01491
1.01209
1.0094
1.00717
1.00504
1.00326
1.00158
1.00002
0.998764
0.99743
0.996978
0.996967
0.998022
1.00005
1.01004
1.02721
1.08813
1.21959
1.62776
2.40614
2.85779
2.91993
2.88877
2.73365
2.67712
2.67617
2.73152
2.82554
2.86867
2.91104
2.93568
2.92992
2.93154
2.95571
2.79514
1.02215
1.02695
1.02407
1.0212
1.01836
1.01486
1.01214
1.00936
1.0072
1.00501
1.00328
1.00157
1.00002
0.99876
0.997436
0.996963
0.997036
0.997606
1.00219
1.00775
1.03342
1.08057
1.22413
1.65753
2.3897
2.85878
2.9212
2.88898
2.73148
2.67701
2.67693
2.735
2.8268
2.87319
2.91616
2.93677
2.92887
2.92994
2.95311
2.79613
1.02214
1.02696
1.02402
1.02125
1.0183
1.01491
1.01209
1.00941
1.00717
1.00504
1.00327
1.00156
1.00003
0.998753
0.997433
0.996961
0.996948
0.998013
1.00001
1.00995
1.02671
1.0881
1.21756
1.62334
2.40082
2.86127
2.92018
2.88454
2.72735
2.67775
2.67862
2.73975
2.8284
2.87591
2.91862
2.93625
2.92619
2.92568
2.94964
2.79709
1.02216
1.02694
1.02411
1.02116
1.01839
1.01483
1.01217
1.00933
1.00723
1.00498
1.00331
1.00152
1.00008
0.998688
0.9975
0.996878
0.997038
0.997606
1.0011
1.00719
1.03206
1.07902
1.22728
1.64285
2.37346
2.85467
2.91065
2.87965
2.72833
2.67782
2.67869
2.74195
2.82943
2.8774
2.91965
2.93498
2.92336
2.92131
2.94659
2.79857
1.02214
1.02696
1.02403
1.02125
1.01831
1.01491
1.01209
1.0094
1.00717
1.00503