/*--------------------------------*- C++ -*----------------------------------*\
  =========                 |
  \\      /  F ield         | OpenFOAM: The Open Source CFD Toolbox
   \\    /   O peration     | Website:  https://openfoam.org
    \\  /    A nd           | Version:  6.0
     \\/     M anipulation  |
\*---------------------------------------------------------------------------*/
FoamFile
{
    version     2.0;
    format      ascii;
    class       volVectorField;
    location    "1";
    object      U;
}
// * * * * * * * * * * * * * * * * * * * * * * * * * * * * * * * * * * * * * //

dimensions      [0 1 -1 0 0 0 0];

internalField   nonuniform List<vector> 
4800
(
(3 -8.18916e-14 0)
(3 -4.95907e-13 0)
(3 -1.48529e-12 0)
(3 -3.14982e-12 0)
(3 -5.2648e-12 0)
(3 -6.68347e-12 0)
(3 -3.85835e-12 0)
(3 1.24331e-11 0)
(3 6.38519e-11 0)
(3 1.97765e-10 0)
(3 5.12017e-10 0)
(3 1.19867e-09 0)
(3 2.61656e-09 0)
(3 5.40251e-09 0)
(2.99999 1.06243e-08 0)
(2.99998 1.99564e-08 0)
(2.99996 3.58168e-08 0)
(2.99992 6.13344e-08 0)
(2.99984 9.99579e-08 0)
(2.99968 1.54544e-07 0)
(2.99934 2.26108e-07 0)
(2.99864 3.13386e-07 0)
(2.99721 4.16359e-07 0)
(2.99427 5.49611e-07 0)
(2.98818 7.72526e-07 0)
(2.9755 1.23179e-06 0)
(2.94866 2.1436e-06 0)
(2.88983 3.30898e-06 0)
(2.75157 9.06895e-07 0)
(2.37624 -3.30156e-05 0)
(0.0901313 -1.78112e-05 0)
(-1.66761 0.00131014 0)
(-1.25619 0.00173344 0)
(-0.815547 0.00545818 0)
(-0.442498 0.00270788 0)
(-0.109593 -0.035195 0)
(0.0707838 -0.0116088 0)
(0.339464 0.0527143 0)
(-0.323287 -0.145766 0)
(-1.36056 -0.0473418 0)
(3 -1.95486e-13 0)
(3 -1.22593e-12 0)
(3 -3.82318e-12 0)
(3 -8.49171e-12 0)
(3 -1.52458e-11 0)
(3 -2.25647e-11 0)
(3 -2.45166e-11 0)
(3 -4.00384e-12 0)
(3 8.18282e-11 0)
(3 3.31425e-10 0)
(3 9.57163e-10 0)
(3 2.39462e-09 0)
(3 5.49857e-09 0)
(3 1.18798e-08 0)
(2.99999 2.44603e-08 0)
(2.99998 4.83522e-08 0)
(2.99996 9.2209e-08 0)
(2.99992 1.70281e-07 0)
(2.99984 3.0562e-07 0)
(2.99968 5.35415e-07 0)
(2.99934 9.20699e-07 0)
(2.99864 1.56534e-06 0)
(2.99721 2.65443e-06 0)
(2.99427 4.53144e-06 0)
(2.98818 7.85e-06 0)
(2.9755 1.38646e-05 0)
(2.94866 2.49747e-05 0)
(2.88983 4.56704e-05 0)
(2.75155 8.51782e-05 0)
(2.37615 0.000131394 0)
(0.0888534 -0.000228306 0)
(-1.6681 0.00390682 0)
(-1.25645 0.0053253 0)
(-0.812009 0.0155935 0)
(-0.43135 -0.00952355 0)
(-0.0996199 -0.0429933 0)
(0.0996763 0.184706 0)
(0.332599 0.236768 0)
(-0.146987 0.0964887 0)
(-1.29418 0.100943 0)
(3 -2.29822e-13 0)
(3 -1.5394e-12 0)
(3 -5.13905e-12 0)
(3 -1.22516e-11 0)
(3 -2.42411e-11 0)
(3 -4.24051e-11 0)
(3 -6.65071e-11 0)
(3 -9.03504e-11 0)
(3 -9.08679e-11 0)
(3 -3.37517e-12 0)
(3 3.31897e-10 0)
(3 1.28124e-09 0)
(3 3.64284e-09 0)
(3 9.09132e-09 0)
(2.99999 2.10369e-08 0)
(2.99998 4.62548e-08 0)
(2.99996 9.79228e-08 0)
(2.99992 2.01187e-07 0)
(2.99984 4.03214e-07 0)
(2.99968 7.91109e-07 0)
(2.99934 1.52359e-06 0)
(2.99864 2.88678e-06 0)
(2.99722 5.39285e-06 0)
(2.99427 9.9559e-06 0)
(2.98818 1.82093e-05 0)
(2.97551 3.30831e-05 0)
(2.94867 5.98663e-05 0)
(2.88985 0.000108193 0)
(2.75159 0.000199874 0)
(2.37614 0.000320669 0)
(0.0916665 -0.00051759 0)
(-1.66488 0.00614843 0)
(-1.2495 0.00963256 0)
(-0.805917 0.023162 0)
(-0.43369 -0.0265239 0)
(-0.0853794 0.222412 0)
(-0.188838 0.309201 0)
(0.168427 0.249508 0)
(0.0873912 0.281618 0)
(-1.14974 0.326419 0)
(3 -2.53678e-13 0)
(3 -1.79623e-12 0)
(3 -6.32209e-12 0)
(3 -1.59147e-11 0)
(3 -3.37915e-11 0)
(3 -6.55082e-11 0)
(3 -1.20212e-10 0)
(3 -2.1158e-10 0)
(3 -3.57462e-10 0)
(3 -5.75436e-10 0)
(3 -8.67297e-10 0)
(3 -1.17608e-09 0)
(3 -1.27805e-09 0)
(3 -5.25777e-10 0)
(2.99999 2.74098e-09 0)
(2.99998 1.25061e-08 0)
(2.99996 3.79136e-08 0)
(2.99992 9.92367e-08 0)
(2.99984 2.40083e-07 0)
(2.99968 5.51646e-07 0)
(2.99934 1.21955e-06 0)
(2.99865 2.61189e-06 0)
(2.99722 5.43996e-06 0)
(2.99427 1.10422e-05 0)
(2.98819 2.18603e-05 0)
(2.97552 4.21601e-05 0)
(2.94868 7.88668e-05 0)
(2.88988 0.000141611 0)
(2.75164 0.000244113 0)
(2.376 0.000272377 0)
(0.0932787 -0.00113845 0)
(-1.66225 0.00857614 0)
(-1.24294 0.0196567 0)
(-0.803728 0.0305666 0)
(-0.434399 0.0366565 0)
(-0.162701 0.212236 0)
(-0.568014 0.282219 0)
(-0.371611 0.320339 0)
(-1.07636 0.412279 0)
(-1.35083 0.445483 0)
(3 -2.89892e-13 0)
(3 -2.13689e-12 0)
(3 -7.77371e-12 0)
(3 -2.02109e-11 0)
(3 -4.47983e-11 0)
(3 -9.20818e-11 0)
(3 -1.82159e-10 0)
(3 -3.51705e-10 0)
(3 -6.65652e-10 0)
(3 -1.23647e-09 0)
(3 -2.25551e-09 0)
(3 -4.04289e-09 0)
(3 -7.12345e-09 0)
(3 -1.23324e-08 0)
(2.99999 -2.093e-08 0)
(2.99998 -3.46272e-08 0)
(2.99996 -5.51989e-08 0)
(2.99992 -8.28146e-08 0)
(2.99984 -1.10936e-07 0)
(2.99968 -1.1289e-07 0)
(2.99934 -9.61356e-09 0)
(2.99865 4.02667e-07 0)
(2.99722 1.60513e-06 0)
(2.99428 4.65875e-06 0)
(2.9882 1.17525e-05 0)
(2.97553 2.70425e-05 0)
(2.94871 5.74205e-05 0)
(2.88992 0.000111223 0)
(2.7517 0.00019688 0)
(2.37572 0.00010029 0)
(0.0953371 -0.00266186 0)
(-1.65807 0.0127322 0)
(-1.23949 0.0327223 0)
(-0.808672 0.0405635 0)
(-0.394237 0.108619 0)
(-0.267186 0.158031 0)
(-0.797278 -0.11416 0)
(-0.4797 0.173324 0)
(-1.35339 0.441873 0)
(-1.5842 0.439833 0)
(3 -3.64295e-13 0)
(3 -2.69501e-12 0)
(3 -9.77386e-12 0)
(3 -2.53278e-11 0)
(3 -5.65945e-11 0)
(3 -1.18871e-10 0)
(3 -2.43195e-10 0)
(3 -4.90302e-10 0)
(3 -9.76377e-10 0)
(3 -1.9201e-09 0)
(3 -3.72777e-09 0)
(3 -7.14689e-09 0)
(3 -1.35432e-08 0)
(3 -2.54014e-08 0)
(2.99999 -4.72304e-08 0)
(2.99998 -8.71881e-08 0)
(2.99996 -1.59963e-07 0)
(2.99992 -2.91758e-07 0)
(2.99984 -5.28546e-07 0)
(2.99968 -9.48867e-07 0)
(2.99934 -1.6814e-06 0)
(2.99865 -2.92365e-06 0)
(2.99722 -4.94828e-06 0)
(2.99428 -8.06574e-06 0)
(2.9882 -1.25038e-05 0)
(2.97553 -1.82744e-05 0)
(2.94873 -2.5767e-05 0)
(2.88997 -4.04655e-05 0)
(2.7518 -8.22418e-05 0)
(2.37531 -0.00051255 0)
(0.101986 -0.00540926 0)
(-1.65102 0.0169277 0)
(-1.2376 0.041668 0)
(-0.795618 0.0548421 0)
(-0.395713 0.0946403 0)
(-0.280219 0.184705 0)
(-0.642277 -0.396737 0)
(-0.427207 -0.0974613 0)
(-1.05437 0.715796 0)
(-0.816293 0.959522 0)
(3 -6.8188e-13 0)
(3 -4.47771e-12 0)
(3 -1.47319e-11 0)
(3 -3.5779e-11 0)
(3 -7.64203e-11 0)
(3 -1.55454e-10 0)
(3 -3.1156e-10 0)
(3 -6.22712e-10 0)
(3 -1.24457e-09 0)
(3 -2.48539e-09 0)
(3 -4.95019e-09 0)
(3 -9.81577e-09 0)
(3 -1.93522e-08 0)
(3 -3.79071e-08 0)
(2.99999 -7.37585e-08 0)
(2.99998 -1.42597e-07 0)
(2.99996 -2.74061e-07 0)
(2.99992 -5.23999e-07 0)
(2.99984 -9.97407e-07 0)
(2.99968 -1.89114e-06 0)
(2.99934 -3.57281e-06 0)
(2.99864 -6.72464e-06 0)
(2.99722 -1.26029e-05 0)
(2.99427 -2.35053e-05 0)
(2.98819 -4.36422e-05 0)
(2.97553 -8.09459e-05 0)
(2.94872 -0.000151558 0)
(2.88997 -0.000292997 0)
(2.7518 -0.000594469 0)
(2.37447 -0.00165551 0)
(0.111736 -0.00969566 0)
(-1.64389 0.0181278 0)
(-1.23103 0.0481144 0)
(-0.779752 0.0720003 0)
(-0.385195 0.117724 0)
(-0.229163 0.165248 0)
(-0.554103 0.00298703 0)
(-0.512967 0.457331 0)
(-0.842802 0.426684 0)
(-0.426096 -0.244141 0)
(3 -1.4201e-12 0)
(3 -8.30345e-12 0)
(3 -2.45851e-11 0)
(3 -5.58902e-11 0)
(3 -1.13789e-10 0)
(3 -2.21732e-10 0)
(3 -4.2593e-10 0)
(3 -8.17488e-10 0)
(3 -1.57773e-09 0)
(3 -3.07031e-09 0)
(3 -6.02706e-09 0)
(3 -1.19202e-08 0)
(3 -2.37019e-08 0)
(3 -4.72631e-08 0)
(2.99999 -9.42843e-08 0)
(2.99998 -1.87769e-07 0)
(2.99996 -3.72712e-07 0)
(2.99992 -7.36579e-07 0)
(2.99984 -1.44857e-06 0)
(2.99968 -2.83499e-06 0)
(2.99934 -5.52421e-06 0)
(2.99864 -1.07269e-05 0)
(2.99721 -2.07796e-05 0)
(2.99427 -4.02093e-05 0)
(2.98818 -7.78583e-05 0)
(2.9755 -0.000151318 0)
(2.94867 -0.000296938 0)
(2.88989 -0.000595108 0)
(2.75161 -0.00123195 0)
(2.37291 -0.0031076 0)
(0.121017 -0.0151523 0)
(-1.63625 0.0173408 0)
(-1.22091 0.0559877 0)
(-0.762345 0.0880641 0)
(-0.373459 0.16044 0)
(-0.151375 0.170229 0)
(-0.415311 0.260936 0)
(-0.310028 0.45448 0)
(-0.245417 -0.504146 0)
(-0.0494992 -1.25906 0)
(3 -2.38138e-12 0)
(3 -1.30457e-11 0)
(3 -3.62252e-11 0)
(3 -7.96699e-11 0)
(3 -1.59577e-10 0)
(3 -3.07372e-10 0)
(3 -5.82472e-10 0)
(3 -1.09791e-09 0)
(3 -2.07194e-09 0)
(3 -3.9324e-09 0)
(3 -7.52831e-09 0)
(3 -1.45601e-08 0)
(3 -2.84534e-08 0)
(3 -5.61286e-08 0)
(2.99999 -1.11571e-07 0)
(2.99998 -2.22988e-07 0)
(2.99996 -4.47071e-07 0)
(2.99992 -8.97211e-07 0)
(2.99984 -1.79902e-06 0)
(2.99968 -3.59925e-06 0)
(2.99934 -7.17947e-06 0)
(2.99864 -1.42769e-05 0)
(2.99721 -2.83192e-05 0)
(2.99426 -5.6097e-05 0)
(2.98816 -0.000111176 0)
(2.97546 -0.000221061 0)
(2.94858 -0.000443043 0)
(2.88971 -0.000902342 0)
(2.75117 -0.00188829 0)
(2.37041 -0.00460515 0)
(0.126513 -0.0208664 0)
(-1.62849 0.0171111 0)
(-1.20988 0.0650825 0)
(-0.74466 0.105886 0)
(-0.357233 0.206308 0)
(-0.0863542 0.223015 0)
(-0.285945 0.429077 0)
(-0.124267 0.456179 0)
(0.0533516 -0.0102313 0)
(0.171562 -0.22872 0)
(3 -2.98352e-12 0)
(3 -1.56734e-11 0)
(3 -4.17454e-11 0)
(3 -9.07036e-11 0)
(3 -1.83102e-10 0)
(3 -3.5896e-10 0)
(3 -6.94398e-10 0)
(3 -1.33436e-09 0)
(3 -2.55656e-09 0)
(3 -4.89684e-09 0)
(3 -9.39676e-09 0)
(3 -1.80959e-08 0)
(3 -3.50183e-08 0)
(3 -6.81608e-08 0)
(2.99999 -1.33527e-07 0)
(2.99998 -2.63337e-07 0)
(2.99996 -5.22755e-07 0)
(2.99992 -1.04389e-06 0)
(2.99984 -2.09457e-06 0)
(2.99968 -4.21651e-06 0)
(2.99934 -8.50147e-06 0)
(2.99864 -1.71413e-05 0)
(2.9972 -3.45253e-05 0)
(2.99424 -6.94443e-05 0)
(2.98813 -0.000139585 0)
(2.97539 -0.000280929 0)
(2.94846 -0.000568265 0)
(2.88944 -0.00116341 0)
(2.7505 -0.0024388 0)
(2.36698 -0.00583044 0)
(0.127501 -0.0257905 0)
(-1.61989 0.0192723 0)
(-1.1971 0.0742382 0)
(-0.725693 0.126817 0)
(-0.3373 0.244448 0)
(-0.0399637 0.286537 0)
(-0.124655 0.516985 0)
(0.0318908 0.47649 0)
(0.161188 0.14052 0)
(0.238436 0.0823139 0)
(3 -2.58333e-12 0)
(3 -1.30103e-11 0)
(3 -3.32534e-11 0)
(3 -7.24239e-11 0)
(3 -1.51561e-10 0)
(3 -3.13559e-10 0)
(3 -6.43733e-10 0)
(3 -1.31044e-09 0)
(3 -2.64428e-09 0)
(3 -5.29233e-09 0)
(3 -1.05195e-08 0)
(3 -2.07993e-08 0)
(3 -4.09775e-08 0)
(3 -8.05748e-08 0)
(2.99999 -1.58377e-07 0)
(2.99998 -3.11653e-07 0)
(2.99996 -6.14823e-07 0)
(2.99992 -1.21751e-06 0)
(2.99984 -2.42236e-06 0)
(2.99967 -4.84405e-06 0)
(2.99933 -9.73289e-06 0)
(2.99863 -1.96296e-05 0)
(2.99719 -3.96836e-05 0)
(2.99422 -8.03035e-05 0)
(2.98809 -0.000162517 0)
(2.97532 -0.000328989 0)
(2.94829 -0.000667477 0)
(2.8891 -0.0013644 0)
(2.74964 -0.00284338 0)
(2.36286 -0.00666317 0)
(0.125466 -0.029161 0)
(-1.60991 0.0253473 0)
(-1.18134 0.0839782 0)
(-0.704399 0.146617 0)
(-0.314237 0.271204 0)
(-0.0126944 0.347896 0)
(0.0230732 0.518957 0)
(0.125522 0.495006 0)
(0.175375 0.226304 0)
(0.2406 0.164233 0)
(3 -9.83492e-13 0)
(3 -4.27944e-12 0)
(3 -9.27351e-12 0)
(3 -2.13915e-11 0)
(3 -5.57332e-11 0)
(3 -1.46963e-10 0)
(3 -3.70552e-10 0)
(3 -8.85629e-10 0)
(3 -2.02034e-09 0)
(3 -4.44163e-09 0)
(3 -9.49318e-09 0)
(3 -1.9869e-08 0)
(3 -4.09558e-08 0)
(3 -8.35069e-08 0)
(2.99999 -1.68959e-07 0)
(2.99998 -3.39998e-07 0)
(2.99996 -6.8159e-07 0)
(2.99992 -1.36306e-06 0)
(2.99984 -2.72287e-06 0)
(2.99967 -5.44074e-06 0)
(2.99933 -1.08887e-05 0)
(2.99863 -2.18483e-05 0)
(2.99718 -4.39705e-05 0)
(2.9942 -8.87362e-05 0)
(2.98804 -0.00017944 0)
(2.97522 -0.000363324 0)
(2.94811 -0.000736664 0)
(2.8887 -0.0014998 0)
(2.74867 -0.00309876 0)
(2.35831 -0.00711258 0)
(0.123216 -0.0308826 0)
(-1.59794 0.0344097 0)
(-1.1625 0.0953917 0)
(-0.681658 0.166621 0)
(-0.289349 0.285562 0)
(0.00237724 0.392143 0)
(0.115843 0.494457 0)
(0.172069 0.507035 0)
(0.151954 0.294341 0)
(0.218624 0.224012 0)
(3 1.13228e-12 0)
(3 6.89678e-12 0)
(3 2.07748e-11 0)
(3 4.41763e-11 0)
(3 7.47876e-11 0)
(3 9.96048e-11 0)
(3 7.85539e-11 0)
(3 -9.08211e-11 0)
(3 -6.47487e-10 0)
(3 -2.12055e-09 0)
(3 -5.64558e-09 0)
(3 -1.36146e-08 0)
(3 -3.101e-08 0)
(3 -6.81394e-08 0)
(2.99999 -1.46219e-07 0)
(2.99998 -3.08706e-07 0)
(2.99996 -6.44132e-07 0)
(2.99992 -1.3318e-06 0)
(2.99984 -2.73291e-06 0)
(2.99967 -5.5725e-06 0)
(2.99933 -1.13047e-05 0)
(2.99862 -2.28506e-05 0)
(2.99717 -4.60988e-05 0)
(2.99418 -9.29586e-05 0)
(2.98799 -0.000187555 0)
(2.97513 -0.000378739 0)
(2.9479 -0.000765396 0)
(2.88827 -0.00154985 0)
(2.74761 -0.00317426 0)
(2.35353 -0.00715754 0)
(0.122038 -0.0311184 0)
(-1.58373 0.0439804 0)
(-1.14155 0.1089 0)
(-0.659599 0.189134 0)
(-0.265712 0.294873 0)
(0.0126045 0.419042 0)
(0.167631 0.479657 0)
(0.193797 0.506656 0)
(0.122012 0.347791 0)
(0.187605 0.266563 0)
(3 2.5742e-12 0)
(3 1.44605e-11 0)
(3 4.14817e-11 0)
(3 9.28077e-11 0)
(3 1.82527e-10 0)
(3 3.29308e-10 0)
(3 5.51637e-10 0)
(3 8.51777e-10 0)
(3 1.17323e-09 0)
(3 1.29954e-09 0)
(3 6.26935e-10 0)
(3 -2.33012e-09 0)
(3 -1.09957e-08 0)
(3 -3.2973e-08 0)
(2.99999 -8.47785e-08 0)
(2.99998 -2.01818e-07 0)
(2.99996 -4.59296e-07 0)
(2.99992 -1.01567e-06 0)
(2.99984 -2.20197e-06 0)
(2.99967 -4.70339e-06 0)
(2.99932 -9.92556e-06 0)
(2.99861 -2.07308e-05 0)
(2.99715 -4.29182e-05 0)
(2.99415 -8.82045e-05 0)
(2.98795 -0.000180213 0)
(2.97503 -0.000366407 0)
(2.9477 -0.000741633 0)
(2.88783 -0.0014958 0)
(2.74652 -0.00303607 0)
(2.34867 -0.00674039 0)
(0.121327 -0.0297833 0)
(-1.5673 0.053943 0)
(-1.11936 0.124324 0)
(-0.638246 0.21097 0)
(-0.243723 0.306807 0)
(0.0209638 0.430566 0)
(0.19302 0.476409 0)
(0.203363 0.499632 0)
(0.0982924 0.383411 0)
(0.149853 0.298527 0)
(3 2.7805e-12 0)
(3 1.55534e-11 0)
(3 4.51526e-11 0)
(3 1.05812e-10 0)
(3 2.24509e-10 0)
(3 4.49277e-10 0)
(3 8.61055e-10 0)
(3 1.58791e-09 0)
(3 2.81621e-09 0)
(3 4.78323e-09 0)
(3 7.71301e-09 0)
(3 1.16082e-08 0)
(3 1.57066e-08 0)
(3 1.71868e-08 0)
(2.99999 8.22576e-09 0)
(2.99998 -3.05573e-08 0)
(2.99996 -1.44582e-07 0)
(2.99992 -4.37143e-07 0)
(2.99984 -1.13891e-06 0)
(2.99967 -2.75788e-06 0)
(2.99932 -6.398e-06 0)
(2.99861 -1.44245e-05 0)
(2.99714 -3.18311e-05 0)
(2.99413 -6.90031e-05 0)
(2.9879 -0.000147203 0)
(2.97493 -0.000309182 0)
(2.94749 -0.000639052 0)
(2.88739 -0.00129974 0)
(2.74544 -0.00262971 0)
(2.34389 -0.00577789 0)
(0.121244 -0.026673 0)
(-1.54822 0.0649772 0)
(-1.09583 0.14043 0)
(-0.617149 0.230859 0)
(-0.22515 0.321087 0)
(0.0287667 0.428867 0)
(0.206175 0.480744 0)
(0.206663 0.501546 0)
(0.0811783 0.407064 0)
(0.121413 0.326047 0)
(3 2.20543e-12 0)
(3 1.24935e-11 0)
(3 3.72435e-11 0)
(3 9.12686e-11 0)
(3 2.0559e-10 0)
(3 4.42283e-10 0)
(3 9.21112e-10 0)
(3 1.86509e-09 0)
(3 3.67483e-09 0)
(3 7.04309e-09 0)
(3 1.31188e-08 0)
(3 2.37151e-08 0)
(3 4.15153e-08 0)
(3 7.01273e-08 0)
(2.99999 1.13602e-07 0)
(2.99998 1.74492e-07 0)
(2.99996 2.48234e-07 0)
(2.99992 3.08589e-07 0)
(2.99984 2.71642e-07 0)
(2.99967 -9.06108e-08 0)
(2.99932 -1.35193e-06 0)
(2.99861 -4.88864e-06 0)
(2.99714 -1.38819e-05 0)
(2.99411 -3.54431e-05 0)
(2.98786 -8.49435e-05 0)
(2.97485 -0.000194365 0)
(2.94732 -0.000427207 0)
(2.88699 -0.000903604 0)
(2.74442 -0.00186425 0)
(2.33937 -0.00415981 0)
(0.121555 -0.0218535 0)
(-1.52636 0.0749956 0)
(-1.07079 0.155359 0)
(-0.596024 0.248678 0)
(-0.209564 0.337643 0)
(0.0365541 0.429491 0)
(0.215649 0.490453 0)
(0.205644 0.511135 0)
(0.0683631 0.427778 0)
(0.105556 0.344739 0)
(3 1.56364e-12 0)
(3 8.9945e-12 0)
(3 2.74361e-11 0)
(3 6.92211e-11 0)
(3 1.61795e-10 0)
(3 3.64243e-10 0)
(3 8.00307e-10 0)
(3 1.72233e-09 0)
(3 3.63163e-09 0)
(3 7.49851e-09 0)
(3 1.51526e-08 0)
(3 2.99519e-08 0)
(3 5.78853e-08 0)
(3 1.09303e-07 0)
(2.99999 2.01482e-07 0)
(2.99998 3.62189e-07 0)
(2.99996 6.34199e-07 0)
(2.99992 1.08019e-06 0)
(2.99984 1.78551e-06 0)
(2.99967 2.85027e-06 0)
(2.99932 4.3449e-06 0)
(2.9986 6.16026e-06 0)
(2.99713 7.58833e-06 0)
(2.9941 6.28468e-06 0)
(2.98784 -4.03832e-06 0)
(2.9748 -3.81392e-05 0)
(2.9472 -0.000126593 0)
(2.88669 -0.000324575 0)
(2.74356 -0.000732925 0)
(2.33523 -0.00180774 0)
(0.118573 -0.014888 0)
(-1.50209 0.0853847 0)
(-1.04439 0.169568 0)
(-0.574393 0.264948 0)
(-0.194475 0.355587 0)
(0.0450587 0.438097 0)
(0.223814 0.502612 0)
(0.202375 0.522744 0)
(0.0567585 0.455032 0)
(0.0962516 0.358828 0)
(3 1.17744e-12 0)
(3 6.79226e-12 0)
(3 2.07497e-11 0)
(3 5.23305e-11 0)
(3 1.22761e-10 0)
(3 2.7959e-10 0)
(3 6.27446e-10 0)
(3 1.39235e-09 0)
(3 3.05321e-09 0)
(3 6.60493e-09 0)
(3 1.40742e-08 0)
(3 2.95093e-08 0)
(3 6.0837e-08 0)
(3 1.23249e-07 0)
(2.99999 2.45178e-07 0)
(2.99998 4.78437e-07 0)
(2.99996 9.14829e-07 0)
(2.99992 1.71258e-06 0)
(2.99984 3.13827e-06 0)
(2.99967 5.63437e-06 0)
(2.99932 9.92972e-06 0)
(2.99861 1.72151e-05 0)
(2.99714 2.9395e-05 0)
(2.99411 4.93812e-05 0)
(2.98784 8.13459e-05 0)
(2.97479 0.000131092 0)
(2.94716 0.000208347 0)
(2.88655 0.000338527 0)
(2.74304 0.000597254 0)
(2.33208 0.00102037 0)
(0.115671 -0.00600085 0)
(-1.47453 0.0983207 0)
(-1.0152 0.185677 0)
(-0.55298 0.282636 0)
(-0.179456 0.371613 0)
(0.0547118 0.450168 0)
(0.231342 0.515971 0)
(0.200017 0.535772 0)
(0.0465662 0.48252 0)
(0.0889481 0.377522 0)
(3 9.98829e-13 0)
(3 5.69001e-12 0)
(3 1.70588e-11 0)
(3 4.21136e-11 0)
(3 9.68661e-11 0)
(3 2.1748e-10 0)
(3 4.85034e-10 0)
(3 1.0796e-09 0)
(3 2.39627e-09 0)
(3 5.28972e-09 0)
(3 1.15815e-08 0)
(3 2.50991e-08 0)
(3 5.37793e-08 0)
(3 1.13877e-07 0)
(2.99999 2.38244e-07 0)
(2.99998 4.92213e-07 0)
(2.99996 1.00307e-06 0)
(2.99992 2.01261e-06 0)
(2.99984 3.96723e-06 0)
(2.99967 7.66866e-06 0)
(2.99932 1.45273e-05 0)
(2.99861 2.70054e-05 0)
(2.99714 4.94321e-05 0)
(2.99412 8.9554e-05 0)
(2.98787 0.000161506 0)
(2.97483 0.000291684 0)
(2.94721 0.000531612 0)
(2.88659 0.000990706 0)
(2.74293 0.00192753 0)
(2.33024 0.00388237 0)
(0.116942 0.00326702 0)
(-1.44342 0.111048 0)
(-0.986052 0.202203 0)
(-0.532939 0.303686 0)
(-0.165008 0.385488 0)
(0.0662408 0.465744 0)
(0.238759 0.531603 0)
(0.19756 0.550194 0)
(0.0377918 0.501126 0)
(0.0839894 0.402125 0)
(3 8.77112e-13 0)
(3 4.92009e-12 0)
(3 1.44539e-11 0)
(3 3.49903e-11 0)
(3 7.89883e-11 0)
(3 1.7432e-10 0)
(3 3.8331e-10 0)
(3 8.45219e-10 0)
(3 1.87001e-09 0)
(3 4.14216e-09 0)
(3 9.15643e-09 0)
(3 2.01359e-08 0)
(3 4.39467e-08 0)
(3 9.50714e-08 0)
(2.99999 2.03852e-07 0)
(2.99998 4.33556e-07 0)
(2.99996 9.15423e-07 0)
(2.99992 1.91911e-06 0)
(2.99984 3.98955e-06 0)
(2.99967 8.20106e-06 0)
(2.99933 1.6608e-05 0)
(2.99862 3.30175e-05 0)
(2.99716 6.43163e-05 0)
(2.99414 0.000122868 0)
(2.98791 0.000231229 0)
(2.9749 0.000432213 0)
(2.94734 0.000811742 0)
(2.88682 0.00155414 0)
(2.74327 0.00309342 0)
(2.32984 0.00645997 0)
(0.122772 0.0119724 0)
(-1.40883 0.123326 0)
(-0.955523 0.216779 0)
(-0.51215 0.32141 0)
(-0.151689 0.400676 0)
(0.0794027 0.48777 0)
(0.245222 0.552802 0)
(0.193463 0.563614 0)
(0.0315819 0.521367 0)
(0.0820112 0.431896 0)
(3 7.23018e-13 0)
(3 4.01544e-12 0)
(3 1.16546e-11 0)
(3 2.79818e-11 0)
(3 6.28154e-11 0)
(3 1.37963e-10 0)
(3 3.01751e-10 0)
(3 6.61608e-10 0)
(3 1.4572e-09 0)
(3 3.22355e-09 0)
(3 7.15054e-09 0)
(3 1.5862e-08 0)
(3 3.50742e-08 0)
(3 7.7073e-08 0)
(2.99999 1.67942e-07 0)
(2.99998 3.62598e-07 0)
(2.99996 7.76345e-07 0)
(2.99992 1.6518e-06 0)
(2.99984 3.50122e-06 0)
(2.99968 7.40484e-06 0)
(2.99933 1.5616e-05 0)
(2.99863 3.27299e-05 0)
(2.99717 6.7821e-05 0)
(2.99418 0.000138182 0)
(2.98797 0.000275833 0)
(2.97501 0.000539653 0)
(2.94755 0.00104153 0)
(2.88721 0.00201246 0)
(2.74401 0.00400155 0)
(2.3309 0.00841445 0)
(0.13673 0.0188944 0)
(-1.37095 0.135324 0)
(-0.92495 0.231293 0)
(-0.489409 0.328452 0)
(-0.137039 0.420003 0)
(0.0947271 0.515095 0)
(0.249226 0.573568 0)
(0.189407 0.577273 0)
(0.0281615 0.549391 0)
(0.0809944 0.463563 0)
(3 5.43092e-13 0)
(3 2.99627e-12 0)
(3 8.63695e-12 0)
(3 2.07395e-11 0)
(3 4.68818e-11 0)
(3 1.04056e-10 0)
(3 2.29882e-10 0)
(3 5.07483e-10 0)
(3 1.12124e-09 0)
(3 2.48258e-09 0)
(3 5.51367e-09 0)
(3 1.22826e-08 0)
(3 2.74052e-08 0)
(3 6.10789e-08 0)
(2.99999 1.35509e-07 0)
(2.99998 2.98269e-07 0)
(2.99996 6.4979e-07 0)
(2.99992 1.40009e-06 0)
(2.99984 2.98782e-06 0)
(2.99968 6.33634e-06 0)
(2.99934 1.34135e-05 0)
(2.99864 2.84518e-05 0)
(2.99719 6.05303e-05 0)
(2.99421 0.00012877 0)
(2.98804 0.000272156 0)
(2.97516 0.0005672 0)
(2.94782 0.00115989 0)
(2.88774 0.00233246 0)
(2.74507 0.00470478 0)
(2.33295 0.0098466 0)
(0.157926 0.023267 0)
(-1.32957 0.141365 0)
(-0.897426 0.243255 0)
(-0.466997 0.334527 0)
(-0.117933 0.444376 0)
(0.109564 0.533228 0)
(0.250938 0.589958 0)
(0.18826 0.597091 0)
(0.0263715 0.580396 0)
(0.0797576 0.495829 0)
(3 3.92036e-13 0)
(3 2.13767e-12 0)
(3 6.0816e-12 0)
(3 1.4568e-11 0)
(3 3.32766e-11 0)
(3 7.52743e-11 0)
(3 1.69818e-10 0)
(3 3.81639e-10 0)
(3 8.53521e-10 0)
(3 1.9013e-09 0)
(3 4.22805e-09 0)
(3 9.41017e-09 0)
(3 2.1001e-08 0)
(3 4.70153e-08 0)
(2.99999 1.05431e-07 0)
(2.99998 2.36102e-07 0)
(2.99996 5.25896e-07 0)
(2.99992 1.16051e-06 0)
(2.99984 2.52978e-06 0)
(2.99968 5.44196e-06 0)
(2.99934 1.15702e-05 0)
(2.99864 2.44177e-05 0)
(2.99721 5.14772e-05 0)
(2.99425 0.00010911 0)
(2.98812 0.000233345 0)
(2.97532 0.00050267 0)
(2.94816 0.00108365 0)
(2.88845 0.00232165 0)
(2.74656 0.0049715 0)
(2.33611 0.0108485 0)
(0.178469 0.0273057 0)
(-1.28638 0.148209 0)
(-0.869268 0.255918 0)
(-0.444445 0.35261 0)
(-0.0978973 0.457436 0)
(0.121573 0.541225 0)
(0.255981 0.607542 0)
(0.189469 0.618462 0)
(0.0247891 0.607946 0)
(0.0779697 0.53236 0)
(3 2.91543e-13 0)
(3 1.55427e-12 0)
(3 4.29438e-12 0)
(3 1.01433e-11 0)
(3 2.33134e-11 0)
(3 5.37915e-11 0)
(3 1.24315e-10 0)
(3 2.85651e-10 0)
(3 6.4996e-10 0)
(3 1.46387e-09 0)
(3 3.27004e-09 0)
(3 7.26921e-09 0)
(3 1.61418e-08 0)
(3 3.59281e-08 0)
(2.99999 8.03296e-08 0)
(2.99998 1.8046e-07 0)
(2.99996 4.06537e-07 0)
(2.99992 9.14921e-07 0)
(2.99984 2.04711e-06 0)
(2.99968 4.53222e-06 0)
(2.99934 9.89274e-06 0)
(2.99865 2.12571e-05 0)
(2.99722 4.50299e-05 0)
(2.99427 9.4503e-05 0)
(2.98818 0.000198095 0)
(2.97545 0.000418754 0)
(2.94847 0.000899765 0)
(2.88918 0.00197284 0)
(2.7484 0.00445093 0)
(2.34114 0.0104451 0)
(0.214171 0.0302637 0)
(-1.23974 0.17074 0)
(-0.838932 0.275888 0)
(-0.424894 0.369471 0)
(-0.0793815 0.455017 0)
(0.136165 0.553392 0)
(0.262316 0.632098 0)
(0.190622 0.632489 0)
(0.0257131 0.631871 0)
(0.0780663 0.568491 0)
(3 2.21893e-13 0)
(3 1.1403e-12 0)
(3 3.01148e-12 0)
(3 6.97116e-12 0)
(3 1.61906e-11 0)
(3 3.84046e-11 0)
(3 9.15416e-11 0)
(3 2.1618e-10 0)
(3 5.02759e-10 0)
(3 1.15063e-09 0)
(3 2.59628e-09 0)
(3 5.79387e-09 0)
(3 1.28368e-08 0)
(3 2.83558e-08 0)
(2.99999 6.27088e-08 0)
(2.99998 1.39319e-07 0)
(2.99996 3.11553e-07 0)
(2.99992 7.01152e-07 0)
(2.99985 1.584e-06 0)
(2.99968 3.57618e-06 0)
(2.99935 8.02448e-06 0)
(2.99865 1.77985e-05 0)
(2.99723 3.88575e-05 0)
(2.9943 8.33329e-05 0)
(2.98823 0.000175778 0)
(2.97556 0.000366726 0)
(2.94871 0.000764891 0)
(2.88976 0.00162122 0)
(2.74998 0.00359361 0)
(2.34657 0.00853719 0)
(0.281247 0.0264983 0)
(-1.1878 0.186724 0)
(-0.81311 0.282021 0)
(-0.408305 0.371176 0)
(-0.0601659 0.458583 0)
(0.156786 0.572938 0)
(0.267629 0.661164 0)
(0.189987 0.64481 0)
(0.0291068 0.658292 0)
(0.0782172 0.598372 0)
(3 1.57532e-13 0)
(3 7.70301e-13 0)
(3 1.92384e-12 0)
(3 4.43757e-12 0)
(3 1.07897e-11 0)
(3 2.71915e-11 0)
(3 6.83245e-11 0)
(3 1.67952e-10 0)
(3 4.02232e-10 0)
(3 9.40342e-10 0)
(3 2.15365e-09 0)
(3 4.85064e-09 0)
(3 1.07841e-08 0)
(3 2.37562e-08 0)
(2.99999 5.20592e-08 0)
(2.99998 1.13963e-07 0)
(2.99996 2.50247e-07 0)
(2.99992 5.53085e-07 0)
(2.99985 1.23271e-06 0)
(2.99968 2.76967e-06 0)
(2.99935 6.25529e-06 0)
(2.99866 1.41307e-05 0)
(2.99724 3.17331e-05 0)
(2.99432 7.04082e-05 0)
(2.98827 0.000153588 0)
(2.97565 0.000328589 0)
(2.94891 0.000690729 0)
(2.89022 0.00144001 0)
(2.75111 0.00306442 0)
(2.35016 0.00684834 0)
(0.344508 0.0188919 0)
(-1.13759 0.175429 0)
(-0.791943 0.278036 0)
(-0.387138 0.379912 0)
(-0.0356743 0.475824 0)
(0.180747 0.597427 0)
(0.271677 0.673056 0)
(0.189254 0.661459 0)
(0.0332245 0.687227 0)
(0.0770262 0.630262 0)
(3 5.97892e-14 0)
(3 2.63766e-13 0)
(3 6.12447e-13 0)
(3 1.71125e-12 0)
(3 5.56231e-12 0)
(3 1.74345e-11 0)
(3 5.01999e-11 0)
(3 1.34095e-10 0)
(3 3.3817e-10 0)
(3 8.16756e-10 0)
(3 1.90917e-09 0)
(3 4.35216e-09 0)
(3 9.731e-09 0)
(3 2.14383e-08 0)
(2.99999 4.67257e-08 0)
(2.99998 1.01152e-07 0)
(2.99996 2.18397e-07 0)
(2.99992 4.72342e-07 0)
(2.99985 1.02759e-06 0)
(2.99968 2.25624e-06 0)
(2.99935 5.00778e-06 0)
(2.99866 1.12259e-05 0)
(2.99725 2.53271e-05 0)
(2.99434 5.71852e-05 0)
(2.98831 0.000128343 0)
(2.97575 0.00028443 0)
(2.9491 0.000619484 0)
(2.89065 0.00132624 0)
(2.75209 0.00284149 0)
(2.35256 0.00617685 0)
(0.386104 0.0148713 0)
(-1.08995 0.162096 0)
(-0.765106 0.290495 0)
(-0.362055 0.415008 0)
(-0.0107171 0.508897 0)
(0.200805 0.608914 0)
(0.273436 0.674054 0)
(0.194344 0.681637 0)
(0.0391823 0.718501 0)
(0.0759748 0.668217 0)
(3 -3.0633e-14 0)
(3 -1.62063e-13 0)
(3 -3.67663e-13 0)
(3 -2.51261e-13 0)
(3 1.66144e-12 0)
(3 9.62528e-12 0)
(3 3.47777e-11 0)
(3 1.0465e-10 0)
(3 2.84464e-10 0)
(3 7.23734e-10 0)
(3 1.75655e-09 0)
(3 4.11461e-09 0)
(3 9.3758e-09 0)
(3 2.0904e-08 0)
(2.99999 4.58178e-08 0)
(2.99998 9.91357e-08 0)
(2.99996 2.12598e-07 0)
(2.99993 4.53742e-07 0)
(2.99985 9.67935e-07 0)
(2.99968 2.07283e-06 0)
(2.99935 4.47393e-06 0)
(2.99867 9.76095e-06 0)
(2.99726 2.15493e-05 0)
(2.99436 4.80737e-05 0)
(2.98835 0.000107953 0)
(2.97583 0.000242625 0)
(2.94929 0.000542455 0)
(2.89107 0.0012022 0)
(2.7531 0.00267114 0)
(2.35495 0.00597234 0)
(0.422031 0.0145474 0)
(-1.04046 0.16396 0)
(-0.727886 0.303836 0)
(-0.332508 0.437639 0)
(0.00583724 0.538526 0)
(0.214551 0.607618 0)
(0.278792 0.687417 0)
(0.202717 0.705781 0)
(0.0474766 0.750991 0)
(0.0750858 0.706956 0)
(3 1.33693e-14 0)
(3 1.37179e-13 0)
(3 6.26903e-13 0)
(3 1.97182e-12 0)
(3 5.54905e-12 0)
(3 1.50882e-11 0)
(3 4.04351e-11 0)
(3 1.06802e-10 0)
(3 2.76423e-10 0)
(3 6.97581e-10 0)
(3 1.7128e-09 0)
(3 4.09277e-09 0)
(3 9.53387e-09 0)
(3 2.17036e-08 0)
(2.99999 4.84205e-08 0)
(2.99998 1.06185e-07 0)
(2.99996 2.29605e-07 0)
(2.99993 4.91132e-07 0)
(2.99985 1.04283e-06 0)
(2.99968 2.20608e-06 0)
(2.99935 4.66769e-06 0)
(2.99867 9.9156e-06 0)
(2.99726 2.12213e-05 0)
(2.99437 4.58732e-05 0)
(2.98838 0.000100256 0)
(2.9759 0.000221331 0)
(2.94945 0.000492419 0)
(2.89147 0.0011024 0)
(2.7541 0.00251142 0)
(2.35765 0.00583779 0)
(0.460579 0.0154106 0)
(-0.990822 0.174055 0)
(-0.688422 0.307173 0)
(-0.300976 0.429729 0)
(0.0242313 0.541826 0)
(0.227468 0.6146 0)
(0.288055 0.707218 0)
(0.212415 0.730417 0)
(0.0578602 0.775469 0)
(0.0744899 0.743603 0)
(3 2.13424e-13 0)
(3 1.26377e-12 0)
(3 3.9089e-12 0)
(3 9.52436e-12 0)
(3 2.09497e-11 0)
(3 4.42402e-11 0)
(3 9.3008e-11 0)
(3 1.98856e-10 0)
(3 4.35684e-10 0)
(3 9.75023e-10 0)
(3 2.20943e-09 0)
(3 5.02249e-09 0)
(3 1.137e-08 0)
(3 2.55143e-08 0)
(2.99999 5.66185e-08 0)
(2.99998 1.24153e-07 0)
(2.99996 2.69102e-07 0)
(2.99993 5.77146e-07 0)
(2.99985 1.22669e-06 0)
(2.99969 2.5889e-06 0)
(2.99935 5.43826e-06 0)
(2.99867 1.14011e-05 0)
(2.99727 2.39264e-05 0)
(2.99438 5.04202e-05 0)
(2.98841 0.000107016 0)
(2.97596 0.000229408 0)
(2.9496 0.000497953 0)
(2.89184 0.00109849 0)
(2.75505 0.0024998 0)
(2.36047 0.00591782 0)
(0.503585 0.0166424 0)
(-0.942074 0.185834 0)
(-0.653185 0.312718 0)
(-0.27231 0.431472 0)
(0.0473515 0.543133 0)
(0.245742 0.629847 0)
(0.298704 0.727349 0)
(0.220585 0.756187 0)
(0.0700154 0.794567 0)
(0.0763509 0.780982 0)
(3 4.98789e-13 0)
(3 2.85652e-12 0)
(3 8.59305e-12 0)
(3 2.08668e-11 0)
(3 4.59222e-11 0)
(3 9.614e-11 0)
(3 1.96841e-10 0)
(3 4.01199e-10 0)
(3 8.22914e-10 0)
(3 1.7077e-09 0)
(3 3.58874e-09 0)
(3 7.62187e-09 0)
(3 1.6302e-08 0)
(3 3.49823e-08 0)
(2.99999 7.50692e-08 0)
(2.99998 1.60698e-07 0)
(2.99996 3.42599e-07 0)
(2.99993 7.26779e-07 0)
(2.99985 1.53373e-06 0)
(2.99969 3.22071e-06 0)
(2.99936 6.73522e-06 0)
(2.99868 1.40444e-05 0)
(2.99728 2.92514e-05 0)
(2.9944 6.09822e-05 0)
(2.98844 0.000127571 0)
(2.97603 0.00026859 0)
(2.94976 0.000571438 0)
(2.8922 0.00123689 0)
(2.75598 0.00277369 0)
(2.36336 0.00656329 0)
(0.547884 0.0190004 0)
(-0.89346 0.196707 0)
(-0.619687 0.328127 0)
(-0.242552 0.450494 0)
(0.0707299 0.560596 0)
(0.264999 0.647743 0)
(0.311114 0.744656 0)
(0.228648 0.781636 0)
(0.0834317 0.819338 0)
(0.0805606 0.822163 0)
(3 8.23733e-13 0)
(3 4.69803e-12 0)
(3 1.41508e-11 0)
(3 3.47521e-11 0)
(3 7.74991e-11 0)
(3 1.63933e-10 0)
(3 3.36884e-10 0)
(3 6.82757e-10 0)
(3 1.37828e-09 0)
(3 2.78949e-09 0)
(3 5.68203e-09 0)
(3 1.16681e-08 0)
(3 2.41529e-08 0)
(3 5.03315e-08 0)
(2.99999 1.0538e-07 0)
(2.99998 2.21206e-07 0)
(2.99996 4.64653e-07 0)
(2.99993 9.7518e-07 0)
(2.99985 2.04264e-06 0)
(2.99969 4.26744e-06 0)
(2.99936 8.89023e-06 0)
(2.99868 1.84721e-05 0)
(2.99729 3.83051e-05 0)
(2.99441 7.93653e-05 0)
(2.98848 0.000164584 0)
(2.97611 0.000342483 0)
(2.94994 0.000718096 0)
(2.89262 0.00152882 0)
(2.75701 0.00336828 0)
(2.36653 0.00789611 0)
(0.591898 0.0229336 0)
(-0.844181 0.206677 0)
(-0.586948 0.351512 0)
(-0.212194 0.472951 0)
(0.0938855 0.582817 0)
(0.283527 0.669323 0)
(0.324132 0.759039 0)
(0.238369 0.80274 0)
(0.099646 0.850062 0)
(0.0866344 0.860456 0)
(3 1.11298e-12 0)
(3 6.4457e-12 0)
(3 1.97845e-11 0)
(3 4.93808e-11 0)
(3 1.11594e-10 0)
(3 2.38658e-10 0)
(3 4.94582e-10 0)
(3 1.00757e-09 0)
(3 2.03703e-09 0)
(3 4.11358e-09 0)
(3 8.33417e-09 0)
(3 1.69849e-08 0)
(3 3.48552e-08 0)
(3 7.20005e-08 0)
(2.99999 1.49524e-07 0)
(2.99998 3.11614e-07 0)
(2.99996 6.50478e-07 0)
(2.99993 1.35775e-06 0)
(2.99985 2.83e-06 0)
(2.99969 5.88449e-06 0)
(2.99936 1.21993e-05 0)
(2.99868 2.52102e-05 0)
(2.9973 5.19442e-05 0)
(2.99444 0.000106791 0)
(2.98853 0.00021938 0)
(2.97622 0.000451468 0)
(2.95016 0.000934934 0)
(2.89311 0.00196497 0)
(2.75821 0.00427238 0)
(2.37012 0.00994895 0)
(0.632996 0.0287631 0)
(-0.793873 0.216101 0)
(-0.552934 0.376301 0)
(-0.182017 0.498785 0)
(0.117766 0.607625 0)
(0.300481 0.693462 0)
(0.336165 0.775425 0)
(0.251204 0.825973 0)
(0.117392 0.883202 0)
(0.0920278 0.896461 0)
(3 1.2925e-12 0)
(3 7.76242e-12 0)
(3 2.47956e-11 0)
(3 6.37409e-11 0)
(3 1.47461e-10 0)
(3 3.21985e-10 0)
(3 6.80109e-10 0)
(3 1.4092e-09 0)
(3 2.88894e-09 0)
(3 5.89299e-09 0)
(3 1.20075e-08 0)
(3 2.45031e-08 0)
(3 5.01516e-08 0)
(3 1.03008e-07 0)
(2.99999 2.12259e-07 0)
(2.99998 4.38436e-07 0)
(2.99996 9.06786e-07 0)
(2.99993 1.87567e-06 0)
(2.99985 3.87626e-06 0)
(2.99969 7.99708e-06 0)
(2.99936 1.64627e-05 0)
(2.99869 3.38102e-05 0)
(2.99731 6.92864e-05 0)
(2.99447 0.000141765 0)
(2.98859 0.000289975 0)
(2.97635 0.000594368 0)
(2.95044 0.00122627 0)
(2.89373 0.00256863 0)
(2.75967 0.00556557 0)
(2.37445 0.0129802 0)
(0.670816 0.0376612 0)