/*--------------------------------*- C++ -*----------------------------------*\
  =========                 |
  \\      /  F ield         | OpenFOAM: The Open Source CFD Toolbox
   \\    /   O peration     | Website:  https://openfoam.org
    \\  /    A nd           | Version:  6.0
     \\/     M anipulation  |
\*---------------------------------------------------------------------------*/
FoamFile
{
    version     2.0;
    format      ascii;
    class       volScalarField;
    location    "1.5";
    object      p;
}
// * * * * * * * * * * * * * * * * * * * * * * * * * * * * * * * * * * * * * //

dimensions      [1 -1 -2 0 0 0 0];

internalField   nonuniform List<scalar> 
24000
(
0.70407
0.583425
0.535429
0.500229
0.478618
0.460642
0.458443
0.459679
0.465337
0.482985
0.530846
0.656264
1.00259
2.09422
5.62162
5.4725
4.96497
4.40149
4.16043
4.30243
0.704069
0.583426
0.535426
0.500232
0.478612
0.460647
0.458441
0.459667
0.465286
0.4828
0.530241
0.654401
0.997297
2.07976
5.69026
5.51381
4.97782
4.40872
4.16472
4.30056
0.704068
0.583427
0.535422
0.500236
0.478602
0.460656
0.458436
0.459646
0.465191
0.482462
0.529187
0.651328
0.989056
2.06096
5.8087
5.59005
4.99851
4.41948
4.17146
4.29644
0.704067
0.58343
0.535417
0.500242
0.478587
0.460665
0.458433
0.45962
0.465069
0.482043
0.527934
0.647815
0.979531
2.04174
5.95278
5.68354
5.01716
4.43442
4.17893
4.28908
0.704065
0.583434
0.535411
0.500245
0.47857
0.46067
0.458432
0.459598
0.464961
0.481681
0.526891
0.645009
0.97194
2.0253
6.09679
5.77678
5.02894
4.45094
4.18609
4.27878
0.704066
0.583435
0.535406
0.500245
0.478554
0.460662
0.458436
0.45959
0.464903
0.481476
0.526303
0.643442
0.967505
2.01243
6.22915
5.86246
5.03257
4.46891
4.19266
4.26355
0.704072
0.583434
0.535402
0.500238
0.478543
0.460633
0.458442
0.459596
0.464911
0.481481
0.526294
0.643391
0.967054
2.00779
6.34005
5.9338
5.03448
4.48358
4.19581
4.24036
0.704082
0.583428
0.5354
0.500222
0.478542
0.460574
0.458441
0.45961
0.464977
0.481688
0.526862
0.644913
0.970958
2.01414
6.43312
5.99387
5.0389
4.49084
4.1933
4.2086
0.704097
0.583417
0.535401
0.500194
0.478556
0.460478
0.458427
0.459621
0.465082
0.482051
0.527893
0.647745
0.978738
2.03224
6.51152
6.04545
5.04649
4.48897
4.18151
4.16839
0.704115
0.583402
0.535407
0.500153
0.478589
0.460337
0.458389
0.459619
0.46521
0.482523
0.529221
0.651353
0.989039
2.06149
6.57743
6.09008
5.05569
4.47452
4.1566
4.1218
0.704135
0.583384
0.535417
0.500102
0.478643
0.460143
0.458316
0.45959
0.465339
0.483061
0.530734
0.655366
1.00075
2.09791
6.6369
6.13033
5.06467
4.44521
4.1196
4.07182
0.704156
0.583363
0.535428
0.500045
0.478714
0.459896
0.458197
0.459517
0.465433
0.483589
0.53226
0.659255
1.01173
2.13277
6.69069
6.16734
5.07228
4.39968
4.07078
4.02337
0.704175
0.583341
0.535437
0.499993
0.478791
0.459606
0.458026
0.459387
0.465463
0.484034
0.533588
0.662332
1.01942
2.15613
6.73055
6.19587
5.079
4.33434
4.0127
3.98076
0.70419
0.583321
0.535442
0.499957
0.478851
0.459307
0.457788
0.459185
0.465398
0.484315
0.534558
0.66443
1.02328
2.16384
6.7467
6.20924
5.07746
4.2478
3.94732
3.94655
0.704202
0.583303
0.53544
0.499948
0.478869
0.459053
0.457461
0.45888
0.465166
0.48429
0.535059
0.665912
1.02523
2.16161
6.74131
6.20735
5.06159
4.14286
3.87649
3.92199
0.704207
0.58329
0.535432
0.499973
0.478828
0.458909
0.457006
0.458414
0.464678
0.483884
0.535132
0.66707
1.02631
2.15137
6.71257
6.18887
5.01611
4.03064
3.80229
3.9014
0.704205
0.583284
0.535416
0.500027
0.47873
0.45891
0.456377
0.457743
0.463944
0.483173
0.534738
0.667613
1.0275
2.1423
6.65906
6.14421
4.94619
3.92217
3.72598
3.87309
0.704198
0.583285
0.535394
0.500106
0.478593
0.459032
0.455574
0.4569
0.463021
0.482113
0.533518
0.666484
1.02668
2.13858
6.59342
6.07339
4.87627
3.82637
3.64737
3.82062
0.704186
0.583297
0.535369
0.500199
0.478429
0.459246
0.454638
0.455905
0.461841
0.480489
0.531056
0.662971
1.02264
2.13333
6.50953
5.99446
4.81164
3.75568
3.55313
3.71356
0.704177
0.583313
0.535342
0.500295
0.478244
0.459565
0.453551
0.454716
0.460333
0.478238
0.527384
0.657161
1.01447
2.11848
6.37207
5.89145
4.77313
3.70107
3.42871
3.4867
1.04721
1.03819
1.01442
0.975537
0.951562
0.929447
0.929841
0.934413
0.951026
0.997026
1.1133
1.40477
2.18294
4.59249
12.8319
12.0289
10.5098
9.29018
8.75674
8.98223
1.04721
1.03819
1.01442
0.97554
0.951553
0.929452
0.929843
0.934396
0.950942
0.996754
1.11257
1.40309
2.18097
4.60064
12.9751
12.0897
10.5024
9.28042
8.75194
8.97246
1.0472
1.03818
1.01441
0.975547
0.951536
0.929463
0.929847
0.93437
0.950822
0.996392
1.11171
1.40163
2.18158
4.61706
13.1852
12.1825
10.4823
9.27207
8.74444
8.95545
1.0472
1.03818
1.01441
0.975555
0.951512
0.929478
0.929857
0.93436
0.950762
0.996257
1.11166
1.40256
2.18961
4.6529
13.3856
12.2632
10.4421
9.26291
8.73331
8.93054
1.0472
1.03818
1.01441
0.975562
0.951482
0.929499
0.92988
0.934398
0.950861
0.996618
1.11305
1.40797
2.21332
4.71635
13.5401
12.3032
10.3855
9.25007
8.71875
8.89533
1.0472
1.03818
1.0144
0.975566
0.951449
0.929522
0.929919
0.934494
0.951144
0.99749
1.11583
1.41752
2.25144
4.81849
13.6363
12.3049
10.3152
9.23305
8.69852
8.84763
1.0472
1.03819
1.0144
0.975562
0.951417
0.929536
0.929959
0.934634
0.951582
0.99881
1.11985
1.43063
2.29968
4.94646
13.6873
12.2863
10.2463
9.20295
8.66949
8.78633
1.0472
1.03819
1.0144
0.975547
0.951393
0.929523
0.929982
0.934785
0.952114
1.00044
1.12472
1.44592
2.35374
5.11203
13.6942
12.2541
10.1848
9.15635
8.62812
8.71006
1.04721
1.0382
1.01439
0.975519
0.951386
0.929462
0.929961
0.93491
0.952666
1.0022
1.12994
1.46204
2.4114
5.32054
13.6631
12.2115
10.1308
9.09124
8.56976
8.61876
1.04722
1.03821
1.01439
0.975478
0.951399
0.929333
0.929875
0.934973
0.95316
1.00389
1.13504
1.47793
2.46858
5.55272
13.6229
12.1627
10.0813
9.00384
8.49022
8.51417
1.04723
1.03822
1.01438
0.97543
0.951431
0.929122
0.929703
0.934937
0.953508
1.0053
1.13954
1.49277
2.52457
5.78861
13.5943
12.1169
10.0305
8.89072
8.38879
8.40021
1.04725
1.03822
1.01438
0.97538
0.951473
0.928826
0.929438
0.934775
0.953626
1.00619
1.14276
1.5043
2.57122
6.00079
13.586
12.0838
9.97389
8.74688
8.26627
8.28321
1.04726
1.03823
1.01436
0.975334
0.951513
0.928452
0.929079
0.934466
0.95347
1.00647
1.14433
1.51058
2.59963
6.15068
13.5876
12.0597
9.90696
8.56916
8.12428
8.17
1.04727
1.03823
1.01435
0.975297
0.951542
0.92801
0.928623
0.933997
0.953049
1.00623
1.14438
1.51167
2.60775
6.21738
13.5807
12.0349
9.81248
8.3582
7.96494
8.06571
1.04729
1.03822
1.01432
0.975276
0.951552
0.927505
0.928077
0.933407
0.952403
1.00535
1.14275
1.5085
2.60088
6.21112
13.5525
12.0066
9.67044
8.11991
7.78972
7.97003
1.04728
1.03821
1.01431
0.975282
0.951526
0.926952
0.927511
0.932769
0.951443
1.00364
1.13947
1.50076
2.57577
6.13438
13.5071
11.9657
9.47396
7.87042
7.60203
7.86826
1.04727
1.0382
1.01429
0.975321
0.951432
0.92646
0.926979
0.93189
0.949917
1.0013
1.13529
1.48926
2.52881
5.93896
13.4256
11.8886
9.25594
7.63265
7.4072
7.7365
1.04726
1.03819
1.01426
0.975388
0.95126
0.926239
0.926117
0.930514
0.948094
0.998596
1.12994
1.47416
2.46733
5.66396
13.3049
11.7576
9.07389
7.42945
7.20611
7.53675
1.04726
1.03818
1.01423
0.975471
0.951051
0.926229
0.924748
0.928946
0.945937
0.99501
1.12272
1.45545
2.39886
5.3764
13.1559
11.6096
8.93421
7.28466
6.98459
7.22228
1.04725
1.03817
1.01421
0.975557
0.950833
0.926278
0.92314
0.927057
0.943203
0.990283
1.11347
1.43439
2.33266
5.11614
12.941
11.4429
8.84686
7.18203
6.72201
6.70609
1.07439
1.13278
1.14427
1.14157
1.13473
1.12489
1.12727
1.13689
1.16387
1.23123
1.39419
1.79694
2.87761
6.39977
18.2022
16.1978
13.7353
12.065
11.3642
11.5615
1.07439
1.13278
1.14427
1.14157
1.13473
1.1249
1.12729
1.13691
1.16393
1.23147
1.39531
1.80191
2.90154
6.51196
18.2884
16.2041
13.6917
12.0497
11.3513
11.5476
1.07438
1.13279
1.14427
1.14156
1.13472
1.12492
1.12732
1.13698
1.16415
1.23225
1.3983
1.81335
2.94897
6.69704
18.3342
16.1731
13.6054
12.027
11.3248
11.5175
1.07438
1.1328
1.14426
1.14156
1.1347
1.12496
1.12738
1.13714
1.16465
1.23393
1.40391
1.83236
3.01935
6.94852
18.2691
16.0674
13.483
11.9917
11.2866
11.4713
1.07437
1.13281
1.14425
1.14155
1.13468
1.125
1.12746
1.1374
1.16548
1.23648
1.41173
1.85719
3.11024
7.32114
18.0529
15.8929
13.3421
11.9403
11.2366
11.4084
1.07436
1.13283
1.14424
1.14154
1.13466
1.12505
1.12758
1.13775
1.16653
1.23955
1.4208
1.88576
3.21642
7.76589
17.7898
15.6916
13.1901
11.8739
11.1734
11.3284
1.07436
1.13286
1.14423
1.14153
1.13464
1.12511
1.1277
1.13813
1.16769
1.2429
1.43055
1.91563
3.32249
8.23099
17.5429
15.4949
13.046
11.7826
11.0947
11.2316
1.07435
1.13289
1.14422
1.14151
1.13461
1.12517
1.12782
1.13852
1.16887
1.24631
1.44029
1.94453
3.42325
8.79223
17.2432
15.3003
12.9161
11.6637
10.9979
11.1176
1.07434
1.13292
1.1442
1.1415
1.13458
1.12519
1.1279
1.13885
1.16998
1.24956
1.44948
1.97145
3.51874
9.38786
16.9527
15.1089
12.7993
11.5176
10.8794
10.986
1.07434
1.13296
1.14419
1.14148
1.13456
1.12514
1.12791
1.13907
1.17088
1.25241
1.45787
1.99677
3.60874
9.95801
16.715
14.9221
12.6901
11.3434
10.7364
10.8376
1.07434
1.13299
1.14417
1.14146
1.13455
1.12502
1.12781
1.13913
1.17144
1.25453
1.46491
2.02036
3.69645
10.4937
16.5189
14.7459
12.5849
11.1353
10.5685
10.6751
1.07434
1.13302
1.14415
1.14144
1.13454
1.1248
1.1276
1.13897
1.17153
1.25557
1.46946
2.03877
3.77532
10.9731
16.3659
14.5988
12.4714
10.8893
10.3767
10.5042
1.07434
1.13304
1.14413
1.14142
1.13454
1.12449
1.12727
1.1386
1.17117
1.25549
1.47102
2.04894
3.83136
11.3346
16.2645
14.4883
12.3366
10.6066
10.1625
10.333
1.07435
1.13305
1.1441
1.1414
1.13454
1.12409
1.12682
1.13805
1.17042
1.25444
1.46991
2.05097
3.85868
11.5377
16.2031
14.4052
12.1534
10.2921
9.92825
10.1681
1.07435
1.13305
1.14408
1.14138
1.13454
1.12362
1.1263
1.13737
1.1693
1.25233
1.46598
2.04571
3.86037
11.5817
16.1597
14.352
11.8947
9.9539
9.67607
10.0069
1.07436
1.13303
1.14406
1.14135
1.13452
1.12313
1.12576
1.13659
1.16783
1.24921
1.45918
2.03127
3.83291
11.4931
16.1581
14.3285
11.5622
9.61081
9.40921
9.83149
1.07437
1.133
1.14404
1.14133
1.13447
1.12266
1.12521
1.13567
1.16604
1.24542
1.44998
2.00604
3.75602
11.1619
16.2
14.3158
11.2118
9.29363
9.13459
9.60811
1.07438
1.13298
1.14402
1.1413
1.13441
1.12222
1.12458
1.13457
1.16396
1.24096
1.4386
1.97169
3.62957
10.4701
16.2404
14.2895
10.9277
9.03178
8.85706
9.2891
1.07438
1.13295
1.144
1.14128
1.13436
1.12175
1.12386
1.13325
1.1614
1.23549
1.425
1.93126
3.47842
9.62181
16.262
14.2428
10.7383
8.85244
8.56928
8.8371
1.07439
1.13293
1.14399
1.14127
1.13432
1.12122
1.123
1.13162
1.15821
1.2289
1.40954
1.88798
3.31939
8.74554
16.2456
14.1424
10.6298
8.73337
8.24645
8.1765
1.04182
1.10676
1.13765
1.15657
1.16681
1.17087
1.17842
1.19469
1.23135
1.31571
1.51525
2.01311
3.40436
8.50907
22.4301
18.8473
15.559
13.6029
12.7481
12.8321
1.04181
1.10676
1.13765
1.15657
1.1668
1.17088
1.17846
1.19484
1.23187
1.31744
1.52084
2.03165
3.47102
8.78693
22.0524
18.6652
15.464
13.5826
12.7263
12.8126
1.04181
1.10677
1.13764
1.15657
1.16678
1.1709
1.17856
1.19517
1.23293
1.32078
1.53127
2.06496
3.58867
9.30368
21.4201
18.3219
15.2815
13.5402
12.6768
12.7686
1.0418
1.10679
1.13763
1.15657
1.16677
1.1709
1.17871
1.1957
1.23453
1.32544
1.54498
2.10685
3.73319
10.0122
20.6364
17.8819
15.065
13.4711
12.6059
12.7012
1.04179
1.1068
1.13763
1.15657
1.16677
1.17089
1.17889
1.19636
1.23643
1.33072
1.55968
2.15036
3.89081
10.9768
19.7104
17.4225
14.8427
13.3717
12.515
12.6126
1.04178
1.10683
1.13762
1.15656
1.16677
1.17087
1.17909
1.19705
1.2384
1.336
1.57409
2.19306
4.04593
11.9798
18.927
17.005
14.626
13.2413
12.4031
12.5038
1.04177
1.10685
1.13761
1.15655
1.16676
1.1709
1.17928
1.19772
1.2403
1.3411
1.58787
2.23308
4.18609
12.9017
18.3535
16.6521
14.4204
13.0786
12.27
12.3771
1.04176
1.10689
1.1376
1.15655
1.16674
1.17094
1.17948
1.19836
1.24209
1.3459
1.60075
2.26946
4.30893
13.7285
17.9596
16.3451
14.2301
12.8815
12.1147
12.2324
1.04174
1.10692
1.13759
1.15655
1.16672
1.17097
1.17965
1.19893
1.24372
1.35028
1.61245
2.30209
4.42044
14.4891
17.6591
16.0599
14.0554
12.6526
11.9358
12.0703
1.04173
1.10695
1.13757
1.15655
1.16669
1.17097
1.17975
1.19935
1.24505
1.35413
1.62317
2.33281
4.52835
15.1977
17.4168
15.7798
13.8909
12.3911
11.7328
11.8898
1.04172
1.10698
1.13755
1.15655
1.16666
1.17094
1.17976
1.19952
1.24587
1.35701
1.63246
2.36286
4.64045
15.879
17.1806
15.4954
13.7337
12.0939
11.5069
11.6917
1.04172
1.10701
1.13753
1.15655
1.16663
1.17087
1.17964
1.19942
1.24603
1.35843
1.6388
2.38811
4.74797
16.499
16.9664
15.2286
13.568
11.7604
11.2594
11.4797
1.04171
1.10703
1.13751
1.15654
1.16661
1.17077
1.17942
1.19905
1.24556
1.35835
1.64146
2.40421
4.83004
16.9599
16.803
15.0026
13.3755
11.3952
10.9927
11.2635
1.04172
1.10703
1.13748
1.15653
1.16659
1.17063
1.17909
1.19842
1.2445
1.35687
1.64068
2.41072
4.87726
17.2156
16.6817
14.8289
13.1244
11.004
10.7093
11.0522
1.04173
1.10702
1.13747
1.1565
1.16657
1.17047
1.1787
1.19761
1.24289
1.35389
1.63603
2.40709
4.8893
17.2772
16.5903
14.7172
12.7865
10.5988
10.412
10.8435
1.04174
1.10699
1.13747
1.15647
1.16654
1.1703
1.17828
1.19669
1.24091
1.34958
1.62697
2.39007
4.8625
17.1909
16.5789
14.6934
12.3709
10.1998
10.1021
10.615
1.04176
1.10696
1.13747
1.15642
1.16652
1.17012
1.17785
1.19573
1.23869
1.34422
1.61358
2.35617
4.77654
16.8809
16.6524
14.7351
11.9514
9.84301
9.78605
10.3307
1.04177
1.10692
1.13748
1.15637
1.16651
1.16994
1.17739
1.19468
1.23618
1.33787
1.59646
2.30671
4.61715
16.1386
16.7717
14.859
11.6267
9.56128
9.47227
9.94157
1.04179
1.10689
1.1375
1.15632
1.1665
1.16974
1.17687
1.19345
1.23321
1.33037
1.57628
2.24712
4.40749
14.9752
16.9004
14.9821
11.4509
9.37752
9.16379
9.41424
1.0418
1.10686
1.13752
1.15626
1.16652
1.16952
1.17624
1.19196
1.22971
1.32182
1.55381
2.18111
4.16758
13.6192
17.1133
15.0072
11.3647
9.26431
8.8263
8.67848
1.01478
1.05621
1.09049
1.1177
1.13665
1.15022
1.16067
1.18148
1.2255
1.32404
1.55783
2.15948
3.97221
12.2085
25.072
20.2012
16.4235
14.4103
13.3529
13.3017
1.01478
1.05622
1.09049
1.11771
1.13663
1.15025
1.16068
1.18181
1.22678
1.3279
1.56849
2.18798
4.04481
12.3677
23.8037
19.7334
16.2781
14.3769
13.3268
13.2772
1.01477
1.05622
1.09048
1.11771
1.13662
1.15025
1.16087
1.18249
1.22895
1.3342
1.58579
2.236
4.19457
13.1553
22.1139
18.9722
15.9934
14.2978
13.2592
13.2202
1.01477
1.05623
1.09048
1.11771
1.13662
1.1502
1.16113
1.18344
1.23164
1.34144
1.60511
2.29011
4.37546
14.2959
20.6243
18.2228
15.6926
14.1769
13.1579
13.133
1.01476
1.05625
1.09047
1.1177
1.13665
1.15013
1.16139
1.18445
1.23442
1.3486
1.62361
2.34137
4.55656
15.6356
19.4364
17.6044
15.4073
14.0145
13.0275
13.0215
1.01476
1.05626
1.09047
1.11769
1.13668
1.15005
1.16162
1.1854
1.23703
1.35528
1.64069
2.38845
4.7256
17.0116
18.5097
17.1159
15.1403
13.8125
12.8681
12.8895
1.01475
1.05628
1.09046
1.11767
1.1367
1.14998
1.16185
1.18628
1.23945
1.36146
1.65656
2.43218
4.87959
18.1711
17.9271
16.7292
14.8871
13.5729
12.6816
12.7392
1.01474
1.0563
1.09045
1.11767
1.13672
1.14994
1.16208
1.18709
1.24166
1.36712
1.67119
2.47231
5.01836
19.1188
17.5829
16.4024
14.6461
13.2965
12.4705
12.5714
1.01473
1.05633
1.09043
1.11767
1.13672
1.14991
1.16228
1.18782
1.24365
1.37222
1.68437
2.50867
5.14869
19.9151
17.3522
16.0893
14.4156
12.9874
12.2358
12.3871
1.01472
1.05635
1.09041
1.11768
1.1367
1.14989
1.16244
1.18841
1.24534
1.37679
1.69657
2.54313
5.28015
20.6426
17.1766
15.7655
14.1912
12.6479
11.9806
12.1828
1.01471
1.05637
1.09039
1.11769
1.13667
1.14987
1.1625
1.18873
1.24648
1.3804
1.70761
2.57764
5.41878
21.3572
16.9855
15.408
13.97
12.279
11.7091
11.9565
1.01471
1.05639
1.09037
1.11771
1.13663
1.14986
1.16248
1.18875
1.24689
1.3825
1.71589
2.60856
5.55352
21.9897
16.7893
15.0351
13.7391
11.8804
11.4226
11.7098
1.01471
1.0564
1.09035
1.11772
1.13658
1.14985
1.16236
1.18847
1.24658
1.38299
1.72059
2.63118
5.66048
22.4325
16.605
14.6895
13.4851
11.4562
11.1235
11.4546
1.01471
1.0564
1.09032
1.11773
1.13652
1.14985
1.16214
1.18787
1.24551
1.38181
1.7215
2.64374
5.72533
22.6542
16.4338
14.4137
13.1803
11.0131
10.8144
11.2045
1.01472
1.0564
1.09031
1.11773
1.13647
1.14984
1.16184
1.18703
1.2437
1.37866
1.71756
2.64412
5.74475
22.7023
16.2943
14.2413
12.7983
10.5705
10.4977
10.9603
1.01473
1.05638
1.09031
1.11772
1.13642
1.14983
1.16152
1.18605
1.24137
1.3736
1.70758
2.62804
5.71653
22.6278
16.2442
14.1998
12.3534
10.1488
10.1726
10.6987
1.01474
1.05635
1.09033
1.1177
1.13638
1.14981
1.16119
1.18503
1.23869
1.36692
1.69142
2.5902
5.61881
22.3727
16.2682
14.2515
11.9396
9.78351
9.84296
10.3829
1.01475
1.05632
1.09037
1.11767
1.13635
1.14981
1.16085
1.18392
1.23566
1.35889
1.67009
2.53213
5.43796
21.7522
16.3527
14.4244
11.6746
9.51161
9.51724
9.9697
1.01476
1.05629
1.09042
1.11762
1.13634
1.14981
1.16046
1.18263
1.23212
1.3495
1.64487
2.45978
5.18198
20.4212
16.4671
14.6264
11.5985
9.34641
9.21031
9.41248
1.01477
1.05626
1.09047
1.11756
1.13637
1.14979
1.15997
1.1811
1.22808
1.33899
1.61668
2.37626
4.86666
18.6159
16.7483
14.7912
11.6149
9.2621
8.88322
8.6468
1.00392
1.02029
1.04371
1.06764
1.08753
1.10531
1.11738
1.1407
1.18995
1.30061
1.56777
2.28203
4.60601
17.9051
25.3264
20.3065
16.6153
14.7831
13.5082
13.3322
1.00392
1.02029
1.04371
1.06765
1.08752
1.10533
1.11733
1.14134
1.19214
1.3063
1.58077
2.30696
4.62127
17.2094
23.6785
19.6882
16.4439
14.7274
13.4789
13.3044
1.00392
1.02029
1.04371
1.06765
1.08752
1.1053
1.11756
1.14241
1.19538
1.31463
1.60052
2.35253
4.7344
17.7236
21.3117
18.6517
16.0853
14.5986
13.3989
13.2355
1.00392
1.0203
1.04371
1.06763
1.08755
1.10519
1.11793
1.14375
1.19884
1.32306
1.62101
2.40475
4.90298
19.1155
19.4948
17.7717
15.7177
14.4108
13.2713
13.1305
1.00392
1.0203
1.0437
1.06761
1.0876
1.10507
1.11824
1.14499
1.20216
1.33117
1.6409
2.45688
5.07374
20.6571
18.3907
17.1519
15.3848
14.1763
13.1041
13.0012
1.00392
1.02031
1.0437
1.06759
1.08765
1.10496
1.11852
1.14612
1.20521
1.33874
1.6597
2.50709
5.24113
22.0497
17.7468
16.7048
15.0834
13.8994
12.9
12.8521
1.00392
1.02031
1.0437
1.06757
1.0877
1.10486
1.11878
1.14715
1.208
1.34573
1.67747
2.55616
5.40594
23.0918
17.495
16.3587
14.8002
13.5821
12.6644
12.6852
1.00392
1.02032
1.04369
1.06755
1.08774
1.10478
1.11901
1.14806
1.21046
1.35194
1.69341
2.60099
5.56661
23.9
17.424
16.0641
14.5242
13.231
12.4035
12.5014
1.00392
1.02032
1.04368
1.06754
1.08776
1.10471
1.11922
1.14887
1.21263
1.35734
1.70726
2.64019
5.72351
24.6102
17.3701
15.7641
14.2431
12.8509
12.1206
12.3011
1.00392
1.02033
1.04366
1.06755
1.08777
1.10464
1.11938
1.14953
1.21449
1.36213
1.71975
2.67569
5.88646
25.3287
17.2734
15.4204
13.9592
12.4508
11.8241
12.0776
1.00393
1.02034
1.04364
1.06757
1.08774
1.10461
1.11947
1.14995
1.21584
1.36608
1.73125
2.71064
6.0575
26.049
17.0865
14.9964
13.6715
12.0345
11.5213
11.825
1.00393
1.02035
1.04362
1.0676
1.08769
1.1046
1.11949
1.1501
1.21654
1.36874
1.74059
2.74311
6.22074
26.6577
16.8135
14.5144
13.3722
11.5986
11.212
11.5444
1.00393
1.02036
1.04361
1.06763
1.08762
1.10462
1.11943
1.14994
1.21653
1.36997
1.74691
2.76878
6.35369
27.03
16.5244
14.0468
13.0572
11.1427
10.8967
11.249
1.00393
1.02036
1.0436
1.06767
1.08754
1.10468
1.11926
1.14942
1.21567
1.36942
1.74942
2.78461
6.43885
27.1345
16.2753
13.6807
12.7063
10.6744
10.5776
10.9592
1.00393
1.02036
1.04358
1.0677
1.08746
1.10475
1.11901
1.14858
1.21388
1.36653
1.74649
2.78747
6.46881
27.0989
16.1282
13.4626
12.3057
10.2119
10.2573
10.6827
1.00393
1.02035
1.04357
1.06773
1.08738
1.10482
1.11873
1.14754
1.21132
1.36114
1.73648
2.7728
6.43868
26.992
16.0906
13.4059
11.8834
9.78438
9.93252
10.3995
1.00393
1.02034
1.04358
1.06775
1.08731
1.10489
1.11843
1.14641
1.20826
1.35364
1.71892
2.73343
6.3227
26.7215
16.1096
13.4579
11.538
9.42995
9.60323
10.0735
1.00393
1.02033
1.04361
1.06774
1.08726
1.10499
1.11812
1.14518
1.20476
1.34452
1.69551
2.67207
6.10685
26.1343
16.1831
13.6435
11.4002
9.19049
9.27438
9.66711
1.00393
1.02032
1.04365
1.06772
1.08722
1.1051
1.11775
1.14372
1.20067
1.33387
1.66776
2.59445
5.80566
24.8458
16.2384
13.8738
11.4306
9.0649
8.96937
9.11862
1.00392
1.02031
1.04369
1.06767
1.08723
1.10519
1.1173
1.14203
1.19598
1.32174
1.63575
2.50015
5.4219
22.8323
16.4192
14.1568
11.5625
9.02694
8.66448
8.3628
1.00091
1.00506
1.01414
1.02894
1.04447
1.06063
1.07272
1.09713
1.14947
1.26944
1.56662
2.38688
5.21637
23.9975
24.1096
19.5358
16.4036
14.9071
13.4647
13.1808
1.00091
1.00506
1.01414
1.02894
1.04448
1.06059
1.07295
1.09814
1.15233
1.27602
1.57842
2.39718
5.14616
22.4354
22.5318
18.9952
16.2241
14.8176
13.4297
13.1497
1.00091
1.00506
1.01414
1.02893
1.0445
1.06051
1.07339
1.09969
1.15622
1.28467
1.59557
2.42547
5.15034
22.3893
19.7427
17.8739
15.8183
14.6316
13.3384
13.0707
1.00091
1.00506
1.01414
1.02892
1.04454
1.06041
1.07382
1.1012
1.16
1.29336
1.61534
2.47286
5.26347
23.7014
18.2206
17.007
15.4062
14.3758
13.1876
12.9507
1.00091
1.00507
1.01414
1.0289
1.04458
1.06033
1.07422
1.10261
1.16367
1.30232
1.63743
2.53101
5.42242
25.0176
17.7408
16.4832
15.0595
14.0707
12.986
12.8047
1.00091
1.00507
1.01414
1.02889
1.04463
1.06025
1.07459
1.10393
1.16716
1.31096
1.65941
2.59198
5.61367
26.0664
17.6217
16.1298
14.7483
13.7234
12.7408
12.6389
1.00091
1.00507
1.01414
1.02887
1.04468
1.06019
1.07491
1.1051
1.17023
1.31862
1.679
2.64678
5.80942
26.8117
17.6994
15.8608
14.4489
13.3361
12.4583
12.4566
1.00091
1.00507
1.01414
1.02886
1.04472
1.06012
1.07517
1.10604
1.17274
1.3248
1.69472
2.69043
6.00654
27.4568
17.8251
15.6108
14.1406
12.9099
12.1466
12.2583
1.00092
1.00507
1.01414
1.02885
1.04474
1.06005
1.07537
1.10683
1.1748
1.32981
1.70726
2.72523
6.20395
28.1573
17.8472
15.3254
13.8042
12.4604
11.8165
12.0431
1.00092
1.00507
1.01413
1.02885
1.04476
1.05997
1.07551
1.10746
1.17655
1.33418
1.71834
2.75608
6.40058
28.9202
17.755
14.9557
13.4553
12.0094
11.4847
11.7986
1.00092
1.00506
1.01412
1.02885
1.04475
1.05989
1.07559
1.10789
1.1779
1.33796
1.72894
2.78759
6.59527
29.664
17.4845
14.4816
13.0948
11.5645
11.1593
11.5179
1.00092
1.00506
1.01411
1.02888
1.04471
1.05984
1.07559
1.10809
1.17876
1.34085
1.73824
2.81861
6.77879
30.2421
17.0528
13.9344
12.7232
11.116
10.8367
11.1993
1.00092
1.00506
1.0141
1.0289
1.04464
1.05981
1.07552
1.10802
1.17902
1.34258
1.74514
2.84418
6.92973
30.5132
16.6361
13.3998
12.3462
10.654
10.512
10.8578
1.00092
1.00507
1.0141
1.02892
1.04456
1.05983
1.07535
1.10758
1.17842
1.34257
1.74836
2.86015
7.02972
30.4673
16.3298
12.9884
11.9621
10.1813
10.1879
10.523
1.00092
1.00506
1.01412
1.02894
1.04447
1.05988
1.07509
1.10674
1.17672
1.34
1.74605
2.86342
7.06912
30.3189
16.2062
12.7474
11.5801
9.7203
9.86637
10.2134
1.00091
1.00506
1.01412
1.02897
1.04438
1.05996
1.07478
1.10563
1.17404
1.33451
1.73626
2.84949
7.03698
30.1299
16.2065
12.681
11.2339
9.30249
9.54327
9.9135
1.00091
1.00506
1.0141
1.02901
1.04431
1.06005
1.07444
1.10437
1.1707
1.32659
1.71827
2.81046
6.9078
29.8225
16.2593
12.7143
11.0313
8.97475
9.2192
9.58934
1.00091
1.00506
1.01409
1.02903
1.04424
1.06016
1.07408
1.10297
1.16688
1.317
1.69436
2.74884
6.6555
29.2565
16.3287
12.8803
11.0371
8.77704
8.89598
9.20489
1.00091
1.00506
1.0141
1.02902
1.04418
1.06028
1.07364
1.10132
1.16244
1.3059
1.66605
2.66964
6.30422
28.052
16.3686
13.0978
11.146
8.70653
8.59427
8.69267
1.00091
1.00506
1.01411
1.02899
1.04416
1.06038
1.07312
1.09939
1.15723
1.29278
1.63197
2.56981
5.8568
25.8722
16.4933
13.5091
11.4125
8.71446
8.30997
7.9794
1.00012
1.0007
1.00257
1.00718
1.01635
1.02728
1.03898
1.06322
1.11678
1.24301
1.5635
2.47041
5.73826
29.4263
22.1891
18.3296
16.0108
14.9004
13.3754
12.975
1.00012
1.0007
1.00257
1.00717
1.01637
1.02724
1.0394
1.06462
1.12014
1.24948
1.57122
2.45749
5.51262
27.116
20.8427
18.0087
15.825
14.771
13.3304
12.9424
1.00012
1.0007
1.00257
1.00717
1.0164
1.02722
1.03999
1.06643
1.12423
1.25741
1.58392
2.46863
5.40273
26.3097
18.5832
17.0487
15.3791
14.5326
13.2236
12.8565
1.00012
1.0007
1.00257
1.00719
1.01644
1.02727
1.04056
1.06807
1.12815
1.26641
1.60504
2.52124
5.49727
27.146
17.7003
16.2815
14.9673
14.2132
13.0469
12.7245
1.00012
1.00071
1.00258
1.0072
1.01649
1.02733
1.04112
1.06972
1.13232
1.27668
1.63111
2.5922
5.68279
28.1374
17.673
15.8746
14.6316
13.8387
12.81
12.566
1.00012
1.00071
1.00258
1.00722
1.01654
1.0274
1.04165
1.07127
1.13624
1.28629
1.65548
2.65856
5.91491
28.7891
17.8666
15.6036
14.3296
13.4292
12.5258
12.3869
1.00012
1.00071
1.00259
1.00723
1.01658
1.02744
1.04207
1.07252
1.13934
1.29365
1.67344
2.70468
6.15569
29.2392
18.2553
15.4411
14.0298
12.9849
12.202
12.1915
1.00012
1.00071
1.00259
1.00724
1.01661
1.02746
1.04237
1.07343
1.14159
1.29891
1.68598
2.736
6.39143
29.7894
18.533
15.252
13.6949
12.4993
11.8489
11.9808
1.00012
1.00071
1.00259
1.00724
1.01662
1.02744
1.04259
1.07412
1.14332
1.30294
1.69556
2.76109
6.6234
30.5677
18.5521
14.9724
13.3042
11.9972
11.4816
11.7526
1.00012
1.0007
1.00258
1.00723
1.01662
1.02739
1.04273
1.07467
1.14479
1.30655
1.70455
2.78607
6.84671
31.4116
18.3869
14.5634
12.8895
11.5155
11.1242
11.4904
1.00011
1.0007
1.00257
1.00722
1.01661
1.02732
1.04278
1.07504
1.14599
1.30992
1.71397
2.8145
7.05863
32.2027
17.9575
14.0356
12.4612
11.0652
10.7853
11.1848
1.00011
1.0007
1.00256
1.0072
1.01657
1.02723
1.04276
1.07524
1.14687
1.3128
1.72297
2.84436
7.25462
32.7682
17.3747
13.4336
12.0278
10.6263
10.4546
10.8311
1.00011
1.00069
1.00255
1.00718
1.01652
1.02712
1.04263
1.07519
1.14727
1.31478
1.73005
2.86987
7.41614
32.9196
16.8577
12.869
11.6063
10.1788
10.122
10.4452
1.00011
1.00069
1.00255
1.00716
1.01645
1.02702
1.04239
1.07477
1.14685
1.3151
1.73354
2.88585
7.52472
32.7725
16.5222
12.4477
11.2213
9.71841
9.79048
10.0654
1.00011
1.00069
1.00254
1.00714
1.01639
1.02695
1.04204
1.07391
1.14526
1.31282
1.73167
2.88969
7.56379
32.4601
16.4372
12.2093
10.8921
9.27072
9.462
9.72251
1.00011
1.00069
1.00254
1.00714
1.01632
1.02691
1.04162
1.0727
1.14252
1.30743
1.72239
2.87727
7.52673
32.1708
16.477
12.1412
10.6565
8.86733
9.13525
9.40642
1.00011
1.00068
1.00254
1.00714
1.01624
1.0269
1.04118
1.07132
1.13905
1.29947
1.70491
2.84147
7.38284
31.8222
16.5894
12.1597
10.6214
8.56393
8.81488
9.08612
1.00011
1.00068
1.00253
1.00713
1.01617
1.02689
1.04069
1.06979
1.13513
1.28994
1.68163
2.78285
7.08808
31.2712
16.6259
12.3282
10.7033
8.39991
8.50175
8.72813
1.00011
1.00068
1.00253
1.00712
1.0161
1.02688
1.04012
1.068
1.1306
1.27896
1.65381
2.70467
6.68592
30.1294
16.6531
12.563
10.913
8.38445
8.21083
8.25774
1.00011
1.00068
1.00252
1.00711
1.01606
1.02688
1.03945
1.06586
1.12508
1.26541
1.61882
2.60244
6.17946
27.9363
16.7225
13.0737
11.288
8.42569
7.94592
7.59381
0.999899
0.999494
0.999571
1.00029
1.00277
1.00826
1.01904
1.04217
1.09542
1.22493
1.56083
2.52555
6.09061
33.4718
20.4481
17.3408
15.6351
14.8443
13.307
12.8115
0.999899
0.999495
0.999575
1.0003
1.0028
1.00835
1.01962
1.0438
1.09893
1.23068
1.56384
2.49224
5.70641
30.2114
19.5164
17.149
15.4381
14.6814
13.2507
12.7773
0.9999
0.999498
0.999584
1.00033
1.00288
1.00861
1.02038
1.04569
1.10289
1.23777
1.57389
2.49822
5.56424
28.9741
18.0911
16.4211
14.9768
14.4004
13.1274
12.6859
0.9999
0.999503
0.999598
1.00037
1.00299
1.00889
1.0211
1.04744
1.10699
1.2474
1.59748
2.55881
5.64976
29.3727
17.6208
15.7429
14.5865
14.0291
12.9266
12.5444
0.9999
0.999509
0.999615
1.00041
1.0031
1.00916
1.02182
1.0493
1.11166
1.25898
1.62717
2.63934
5.87891
30.0238
17.7762
15.4157
14.271
13.6082
12.661
12.3751
0.999899
0.999516
0.999631
1.00045
1.0032
1.00942
1.0225
1.05102
1.11583
1.26882
1.65087
2.69579
6.15879
30.3816
18.2475
15.2767
13.9776
13.1569
12.3468
12.184
0.999898
0.999521
0.999643
1.00048
1.00328
1.00962
1.02301
1.05225
1.11866
1.27498
1.66403
2.72143
6.43125
30.6133
18.8257
15.2164
13.6847
12.6741
11.992
11.9763
0.999897
0.999522
0.999649
1.0005
1.00333
1.00975
1.02334
1.05306
1.12051
1.27899
1.67258
2.74062
6.69032
31.1341
19.2105
15.0774
13.3279
12.1486
11.609
11.7546
0.999896
0.999518
0.999647
1.00051
1.00335
1.00983
1.02357
1.05365
1.12187
1.28203
1.6791
2.75568
6.94656
32.0124
19.206
14.7796
12.8903
11.6134
11.2166
11.5156
0.999895
0.99951
0.999637
1.0005
1.00335
1.00985
1.02371
1.0541
1.12306
1.28496
1.68605
2.7743
7.18916
32.9357
18.953
14.3117
12.4154
11.1196
10.8437
11.2395
0.999895
0.999499
0.99962
1.00047
1.00332
1.00983
1.02377
1.05441
1.1241
1.288
1.69456
2.80026
7.41254
33.7914
18.3629
13.7083
11.933
10.6787
10.4977
10.9146
0.999894
0.999486
0.9996
1.00044
1.00326
1.00975
1.02372
1.05456
1.12493
1.29083
1.70349
2.82988
7.61602
34.363
17.6633
13.0553
11.4614
10.2585
10.1622
10.5331
0.999893
0.999473
0.999578
1.00039
1.00319
1.00962
1.02355
1.05448
1.12536
1.2929
1.71077
2.85609
7.78306
34.4074
17.0856
12.4803
11.0194
9.83224
9.82306
10.1117
0.999892
0.99946
0.999557
1.00035
1.0031
1.00944
1.02323
1.05404
1.125
1.29339
1.71463
2.8733
7.89472
34.1881
16.7495
12.0723
10.6547
9.38957
9.48218
9.69495
0.99989
0.99945
0.999538
1.00031
1.003
1.00923
1.02278
1.05314
1.12347
1.29133
1.71345
2.88005
7.93212
33.7014
16.7027
11.8677
10.3825
8.95565
9.14399
9.32361
0.999888
0.99944
0.999523
1.00027
1.00292
1.00902
1.02224
1.05187
1.12073
1.28611
1.70522
2.87264
7.88917
33.301
16.7763
11.8171
10.2611
8.56183
8.81076
8.99287
0.999887
0.999431
0.999507
1.00024
1.00283
1.00881
1.02167
1.05041
1.11726
1.27834
1.68902
2.84496
7.72609
32.9132
16.9215
11.8364
10.3381
8.26838
8.49153
8.67426
0.999885
0.999423
0.999491
1.0002
1.00274
1.00858
1.02106
1.04882
1.11338
1.26914
1.66692
2.79104
7.392
32.3988
16.9179
12.0364
10.4901
8.12638
8.18782
8.33963
0.999884
0.999414
0.999474
1.00017
1.00264
1.00832
1.02035
1.047
1.10896
1.25859
1.64017
2.71592
6.94226
31.3405
16.8826
12.3038
10.7766
8.1412
7.91086
7.90417
0.999883
0.999407
0.999458
1.00013
1.00254
1.00804
1.01953
1.04477
1.10338
1.24497
1.60508
2.61463
6.39314
29.205
16.9183
12.8986
11.1994
8.21951
7.66203
7.27835
0.999859
0.99928
0.998765
0.998861
0.999587
1.00243
1.01074
1.03198
1.0844
1.2154
1.55918
2.55227
6.25733
35.5633
19.5124
16.789
15.4147
14.7998
13.2735
12.7268
0.999859
0.999278
0.998785
0.998893
0.999669
1.00267
1.01142
1.03366
1.08785
1.22052
1.55924
2.50844
5.79225
31.653
18.9076
16.6658
15.2089
14.6197
13.2103
12.6908
0.999858
0.999273
0.998823
0.998951
0.999802
1.00303
1.0123
1.03563
1.09173
1.22717
1.56845
2.51465
5.64255
30.2761
17.9286
16.0806
14.7451
14.3126