/*--------------------------------*- C++ -*----------------------------------*\
  =========                 |
  \\      /  F ield         | OpenFOAM: The Open Source CFD Toolbox
   \\    /   O peration     | Website:  https://openfoam.org
    \\  /    A nd           | Version:  6.0
     \\/     M anipulation  |
\*---------------------------------------------------------------------------*/
FoamFile
{
    version     2.0;
    format      ascii;
    class       surfaceScalarField;
    location    "1.5";
    object      phi;
}
// * * * * * * * * * * * * * * * * * * * * * * * * * * * * * * * * * * * * * //

dimensions      [1 0 -1 0 0 0 0];

internalField   nonuniform List<scalar> 
69200
(
0.000164466
1.09798e-11
4.66472e-05
0.000147823
5.49492e-11
1.67436e-05
0.000140494
1.55989e-10
7.14527e-06
0.000135296
1.50571e-10
5.2795e-06
0.000131589
4.73018e-10
3.67919e-06
0.000129333
4.57869e-10
2.23819e-06
0.000127551
1.45356e-09
1.77938e-06
0.000125296
3.31513e-09
2.27187e-06
0.000122724
8.1802e-09
2.62021e-06
0.000120054
2.07661e-08
2.77569e-06
0.000117357
5.7485e-08
2.95159e-06
0.000114294
1.84859e-07
3.70185e-06
0.000109587
6.46571e-07
6.02075e-06
0.000111941
2.93274e-06
-6.01017e-07
0.000149625
-1.0637e-05
-3.10227e-05
0.000139655
-9.52127e-06
1.21446e-05
8.61128e-05
-2.19273e-06
4.14906e-05
5.74035e-05
2.52546e-07
2.27415e-05
3.48126e-05
-8.78542e-07
2.25101e-05
-2.81699e-06
3.4059e-05
0.000164466
6.53732e-11
4.66473e-05
0.000147821
1.32227e-10
1.67438e-05
0.000140495
2.74598e-10
7.14462e-06
0.000135296
3.86293e-10
5.28024e-06
0.000131588
8.54162e-10
3.67823e-06
0.000129334
1.23503e-09
2.23751e-06
0.000127554
3.0583e-09
1.78026e-06
0.000125304
6.77794e-09
2.27309e-06
0.000122741
1.61187e-08
2.62345e-06
0.000120095
3.86269e-08
2.78734e-06
0.000117444
9.99618e-08
2.99072e-06
0.000114427
2.97736e-07
3.82768e-06
0.000109678
9.61151e-07
6.25377e-06
0.000111499
3.37777e-06
2.37727e-06
0.000145606
-1.43444e-05
-4.12617e-05
0.000132065
-1.26454e-05
6.0461e-06
8.48471e-05
8.76577e-07
3.25139e-05
5.72548e-05
4.62162e-06
1.90763e-05
3.52957e-05
1.68566e-06
1.89249e-05
-3.06204e-06
3.18819e-05
0.000164467
1.9064e-10
4.66471e-05
0.000147819
1.70318e-10
1.67446e-05
0.000140498
3.37601e-10
7.14332e-06
0.000135295
7.65794e-10
5.28165e-06
0.000131586
1.06034e-09
3.6765e-06
0.000129335
2.5626e-09
2.23586e-06
0.000127561
5.02183e-09
1.78331e-06
0.000125316
1.0818e-08
2.27708e-06
0.000122768
2.42541e-08
2.6319e-06
0.000120153
5.32635e-08
2.81252e-06
0.000117543
1.24583e-07
3.0682e-06
0.000114457
3.3672e-07
4.06882e-06
0.000109019
1.03004e-06
6.9582e-06
0.00010768
2.65859e-06
6.69154e-06
0.000144944
-1.71557e-05
-5.25094e-05
0.000128985
-1.05269e-05
3.42975e-07
8.48973e-05
8.4642e-06
2.73566e-05
5.84247e-05
1.13937e-05
1.68349e-05
3.66855e-05
6.02068e-06
1.726e-05
-1.3027e-06
3.08631e-05
0.000164468
2.39574e-10
4.66463e-05
0.000147816
2.12414e-10
1.67461e-05
0.000140503
3.94519e-10
7.14171e-06
0.000135295
1.34078e-09
5.28339e-06
0.000131585
1.0766e-09
3.6744e-06
0.000129338
4.57641e-09
2.2325e-06
0.000127568
8.35031e-09
1.78932e-06
0.00012533
1.6933e-08
2.28394e-06
0.000122794
3.43231e-08
2.64323e-06
0.000120206
6.61657e-08
2.83985e-06
0.000117614
1.32015e-07
3.14883e-06
0.000114426
3.05678e-07
4.28812e-06
0.000107447
8.44855e-07
8.4737e-06
0.000102227
1.62486e-06
1.10696e-05
0.000144134
-1.52877e-05
-6.49979e-05
0.000127045
-3.3772e-06
-4.09713e-06
8.53129e-05
1.90548e-05
2.45077e-05
5.98059e-05
1.98624e-05
1.53216e-05
3.80065e-05
1.14729e-05
1.6527e-05
1.41442e-06
3.0455e-05
0.00016447
-6.03015e-11
4.6645e-05
0.000147812
4.29706e-10
1.6748e-05
0.000140509
4.69919e-10
7.13996e-06
0.000135294
2.16131e-09
5.28515e-06
0.000131584
8.87427e-10
3.6725e-06
0.000129343
7.30138e-09
2.227e-06
0.000127575
1.33985e-08
1.79652e-06
0.000125339
2.57193e-08
2.29086e-06
0.000122812
4.72187e-08
2.65134e-06
0.000120242
7.99064e-08
2.85308e-06
0.000117654
1.33463e-07
3.18075e-06
0.000114407
2.53787e-07
4.29926e-06
0.000106013
6.06987e-07
9.43731e-06
9.65738e-05
1.13903e-06
1.51384e-05
0.0001426
-7.36083e-06
-7.52002e-05
0.00012574
9.18889e-06
-7.83549e-06
8.58954e-05
3.15366e-05
2.31973e-05
6.09858e-05
2.92288e-05
1.47304e-05
3.88736e-05
1.7461e-05
1.65308e-05
4.51025e-06
2.99388e-05
0.000164471
-5.39805e-10
4.66449e-05
0.000147805
6.78701e-10
1.67485e-05
0.000140516
5.33491e-10
7.13841e-06
0.000135294
3.14738e-09
5.28679e-06
0.000131584
4.28517e-10
3.67124e-06
0.000129349
1.06707e-08
2.21932e-06
0.000127578
1.98082e-08
1.80224e-06
0.000125342
3.67666e-08
2.29431e-06
0.000122819
6.28877e-08
2.65081e-06
0.000120268
9.58445e-08
2.84296e-06
0.000117707
1.34567e-07
3.14328e-06
0.000114525
1.96592e-07
4.09281e-06
0.000105277
3.65645e-07
9.5851e-06
9.16677e-05
8.89405e-07
1.91595e-05
0.000141499
6.73941e-06
-8.27128e-05
0.000124265
2.59028e-05
-8.95028e-06
8.65177e-05
4.52257e-05
2.17238e-05
6.16917e-05
3.94224e-05
1.44211e-05
3.90663e-05
2.3858e-05
1.68859e-05
7.745e-06
2.90864e-05
0.00016447
-1.01078e-09
4.66466e-05
0.000147797
9.09329e-10
1.67467e-05
0.000140524
5.63097e-10
7.13749e-06
0.000135293
4.10629e-09
5.28815e-06
0.000131586
-3.31535e-10
3.67091e-06
0.000129355
1.45069e-08
2.21023e-06
0.000127576
2.70341e-08
1.80489e-06
0.000125334
4.94581e-08
2.29262e-06
0.000122814
8.14393e-08
2.64066e-06
0.000120286
1.16566e-07
2.81051e-06
0.000117791
1.44178e-07
3.03874e-06
0.000114834
1.55499e-07
3.66659e-06
0.000105513
1.5072e-07
8.82395e-06
8.81322e-05
7.59624e-07
2.19152e-05
0.000140633
2.5212e-05
-8.69313e-05
0.00012264
4.51522e-05
-8.18263e-06
8.74688e-05
5.96799e-05
1.99418e-05
6.2003e-05
4.98776e-05
1.49767e-05
3.86712e-05
3.04105e-05
1.74263e-05
1.12284e-05
2.7818e-05
0.000164468
-1.40496e-09
4.665e-05
0.000147786
1.15062e-09
1.67425e-05
0.000140532
5.63918e-10
7.1373e-06
0.000135293
4.86478e-09
5.28918e-06
0.000131589
-1.31206e-09
3.67161e-06
0.00012936
1.8433e-08
2.20136e-06
0.000127567
3.44473e-08
1.80419e-06
0.000125316
6.32192e-08
2.2856e-06
0.000122795
1.02745e-07
2.62236e-06
0.000120292
1.43489e-07
2.76254e-06
0.000117889
1.69006e-07
2.88888e-06
0.000115272
1.54036e-07
3.09647e-06
0.000106625
3.11085e-08
7.32605e-06
8.61107e-05
7.99766e-07
2.31462e-05
0.000139998
4.60329e-05
-8.80279e-05
0.000121519
6.59335e-05
-6.79987e-06
8.89296e-05
7.45657e-05
1.84716e-05
6.2035e-05
6.02478e-05
1.6178e-05
3.77915e-05
3.68316e-05
1.81141e-05
1.51241e-05
2.62994e-05
0.000164464
-1.65694e-09
4.6655e-05
0.000147774
1.37007e-09
1.67361e-05
0.00014054
5.7959e-10
7.13801e-06
0.000135293
5.2237e-09
5.28986e-06
0.000131592
-2.31798e-09
3.67341e-06
0.000129363
2.21552e-08
2.19343e-06
0.000127551
4.17813e-08
1.79939e-06
0.000125286
7.81002e-08
2.27405e-06
0.000122762
1.27102e-07
2.59961e-06
0.000120285
1.77037e-07
2.71015e-06
0.000117985
2.1015e-07
2.72751e-06
0.000115754
2.00173e-07
2.48385e-06
0.000108328
5.24334e-08
5.36338e-06
8.5375e-05
1.16849e-06
2.25716e-05
0.000139669
6.8064e-05
-8.63085e-05
0.000121233
8.75381e-05
-5.22631e-06
9.09306e-05
8.9366e-05
1.73203e-05
6.19288e-05
7.01619e-05
1.82455e-05
3.64161e-05
4.27409e-05
1.88949e-05
1.95574e-05
2.47874e-05
0.000164457
-1.74117e-09
4.66612e-05
0.000147761
1.523e-09
1.67276e-05
0.00014055
6.54943e-10
7.13983e-06
0.000135292
4.96118e-09
5.29017e-06
0.000131596
-2.96427e-09
3.67626e-06
0.000129361
2.50536e-08
2.18808e-06
0.000127528
4.89188e-08
1.78933e-06
0.000125247
9.47208e-08
2.25793e-06
0.000122718
1.56202e-07
2.57514e-06
0.000120265
2.21099e-07
2.66429e-06
0.000118079
2.76209e-07
2.59063e-06
0.000116217
3.12002e-07
1.94805e-06
0.000110204
2.50763e-07
3.29343e-06
8.5646e-05
1.98311e-06
2.02961e-05
0.000139652
9.06943e-05
-8.3434e-05
0.00012208
0.00010941
-3.98548e-06
9.34197e-05
0.000103811
1.70569e-05
6.18542e-05
7.91329e-05
2.04758e-05
3.47585e-05
4.83392e-05
1.97055e-05
2.48078e-05
2.33419e-05
0.000164449
-1.65474e-09
4.6668e-05
0.00014775
1.57132e-09
1.67177e-05
0.00014056
8.24848e-10
7.14285e-06
0.000135293
3.85273e-09
5.29035e-06
0.000131598
-2.72498e-09
3.67963e-06
0.000129354
2.61493e-08
2.1879e-06
0.000127501
5.56868e-08
1.7718e-06
0.000125202
1.13513e-07
2.2367e-06
0.000122661
1.90876e-07
2.55079e-06
0.00012023
2.78234e-07
2.63201e-06
0.000118164
3.76364e-07
2.50294e-06
0.000116598
5.19816e-07
1.57815e-06
0.000111942
7.409e-07
1.23197e-06
8.66234e-05
3.8625e-06
1.67805e-05
0.00014001
0.000113355
-8.14204e-05
0.000124269
0.000131022
-3.53768e-06
9.62522e-05
0.000117549
1.79208e-05
6.18758e-05
8.73921e-05
2.2535e-05
3.3072e-05
5.38357e-05
2.04404e-05
3.14133e-05
2.21075e-05
0.000164438
-1.39281e-09
4.66749e-05
0.000147741
1.4838e-09
1.67071e-05
0.00014057
1.0624e-09
7.14686e-06
0.000135293
1.81619e-09
5.29125e-06
0.000131599
-1.24356e-09
3.68192e-06
0.00012934
2.42435e-08
2.19674e-06
0.000127473
6.24572e-08
1.74385e-06
0.000125158
1.34936e-07
2.2093e-06
0.000122597
2.30589e-07
2.52703e-06
0.000120178
3.4655e-07
2.61531e-06
0.000118222
5.07279e-07
2.47733e-06
0.000116859
8.20173e-07
1.45186e-06
0.000113408
1.55171e-06
-4.21247e-07
8.77113e-05
7.08727e-06
1.29809e-05
0.000140669
0.000135464
-8.13455e-05
0.000127688
0.000151855
-4.35942e-06
9.92959e-05
0.0001305
1.99793e-05
6.20364e-05
9.45923e-05
2.46249e-05
3.14555e-05
5.95206e-05
2.11436e-05
4.00211e-05
2.10408e-05
0.000164427
-9.81504e-10
4.66811e-05
0.000147735
1.26205e-09
1.66968e-05
0.00014058
1.31453e-09
7.15132e-06
0.000135293
-9.89401e-10
5.29403e-06
0.000131596
1.55042e-09
3.68001e-06
0.00012932
1.85065e-08
2.22053e-06
0.000127449
7.00789e-08
1.7022e-06
0.000125118
1.59315e-07
2.17352e-06
0.000122535
2.74322e-07
2.50009e-06
0.000120112
4.22239e-07
2.60605e-06
0.00011823
6.55994e-07
2.50757e-06
0.000117029
1.16966e-06
1.60034e-06
0.000114586
2.53552e-06
-1.15199e-06
8.82654e-05
1.11321e-05
1.07654e-05
0.000141528
0.000157023
-8.30186e-05
0.00013224
0.000171739
-6.34426e-06
0.000102269
0.000142955
2.33642e-05
6.2276e-05
0.000100868
2.63085e-05
2.99538e-05
6.61074e-05
2.15835e-05
5.15435e-05
1.98845e-05
0.000164416
-5.77815e-10
4.6686e-05
0.000147733
9.99933e-10
1.6688e-05
0.00014059
1.45958e-09
7.15547e-06
0.000135293
-4.18786e-09
5.29957e-06
0.00013159
5.18139e-09
3.67072e-06
0.000129297
9.15615e-09
2.26669e-06
0.000127431
7.93937e-08
1.64326e-06
0.000125087
1.8606e-07
2.12451e-06
0.000122471
3.19297e-07
2.46126e-06
0.000119998
4.99304e-07
2.59064e-06
0.000118137
8.11808e-07
2.57344e-06
0.000117151
1.55076e-06
1.97686e-06
0.000115672
3.61514e-06
-9.67099e-07
8.8219e-05
1.53514e-05
1.12446e-05
0.000142616
0.000177673
-8.57532e-05
0.000137643
0.000190578
-9.30171e-06
0.000104981
0.000154948
2.79437e-05
6.27938e-05
0.000106611
2.75197e-05
2.86948e-05
7.41854e-05
2.20773e-05
6.68623e-05
1.86984e-05
0.000164406
-7.80733e-11
4.66889e-05
0.000147734
4.08167e-10
1.66823e-05
0.000140599
1.52321e-09
7.15879e-06
0.00013529
-7.17029e-09
5.30773e-06
0.000131581
8.98194e-09
3.65352e-06
0.000129273
-2.27263e-09
2.33887e-06
0.000127419
9.04868e-08
1.56357e-06
0.00012506
2.12535e-07
2.05608e-06
0.000122384
3.59018e-07
2.40685e-06
0.000119813
5.66325e-07
2.57348e-06
0.000117951
9.63283e-07
2.66524e-06
0.000117237
1.95874e-06
2.45485e-06
0.000116646
4.79478e-06
-1.63504e-07
8.79494e-05
1.98755e-05
1.33486e-05
0.000144176
0.00019763
-8.80289e-05
0.000143408
0.000208927
-1.27545e-05
0.000107054
0.000165648
3.35993e-05
6.34982e-05
0.000112595
2.77585e-05
2.77316e-05
8.43857e-05
2.20794e-05
8.687e-05
1.71873e-05
0.0001644
2.68641e-10
4.66911e-05
0.000147739
-4.04997e-10
1.66804e-05
0.000140607
1.54262e-09
7.159e-06
0.000135285
-9.47413e-09
5.31718e-06
0.000131573
1.22603e-08
3.63173e-06
0.00012925
-1.32013e-08
2.42942e-06
0.000127404
1.01321e-07
1.46455e-06
0.000125014
2.3321e-07
1.9732e-06
0.00012227
3.85833e-07
2.34894e-06
0.00011963
6.15992e-07
2.55682e-06
0.000117758
1.10256e-06
2.74123e-06
0.000117193
2.37486e-06
2.94065e-06
0.00011747
6.03226e-06
1.15882e-06
8.79965e-05
2.41985e-05
1.7808e-05
0.000146037
0.000216913
-8.9715e-05
0.000149875
0.000224925
-1.55931e-05
0.00010824
0.000175454
3.86691e-05
6.43043e-05
0.000119523
2.72481e-05
2.75754e-05
9.7311e-05
2.12478e-05
0.000112656
1.53602e-05
0.000164398
3.31174e-10
4.66916e-05
0.000147746
-1.22934e-09
1.66825e-05
0.000140613
1.27859e-09
7.15652e-06
0.000135277
-1.07538e-08
5.32725e-06
0.000131569
1.46602e-08
3.61007e-06
0.000129227
-2.14315e-08
2.51728e-06
0.000127369
1.08555e-07
1.36866e-06
0.000124945
2.43281e-07
1.90026e-06
0.000122188
3.98594e-07
2.29202e-06
0.000119532
6.54406e-07
2.51252e-06
0.000117572
1.23599e-06
2.73961e-06
0.000116897
2.82127e-06
3.24581e-06
0.000117781
7.44195e-06
2.54049e-06
8.89978e-05
2.93371e-05
2.31129e-05
0.000148562
0.000237711
-8.93425e-05
0.000153472
0.000240199
-1.74457e-05
0.000108945
0.000185355
4.15282e-05
6.56598e-05
0.000127569
2.61021e-05
2.84602e-05
0.000112948
2.01594e-05
0.000146066
1.1892e-05
0.000164399
4.55932e-10
4.66911e-05
0.000147753
-2.42295e-09
1.66872e-05
0.000140616
9.01936e-10
7.15143e-06
0.000135267
-1.07979e-08
5.33797e-06
0.000131569
1.61164e-08
3.5889e-06
0.000129199
-2.67312e-08
2.58924e-06
0.000127313
1.11255e-07
1.31357e-06
0.000124889
2.4327e-07
1.83565e-06
0.000122165
4.02438e-07
2.21224e-06
0.000119493
6.94705e-07
2.43326e-06
0.000117365
1.39736e-06
2.67549e-06
0.00011637
3.34097e-06
3.35259e-06
0.000117478
9.16453e-06
3.37772e-06
9.08948e-05
3.55189e-05
2.5259e-05
0.000150466
0.000260152
-8.83042e-05
0.000155091
0.000256841
-1.81437e-05
0.000109264
0.00019534
4.29315e-05
6.7508e-05
0.000136746
2.37757e-05
3.07771e-05
0.000132344
1.77889e-05
0.000189066
7.9186e-06
0.000164408
-3.14162e-10
4.66881e-05
0.000147759
-3.07458e-09
1.66964e-05
0.000140618
4.9786e-10
7.14276e-06
0.000135255
-9.19649e-09
5.34912e-06
0.000131572
1.62443e-08
3.56569e-06
0.000129166
-2.87135e-08
2.65825e-06
0.00012726
1.11766e-07
1.28353e-06
0.000124865
2.3646e-07
1.76543e-06
0.000122188
4.04086e-07
2.12217e-06
0.000119481
7.46871e-07
2.33653e-06
0.000117072
1.59738e-06
2.55263e-06
0.000115461
3.94815e-06
3.23212e-06
0.00011654
1.10222e-05
3.68844e-06
9.31795e-05
4.32762e-05
2.38469e-05
0.000149954
0.000284964
-8.67397e-05
0.000156208
0.000278557
-2.04309e-05
0.000109931
0.000204061
4.39372e-05
7.05847e-05
0.000147071
2.04359e-05
3.50661e-05
0.000157439
1.35362e-05
0.000242502
4.13297e-06
0.000164419
4.66869e-05
-2.36291e-09
0.000147762
1.67049e-05
-2.52842e-09
0.000140618
7.13231e-06
8.19793e-11
0.00013524
5.35985e-06
-6.38534e-09
0.00013158
3.54069e-06
1.58552e-08
0.000129125
2.72244e-06
-2.85816e-08
0.000127226
1.26723e-06
1.09999e-07
0.000124885
1.69895e-06
2.30148e-07
0.000122257
2.03182e-06
4.06822e-07
0.00011946
2.22787e-06
7.89137e-07
0.00011667
2.37793e-06
1.74344e-06
0.000114367
2.8944e-06
4.40819e-06
0.000115786
2.72457e-06
1.28997e-05
9.62916e-05
1.84774e-05
5.31204e-05
0.000141316
-9.419e-05
0.000330774
0.000155174
-2.77912e-05
0.000308035
0.000110807
4.54996e-05
0.000212338
7.47266e-05
1.58087e-05
0.000163097
4.44416e-05
4.93352e-06
0.000189368
-6.97619e-06
0.000316618
0.000230926
1.10679e-10
2.5575e-05
0.000226691
1.41573e-10
2.10634e-05
0.000216555
2.08329e-10
1.71801e-05
0.000211919
3.07209e-10
9.94362e-06
0.000208546
1.2789e-09
7.07889e-06
0.000205932
9.45466e-10
4.83841e-06
0.000202316
2.80357e-09
5.37085e-06
0.000199239
7.31146e-09
5.33887e-06
0.000196813
1.66367e-08
5.09239e-06
0.000194965
3.83103e-08
4.78733e-06
0.000193646
9.70197e-08
4.62357e-06
0.000192986
2.79998e-07
4.99422e-06
0.000193597
8.11713e-07
5.67386e-06
0.000194279
1.67394e-06
5.40791e-06
0.000198498
-1.27301e-05
-5.26705e-05
0.000160322
8.22469e-07
2.5957e-05
0.000124893
1.86645e-05
4.12955e-05
8.2749e-05
1.45053e-05
4.71014e-05
5.15483e-05
1.22037e-05
4.75156e-05
5.4608e-06
7.61826e-05
0.000230926
2.29964e-10
2.5575e-05
0.000226692
2.86658e-10
2.1063e-05
0.000216554
3.83793e-10
1.71802e-05
0.000211919
6.9077e-10
9.94456e-06
0.000208547
2.39638e-09
7.07787e-06
0.000205933
2.14002e-09
4.83759e-06
0.00020232
6.19969e-09
5.36898e-06
0.000199251
1.51271e-08
5.33799e-06
0.000196838
3.2126e-08
5.09413e-06
0.000195016
6.75883e-08
4.7917e-06
0.000193733
1.53165e-07
4.62409e-06
0.000193099
3.91574e-07
4.96214e-06
0.000193446
1.00491e-06
5.41129e-06
0.000194066
1.80066e-06
6.74316e-06
0.000195464
-2.01554e-05
-7.19337e-05
0.000155646
7.65219e-06
1.62182e-05
0.000121717
3.69606e-05
3.56457e-05
8.29954e-05
2.80182e-05
4.33143e-05
5.15258e-05
2.41462e-05
4.49302e-05
1.07172e-05
7.32517e-05
0.000230926
3.66686e-10
2.5575e-05
0.000226693
4.08659e-10
2.1062e-05
0.000216554
4.44166e-10
1.71803e-05
0.000211921
1.20376e-09
9.94625e-06
0.000208549
3.26079e-09
7.0762e-06
0.000205933
3.84018e-09
4.83603e-06
0.000202327
1.08068e-08
5.36619e-06
0.00019927
2.38601e-08
5.33682e-06
0.000196876
4.48259e-08
5.09523e-06
0.000195084
7.84029e-08
4.78773e-06
0.000193829
1.36932e-07
4.57981e-06
0.000193223
2.38281e-07
4.76123e-06
0.000193945
1.79471e-07
4.46561e-06
0.000193387
-5.09032e-07
1.06163e-05
0.000194804
-1.81395e-05
-9.89211e-05
0.000152559
2.55291e-05
5.86166e-06
0.000120234
5.76533e-05
3.07524e-05
8.47282e-05
4.24536e-05
3.99682e-05
5.27103e-05
3.63047e-05
4.29032e-05
1.78991e-05
7.06148e-05
0.000230926
3.92088e-10
2.55751e-05
0.000226694
3.88102e-10
2.10605e-05
0.000216553
4.36087e-10
1.71808e-05
0.000211923
1.90299e-09
9.94821e-06
0.000208551
3.84841e-09
7.07444e-06
0.00020593
6.48832e-09
4.83309e-06
0.000202334
1.74023e-08
5.36252e-06
0.000199288
3.44263e-08
5.33445e-06
0.000196907
5.55973e-08
5.08714e-06
0.000195123
7.3115e-08
4.74531e-06
0.000193881
5.8131e-08
4.39576e-06
0.000193524
-1.26857e-07
4.10772e-06
0.000195064
-1.38259e-06
1.38914e-06
0.000194294
-4.08758e-06
1.32221e-05
0.000195749
-3.28897e-06
-0.00012318
0.000150022
5.25423e-05
2.23761e-07
0.000119746
7.98448e-05
2.81859e-05
8.65104e-05
5.75189e-05
3.76826e-05
5.39878e-05
4.93576e-05
4.14757e-05
2.76719e-05
6.81682e-05
0.000230925
1.29075e-10
2.55755e-05
0.000226694
1.35352e-10
2.10584e-05
0.000216552
4.69897e-10
1.71814e-05
0.000211927
2.84709e-09
9.94992e-06
0.000208555
4.16465e-09
7.07321e-06
0.000205925
1.03457e-08
4.82761e-06
0.000202337
2.64153e-08
5.35645e-06
0.000199297
4.79201e-08
5.32832e-06
0.000196916
6.8708e-08
5.06516e-06
0.000195109
6.80829e-08
4.65853e-06
0.000193833
-2.35098e-08
4.08221e-06
0.00019341
-4.83589e-07
3.09138e-06
0.000198071
-2.78918e-06
-2.86529e-06
0.000197948
-8.26601e-06
1.0728e-05
0.000197074
2.44941e-05
-0.000135588
0.000147583
8.5134e-05
-6.22755e-07
0.000119914
0.000102283
2.71839e-05
8.79596e-05
7.36122e-05
3.62035e-05
5.48098e-05
6.3436e-05
4.07707e-05
3.9502e-05
6.58143e-05
0.000230926
-3.05105e-10
2.55762e-05
0.000226691
-2.76526e-10
2.1056e-05
0.000216551
4.94009e-10
1.7182e-05
0.000211933
3.98603e-09
9.95097e-06
0.00020856
4.12902e-09
7.073e-06
0.000205915
1.56581e-08
4.81901e-06
0.000202331
3.80589e-08
5.34675e-06
0.000199292
6.55909e-08
5.31709e-06
0.000196903
8.92969e-08
5.03142e-06
0.00019506
7.7957e-08
4.54282e-06
0.00019372
-7.32055e-08
3.68877e-06
0.000193136
-7.67764e-07
1.78902e-06
0.000202119
-3.97714e-06
-8.46043e-06
0.00020547
-1.15958e-05
3.23927e-06
0.00019866
6.16513e-05
-0.000137472
0.000145847
0.000120683
3.71644e-06
0.000120229
0.000124544
2.69152e-05
8.84396e-05
9.00235e-05
3.56543e-05
5.48093e-05
7.79929e-05
4.04793e-05
5.26141e-05
6.34159e-05
0.000230928
-7.72541e-10
2.55772e-05
0.000226684
-7.06511e-10
2.10533e-05
0.00021655
5.56909e-10
1.71824e-05
0.000211939
5.13318e-09
9.95106e-06
0.000208566
3.71404e-09
7.07415e-06
0.000205902
2.24281e-08
4.80806e-06
0.000202317
5.20955e-08
5.33278e-06
0.000199272
8.77049e-08
5.30138e-06
0.000196863
1.20044e-07
4.99261e-06
0.000194958
1.12137e-07
4.4221e-06
0.000193491
-6.18595e-08
3.29137e-06
0.000192581
-8.80758e-07
4.87329e-07
0.000206518
-4.61208e-06
-1.4166e-05
0.000215849
-1.39647e-05
-7.33218e-06
0.000199997
0.000102572
-0.000129694
0.000144167
0.000156923
1.07043e-05
0.000120705
0.000146464
2.68376e-05
8.79712e-05
0.000105893
3.6093e-05
5.3896e-05
9.25887e-05
4.04963e-05
6.62763e-05
6.09168e-05
0.000230932
-1.19482e-09
2.55786e-05
0.000226674
-1.04091e-09
2.10505e-05
0.00021655
7.26713e-10
1.71827e-05
0.000211948
6.06457e-09
9.95025e-06
0.000208571
3.02401e-09
7.07691e-06
0.000205887
3.04174e-08
4.79542e-06
0.000202298
6.78725e-08
5.3139e-06
0.00019924
1.13742e-07
5.28152e-06
0.000196795
1.61179e-07
4.95411e-06
0.000194797
1.73649e-07
4.31504e-06
0.000193158
2.43051e-08
2.95423e-06
0.000191809
-7.71956e-07
-5.67212e-07
0.000209893
-4.59569e-06
-1.89953e-05
0.000228442
-1.54626e-05
-2.74028e-05
0.000200753
0.000144702
-0.000108381
0.000142955
0.00019325
1.81793e-05
0.000121392
0.000167982
2.69339e-05
8.69137e-05
0.000120797
3.73293e-05
5.2289e-05
0.000106999
4.06681e-05
8.02969e-05
5.82062e-05
0.000230937
-1.50653e-09
2.55802e-05
0.00022666
-1.20923e-09
2.10477e-05
0.000216552
1.03748e-09
1.71829e-05
0.000211957
6.55837e-09
9.94857e-06
0.000208575
2.38303e-09
7.08099e-06
0.000205869
3.91356e-08
4.78243e-06
0.000202273
8.44793e-08
5.29154e-06
0.000199198
1.43117e-07
5.25903e-06
0.000196702
2.13099e-07
4.91871e-06
0.000194593
2.65318e-07
4.22998e-06
0.000192754
1.94217e-07
2.70585e-06
0.000190828
-4.15365e-07
-1.29931e-06
0.000211009
-3.83768e-06
-2.26274e-05
0.000244053
-1.49081e-05
-5.59955e-05
0.000200677
0.000186246
-7.92817e-05
0.000142611
0.000229148
2.49946e-05
0.000122347
0.000188804
2.72889e-05
8.54469e-05
0.000134883
3.91105e-05
5.01529e-05
0.000120933
4.09462e-05
9.50328e-05
5.53793e-05
0.000230943
-1.66936e-09
2.55821e-05
0.000226644
-1.17712e-09
2.10447e-05
0.000216556
1.48995e-09
1.7183e-05
0.000211967
6.42357e-09
9.9465e-06
0.000208575
2.18966e-09
7.08549e-06
0.000205852
4.7662e-08
4.77108e-06
0.000202248
1.00785e-07
5.26615e-06
0.000199148
1.75534e-07
5.23442e-06
0.00019659
2.76873e-07
4.8882e-06
0.000194357
3.90745e-07
4.17103e-06
0.000192284
4.59354e-07
2.54333e-06
0.000189736
2.2933e-07
-1.80024e-06
0.00020962
-2.24171e-06
-2.51463e-05
0.000261722
-9.5333e-06
-8.82533e-05
0.000199965
0.000226764
-5.14451e-05
0.000143177
0.000263852
3.08012e-05
0.00012364
0.000208551
2.81102e-05
8.37013e-05
0.000148187
4.13892e-05
4.75404e-05
0.000134576
4.12179e-05
0.000111075
5.24899e-05
0.000230949
-1.66722e-09
2.55839e-05
0.000226626
-9.61335e-10
2.1042e-05
0.000216564
2.04713e-09
1.71832e-05
0.000211977
5.57616e-09
9.94475e-06
0.000208571
2.73287e-09
7.08896e-06
0.00020584
5.47498e-08
4.76317e-06
0.000202227
1.1548e-07
5.23795e-06
0.000199096
2.09783e-07
5.20777e-06
0.000196463
3.49808e-07
4.86345e-06
0.000194104
5.43088e-07
4.14067e-06
0.000191779
8.09665e-07
2.46355e-06
0.00018847
1.17922e-06
-2.14953e-06
0.000206994
5.62394e-07
-2.70178e-05
0.000279278
4.14536e-06
-0.000122896
0.000198866
0.000266509
-2.96205e-05
0.000144586
0.000296857
3.5237e-05
0.000125193
0.00022669
2.93731e-05
8.18319e-05
0.000160535
4.4093e-05
4.46702e-05
0.000148246
4.1374e-05
0.000129567
4.95683e-05
0.000230955
-1.5094e-09
2.55855e-05
0.000226608
-6.06974e-10
2.10397e-05
0.000216574
2.62704e-09
1.71833e-05
0.000211985
4.04724e-09
9.94399e-06
0.000208562
4.02139e-09
7.08981e-06
0.000205839
5.92724e-08
4.76046e-06
0.000202213
1.27978e-07
5.20651e-06
0.000199041
2.45097e-07
5.17766e-06
0.000196326
4.276e-07
4.84187e-06
0.000193866
7.08052e-07
4.13787e-06
0.000191354
1.20286e-06
2.4788e-06
0.000187333
2.30154e-06
-2.28538e-06
0.000204521
4.22562e-06
-2.85031e-05
0.000293369
2.46169e-05
-0.000155473
0.0001975
0.000306206
-1.65291e-05
0.000146836
0.000328177
3.74857e-05
0.000126908
0.000243191
3.16086e-05
8.00023e-05
0.000172009
4.67943e-05
4.18963e-05
0.000162479
4.13357e-05
0.00015179
4.66767e-05
0.00023096
-1.17195e-09
2.55867e-05
0.000226592
-7.3888e-11
2.1038e-05
0.000216586
3.14478e-09
1.71838e-05
0.00021199
1.70779e-09
9.94478e-06
0.000208549
5.99281e-09
7.08706e-06
0.000205855
6.04389e-08
4.76417e-06
0.000202207
1.38251e-07
5.16987e-06
0.000198977
2.81061e-07
5.14071e-06
0.000196182
5.07198e-07
4.81809e-06
0.000193674
8.77886e-07
4.15462e-06
0.000191092
1.60291e-06
2.57671e-06
0.000186623
3.41892e-06
-2.18494e-06
0.000203121
7.95238e-06
-2.94087e-05
0.000300535
4.63611e-05
-0.000177954
0.0001962
0.000345886
-1.33642e-05
0.000149719
0.000358412
3.74137e-05
0.000128585
0.000258174
3.50423e-05
7.83807e-05
0.000183071
4.90311e-05
3.93694e-05
0.000177889
4.1003e-05
0.000179056
4.36414e-05
0.000230963
-6.04758e-10
2.55873e-05
0.00022658
7.47688e-10
2.10369e-05
0.000216599
3.35336e-09
1.71848e-05
0.000211991
-1.53224e-09
9.9482e-06
0.000208532
8.8137e-09
7.08042e-06
0.000205892
5.69374e-08
4.77427e-06
0.000202205
1.46483e-07
5.1238e-06
0.000198907
3.17417e-07
5.09472e-06
0.00019604
5.87131e-07
4.79205e-06
0.000193488
1.04429e-06
4.18427e-06
0.000190868
1.99305e-06
2.71683e-06
0.000186328
4.5165e-06
-1.96754e-06
0.000202958
1.1585e-05
-2.97161e-05
0.000299503
6.67563e-05
-0.000188067
0.000194916
0.000385553
-1.96535e-05
0.000152965
0.000388695
3.54395e-05
0.000130044
0.000272131
3.95011e-05
7.71998e-05
0.000195046
5.04293e-05
3.74714e-05
0.000195634
4.02363e-05
0.000213152
4.03296e-05
0.000230967
5.06624e-10
2.55878e-05
0.000226568
1.02823e-09
2.10359e-05
0.00021661
2.92483e-09
1.71865e-05
0.000211988
-5.13232e-09
9.95569e-06
0.000208513
1.29052e-08
7.0694e-06
0.000205945
4.66591e-08
4.79234e-06
0.000202219
1.54908e-07
5.06309e-06
0.000198855
3.56163e-07
5.03981e-06
0.000195888
6.61277e-07
4.76371e-06
0.000193217
1.17955e-06
4.2173e-06
0.000190584
2.29786e-06
2.88508e-06
0.000186335
5.42063e-06
-1.60729e-06
0.000203663
1.49924e-05
-2.92828e-05
0.000292337
8.57033e-05
-0.000187301
0.000194102
0.00042697
-3.21769e-05
0.000156847
0.000416829
3.35985e-05
0.000130999
0.000286065
4.52305e-05
7.65696e-05
0.000208833
5.07078e-05
3.62417e-05
0.000216596
3.87356e-05
0.000255135
3.65388e-05
0.000230963
5.8271e-10
2.55863e-05
0.000226566
8.74967e-10
2.10351e-05
0.00021662
2.81372e-09
1.71895e-05
0.000211983
-8.13555e-09
9.96839e-06
0.000208492
1.7493e-08
7.05166e-06
0.00020602
2.86379e-08
4.82804e-06
0.000202267
1.69127e-07
4.98113e-06
0.000198778
3.95501e-07
4.96878e-06
0.00019563
7.13553e-07
4.71528e-06
0.000192885
1.26691e-06
4.22798e-06
0.00019048
2.53005e-06
3.06433e-06
0.000186881
6.15509e-06
-1.08541e-06
0.000204813
1.7621e-05
-2.79031e-05
0.000279529
9.89924e-05
-0.000176007
0.000194227
0.000468966
-4.88239e-05
0.000160735
0.000443282
2.94554e-05
0.000131141
0.000298801
5.20281e-05
7.65956e-05
0.000224338
4.9658e-05
3.62133e-05
0.000240912
3.62861e-05
0.000307701
3.09631e-05
0.000230958
4.21046e-10
2.55842e-05
0.000226573
3.87693e-10
2.10346e-05
0.000216631
2.38631e-09
1.71921e-05
0.000211976
-9.9203e-09
9.98558e-06
0.000208473
2.03866e-08
7.02451e-06
0.000206143
9.71372e-09
4.90051e-06
0.000202265
1.8911e-07
4.86028e-06
0.000198568
4.18103e-07
4.86011e-06
0.000195361
7.3517e-07
4.63905e-06
0.00019271
1.33225e-06
4.22655e-06
0.000190545
2.75752e-06
3.25939e-06
0.000187727
6.88383e-06
-3.39927e-07
0.000206608
2.00254e-05
-2.47815e-05
0.000259105
0.000106875
-0.000150453
0.000195255
0.000509249
-6.85337e-05
0.000164277
0.000469279
2.18359e-05
0.000131265
0.000310405
5.80764e-05
7.7577e-05
0.000241066
4.73839e-05
3.76686e-05
0.000268883
3.29675e-05
0.000369697
2.56804e-05
0.000230953
2.04893e-10
2.55822e-05
0.000226589
-3.01536e-10
2.10341e-05
0.000216641
1.60404e-09
1.71943e-05
0.000211967
-1.0348e-08
1.00049e-05
0.000208471
2.0645e-08
6.9902e-06
0.000206236
-8.63358e-10
5.01682e-06
0.000202138
1.97068e-07
4.67598e-06
0.000198474
4.21064e-07
4.7207e-06
0.000195314
7.50739e-07
4.56639e-06
0.000192639
1.41735e-06
4.22256e-06
0.000190544
3.06059e-06
3.41876e-06
0.000188454
7.79506e-06
4.48519e-07
0.00020736
2.26042e-05
-2.03575e-05
0.000237343
0.000113296
-0.000113399
0.000197225
0.000548422
-8.87442e-05
0.000166188
0.000493263
1.52676e-05
0.000131856
0.000320622
6.15113e-05
8.03282e-05
0.000257645
4.35036e-05
4.12079e-05
0.000301292
2.81764e-05
0.000439305
2.21303e-05
0.00023095
-5.0734e-10
2.55802e-05
0.000226613
-1.30556e-09
2.10337e-05
0.00021665
8.6008e-10
1.7196e-05
0.000211957
-9.13417e-09
1.00242e-05
0.000208481
1.95176e-08
6.95532e-06
0.00020618
-7.96653e-09
5.15285e-06
0.000202197
1.97394e-07
4.45841e-06
0.000198556
4.21618e-07
4.58485e-06
0.000195358
7.73161e-07
4.49487e-06
0.000192574
1.53707e-06
4.19063e-06
0.000190321
3.45745e-06
3.48298e-06
0.000188463
8.92109e-06
1.05929e-06
0.000206667
2.57456e-05
-1.60711e-05
0.000217822
0.000120223
-7.74733e-05
0.000194931
0.000586724
-0.000107853
0.000165503
0.000519052
7.75939e-06
0.000134152
0.000324499
6.28978e-05
8.54457e-05
0.000272929
3.90705e-05
4.83655e-05
0.000337598
2.20971e-05
0.000520438
1.59415e-05
0.000230952
2.55787e-05
-1.80439e-09
0.000226642
2.10336e-05
-2.31766e-09
0.000216658
1.71965e-05
4.52535e-10
0.000211947
1.00415e-05
-6.43764e-09
0.000208492
6.92399e-06
1.80004e-08
0.0002061
5.29815e-06
-2.19439e-08
0.000202292
4.23604e-06
2.05559e-07
0.000198718
4.45106e-06
4.26181e-07
0.000195474
4.41628e-06
7.97943e-07
0.000192448
4.1177e-06
1.63473e-06
0.000189694
3.41991e-06
3.74448e-06
0.000187665
1.31509e-06
9.72524e-06
0.000204737
-1.25309e-05
2.86199e-05
0.000201523
-4.90641e-05
0.000127917
0.000181813
-0.000123275
0.00062922
0.000161379
-1.43873e-06
0.000548264
0.000138108
6.4849e-05
0.000318935
9.35935e-05
3.44391e-05
0.000290316
6.56637e-05
1.41694e-05
0.000368266
1.90545e-06
0.000618936
0.000224102
2.2531e-10
1.12379e-05
0.00023066
-2.20608e-10
1.45417e-05
0.000235385
1.53578e-10
1.24094e-05
0.000234165
5.97951e-10
1.11461e-05
0.000231901
1.36707e-09
9.3888e-06
0.00022875
7.57736e-10
7.99244e-06
0.000226933
1.71678e-09
7.17584e-06
0.00022579
3.83619e-09
6.46581e-06
0.00022496
5.37722e-09
5.91422e-06
0.000224274
8.95812e-10
5.48115e-06
0.000223728
-3.2791e-08
5.0784e-06
0.000223827
-2.01986e-07
4.24012e-06
0.000224965
-1.1947e-06
9.70544e-07
0.000234741
-8.29679e-06
-9.80849e-06
0.000220188
-1.44735e-05
-8.94168e-05
0.000181393
9.28134e-06
2.2494e-05
0.000132087
3.3554e-05
4.68644e-05
9.38036e-05
2.14392e-05
6.68106e-05
5.58462e-05
2.83444e-05
7.1076e-05
1.49129e-05
0.000115461
0.000224102
4.31564e-10
1.1238e-05
0.00023066
-4.63013e-10
1.45416e-05
0.000235384
2.87509e-10
1.24093e-05
0.000234167
1.16654e-09
1.11453e-05
0.000231903
2.62344e-09
9.38915e-06
0.000228748
1.79163e-09
7.99353e-06
0.000226935
4.17938e-09
7.16847e-06
0.00022579
8.23359e-09
6.46071e-06
0.000224956
8.85721e-09
5.89911e-06