/*--------------------------------*- C++ -*----------------------------------*\
  =========                 |
  \\      /  F ield         | OpenFOAM: The Open Source CFD Toolbox
   \\    /   O peration     | Website:  https://openfoam.org
    \\  /    A nd           | Version:  6.0
     \\/     M anipulation  |
\*---------------------------------------------------------------------------*/
FoamFile
{
    version     2.0;
    format      ascii;
    class       volScalarField;
    location    "1.5";
    object      T;
}
// * * * * * * * * * * * * * * * * * * * * * * * * * * * * * * * * * * * * * //

dimensions      [0 0 0 1 0 0 0];

internalField   nonuniform List<scalar> 
24000
(
0.885456
0.839298
0.8187
0.8023
0.789253
0.783344
0.780901
0.781551
0.785702
0.80029
0.842666
0.961054
1.31975
2.34119
2.65701
2.71595
2.84047
3.04736
3.09253
2.90085
0.885456
0.839295
0.818712
0.802279
0.789264
0.783351
0.780892
0.781532
0.785659
0.80017
0.842295
0.959635
1.31757
2.30234
2.67331
2.7708
2.91767
3.06647
3.10198
2.91971
0.885456
0.839288
0.818737
0.802235
0.789286
0.783361
0.780874
0.781495
0.785579
0.799957
0.841658
0.957444
1.31401
2.26314
2.69745
2.82943
2.97064
3.06039
3.08787
2.92559
0.885463
0.839278
0.81877
0.80217
0.789318
0.783363
0.780846
0.781444
0.785478
0.799706
0.84093
0.955071
1.30971
2.23026
2.73419
2.88741
3.00816
3.04819
3.06544
2.92252
0.885474
0.839267
0.818813
0.802084
0.789359
0.783348
0.78081
0.781387
0.785385
0.799504
0.840354
0.95323
1.30587
2.2101
2.77019
2.94515
3.03341
3.03117
3.03867
2.91439
0.885476
0.839263
0.818872
0.801976
0.789409
0.783307
0.780773
0.781335
0.785325
0.799408
0.840066
0.952145
1.30352
2.19051
2.80303
2.99785
3.05694
3.02098
3.01671
2.90432
0.885466
0.839271
0.818949
0.801845
0.78947
0.783233
0.780735
0.781292
0.785311
0.799448
0.840134
0.951971
1.30316
2.17286
2.8347
3.0446
3.08017
3.0107
2.99837
2.89571
0.885444
0.839292
0.819041
0.801689
0.789544
0.783116
0.780698
0.781259
0.785342
0.79962
0.840552
0.952738
1.30533
2.1574
2.86722
3.08556
3.10083
2.99628
2.98078
2.8877
0.885412
0.839326
0.81914
0.80151
0.789637
0.782953
0.780658
0.781233
0.785409
0.799894
0.841242
0.954281
1.30992
2.14492
2.9022
3.12014
3.1206
2.97349
2.96102
2.87808
0.885371
0.839377
0.819236
0.801311
0.789756
0.782736
0.780616
0.781209
0.785503
0.800241
0.842089
0.956251
1.3164
2.13544
2.93955
3.15017
3.13517
2.9429
2.93741
2.86777
0.885325
0.839443
0.819314
0.801099
0.789903
0.78246
0.780567
0.781181
0.785614
0.800629
0.842994
0.958359
1.32398
2.1279
2.9796
3.1766
3.14215
2.9078
2.91188
2.8557
0.885277
0.839525
0.819364
0.800889
0.790078
0.782121
0.780508
0.781143
0.78572
0.801002
0.843814
0.960192
1.33083
2.12011
3.02213
3.19999
3.14126
2.86786
2.88375
2.84233
0.885233
0.839615
0.819374
0.800698
0.790271
0.781725
0.780438
0.781089
0.785806
0.801305
0.84439
0.961244
1.33477
2.10946
3.06601
3.2197
3.13229
2.82555
2.85728
2.83143
0.885197
0.839703
0.819344
0.800546
0.790462
0.781297
0.780353
0.781017
0.785852
0.801483
0.844604
0.961327
1.33499
2.09543
3.10803
3.23488
3.11407
2.77958
2.82778
2.81837
0.885178
0.839778
0.819276
0.800445
0.790629
0.780879
0.780239
0.780912
0.785818
0.801439
0.844354
0.960579
1.33249
2.08019
3.15053
3.2467
3.0868
2.7355
2.80058
2.80847
0.885173
0.839825
0.819185
0.800403
0.790757
0.780519
0.78007
0.780745
0.785642
0.801092
0.84363
0.959164
1.32782
2.06375
3.19135
3.25549
3.04929
2.69729
2.77999
2.80001
0.885178
0.839837
0.819092
0.800414
0.790844
0.780248
0.779818
0.780491
0.785306
0.800455
0.84243
0.957032
1.32171
2.05099
3.23095
3.26162
3.00548
2.6588
2.75233
2.78773
0.885185
0.839818
0.819013
0.800466
0.790904
0.780056
0.779485
0.780156
0.784817
0.799501
0.840596
0.953629
1.31327
2.03962
3.26974
3.26299
2.95297
2.62894
2.72926
2.7684
0.885208
0.83975
0.818969
0.80054
0.79094
0.779935
0.779094
0.779737
0.784113
0.798104
0.837918
0.948541
1.30116
2.03032
3.30018
3.25897
2.8981
2.60131
2.69867
2.73456
0.885218
0.839658
0.818979
0.800609
0.790976
0.779912
0.778615
0.779173
0.783126
0.79626
0.83445
0.941554
1.28311
2.00842
3.34253
3.24528
2.857
2.58883
2.67442
2.67178
0.997987
0.989362
0.981713
0.972004
0.964052
0.960397
0.960848
0.963189
0.971866
0.995893
1.05776
1.21585
1.67764
2.72198
2.85157
3.1921
3.44286
3.50431
3.38662
2.97257
0.997987
0.989354
0.981723
0.972001
0.964043
0.960396
0.960848
0.963178
0.971826
0.995776
1.05747
1.21494
1.67789
2.71052
2.85403
3.23774
3.44186
3.44427
3.33023
2.97484
0.997988
0.989338
0.981744
0.971994
0.964025
0.960395
0.960848
0.963159
0.971764
0.995611
1.05711
1.21391
1.67947
2.68453
2.86584
3.28807
3.42211
3.37808
3.26939
2.96859
0.997988
0.989318
0.98178
0.971982
0.963997
0.960393
0.960849
0.963142
0.971717
0.995518
1.05711
1.21288
1.69578
2.65548
2.88255
3.32901
3.40247
3.31128
3.21881
2.96109
0.99799
0.989294
0.981835
0.97196
0.96396
0.960395
0.960854
0.963138
0.97172
0.995603
1.0577
1.21329
1.73032
2.62534
2.90001
3.35961
3.3867
3.25331
3.17676
2.95027
0.99799
0.989271
0.98191
0.97192
0.963915
0.960399
0.960864
0.96315
0.971781
0.995879
1.05884
1.21551
1.7703
2.6012
2.91885
3.38244
3.37725
3.2055
3.14491
2.93531
0.997989
0.989252
0.982002
0.971858
0.963869
0.960403
0.960873
0.96317
0.97189
0.996327
1.06047
1.21941
1.81465
2.5803
2.9405
3.40203
3.36921
3.16961
3.12383
2.92043
0.997987
0.989243
0.982106
0.971766
0.96383
0.960401
0.960871
0.963184
0.972022
0.9969
1.06245
1.22452
1.86103
2.56614
2.96482
3.42046
3.3603
3.14255
3.10909
2.90598
0.997983
0.989249
0.982214
0.971643
0.963809
0.960381
0.960846
0.963173
0.972149
0.99753
1.06456
1.23034
1.90699
2.56191
2.99192
3.43832
3.35261
3.12257
3.10032
2.89172
0.997977
0.989274
0.982312
0.971492
0.963816
0.960334
0.960786
0.963121
0.972248
0.998143
1.0666
1.23639
1.9452
2.56886
3.0236
3.45602
3.34455
3.10546
3.0954
2.87823
0.997971
0.989318
0.98239
0.971321
0.963857
0.960245
0.960678
0.963015
0.972295
0.998658
1.06831
1.24224
1.97232
2.58487
3.06135
3.4747
3.33442
3.08697
3.09126
2.86544
0.997963
0.989382
0.982437
0.971143
0.963938
0.960101
0.960514
0.962849
0.972273
0.99898
1.06937
1.24674
1.9855
2.60146
3.10553
3.49323
3.31955
3.06551
3.08745
2.85229
0.997955
0.989465
0.982444
0.970974
0.964047
0.959891
0.960295
0.962634
0.972183
0.999062
1.0696
1.24885
1.9843
2.60902
3.15595
3.51054
3.30029
3.04035
3.08198
2.84095
0.997947
0.98956
0.982407
0.970828
0.964176
0.959609
0.960023
0.962384
0.972043
0.998918
1.06903
1.24854
1.96893
2.60744
3.21062
3.52464
3.27395
3.01071
3.07338
2.82845
0.997911
0.989667
0.982339
0.970726
0.96431
0.95925
0.959711
0.962135
0.971873
0.998492
1.0676
1.24601
1.94421
2.59756
3.27014
3.53694
3.2398
2.976
3.06047
2.81936
0.99784
0.989795
0.982247
0.970674
0.964425
0.958815
0.959406
0.961954
0.971638
0.997659
1.06527
1.24118
1.90884
2.58147
3.33265
3.54209
3.19627
2.94285
3.04688
2.80819
0.997787
0.989906
0.982122
0.970669
0.964492
0.958349
0.959181
0.961793
0.971165
0.996442
1.0624
1.23443
1.86748
2.54551
3.40579
3.53543
3.13896
2.9044
3.02889
2.79286
0.997754
0.989985
0.981974
0.97071
0.964501
0.957942
0.958974
0.961472
0.970502
0.994992
1.05899
1.22607
1.82077
2.50442
3.46696
3.50684
3.07544
2.87768
3.00893
2.76823
0.997748
0.990016
0.981826
0.97078
0.964464
0.957626
0.958668
0.961066
0.969661
0.993143
1.05485
1.21595
1.7764
2.45101
3.52011
3.48205
3.01237
2.84993
2.98135
2.73923
0.997761
0.990001
0.981691
0.970862
0.964398
0.957365
0.958347
0.960525
0.968532
0.990828
1.04988
1.20482
1.72287
2.4087
3.61009
3.44858
2.96742
2.83896
2.95271
2.66399
1.02482
1.03092
1.0267
1.02398
1.01954
1.01764
1.01768
1.02082
1.0318
1.06065
1.13254
1.31253
1.83707
2.92368
2.87136
3.34677
3.63695
3.57094
3.34073
2.87124
1.02482
1.03091
1.02671
1.02398
1.01953
1.01764
1.01768
1.02083
1.03182
1.06073
1.1329
1.31389
1.8436
2.93532
2.87321
3.32672
3.54541
3.46797
3.2809
2.87593
1.02483
1.03091
1.02672
1.02399
1.01951
1.01764
1.01769
1.02085
1.03189
1.06098
1.13387
1.31659
1.86176
2.949
2.86656
3.30592
3.45319
3.3681
3.21962
2.86446
1.02483
1.0309
1.02673
1.024
1.01948
1.01764
1.0177
1.0209
1.03206
1.06151
1.13578
1.32085
1.90579
2.95202
2.85764
3.29861
3.38628
3.28002
3.16454
2.84829
1.02483
1.0309
1.02676
1.024
1.01944
1.01764
1.01772
1.02099
1.03234
1.06234
1.13847
1.32762
1.95825
2.97116
2.85042
3.29527
3.33478
3.20541
3.11646
2.82993
1.02483
1.03089
1.0268
1.02399
1.01939
1.01765
1.01776
1.02112
1.0327
1.06336
1.14168
1.33647
2.01708
3.00379
2.85397
3.29155
3.29179
3.14554
3.07883
2.80942
1.02483
1.03089
1.02685
1.02398
1.01933
1.01767
1.0178
1.02125
1.03309
1.06448
1.14516
1.34642
2.07575
3.04371
2.87044
3.28745
3.25516
3.10135
3.05006
2.78686
1.02483
1.03088
1.02692
1.02394
1.01927
1.01769
1.01785
1.02139
1.03348
1.0656
1.14861
1.35644
2.13017
3.09759
2.89087
3.28458
3.22467
3.06884
3.02839
2.76439
1.02483
1.03088
1.027
1.02388
1.0192
1.0177
1.01789
1.02151
1.03382
1.06663
1.15179
1.36598
2.17933
3.15466
2.91493
3.2844
3.20158
3.04478
3.01239
2.74292
1.02483
1.03088
1.02709
1.0238
1.01915
1.0177
1.0179
1.02158
1.03407
1.06748
1.15459
1.37491
2.22306
3.20913
2.94378
3.28432
3.18451
3.02652
3.00081
2.72285
1.02482
1.03088
1.02718
1.02369
1.01911
1.01767
1.01788
1.02158
1.03418
1.06803
1.15678
1.38291
2.26268
3.25598
2.97799
3.28458
3.17026
3.01035
2.99153
2.70377
1.02481
1.03088
1.02727
1.02355
1.0191
1.01762
1.01783
1.0215
1.03409
1.06816
1.15797
1.38866
2.29475
3.28924
3.01618
3.28482
3.15403
2.99461
2.98321
2.68526
1.02481
1.03088
1.02735
1.0234
1.01912
1.01753
1.01772
1.02132
1.03383
1.06788
1.158
1.39116
2.31521
3.30158
3.05886
3.28626
3.13596
2.97614
2.9743
2.66921
1.0248
1.03089
1.02741
1.02324
1.01918
1.01739
1.01757
1.02106
1.03341
1.06725
1.15699
1.39061
2.3195
3.29566
3.10673
3.28902
3.11477
2.95507
2.96249
2.65347
1.02479
1.0309
1.02745
1.02309
1.01926
1.01722
1.01737
1.02074
1.03289
1.06628
1.1549
1.38698
2.3121
3.26533
3.1631
3.2816
3.08128
2.92978
2.94872
2.63824
1.02478
1.0309
1.02746
1.02295
1.01936
1.017
1.01714
1.02039
1.03228
1.06498
1.15167
1.38029
2.283
3.23273
3.21319
3.29899
3.0533
2.9048
2.93153
2.6206
1.02477
1.0309
1.02745
1.02284
1.01946
1.01675
1.0169
1.02003
1.0316
1.06345
1.14751
1.36966
2.23738
3.17052
3.28276
3.3697
3.03356
2.87589
2.91034
2.60112
1.02477
1.0309
1.02742
1.02275
1.01956
1.01647
1.01665
1.01963
1.03085
1.06168
1.14252
1.35603
2.17099
3.08779
3.32574
3.41039
3.01176
2.86026
2.88293
2.56587
1.02477
1.0309
1.02739
1.0227
1.01964
1.01615
1.01637
1.01918
1.02998
1.05955
1.13671
1.34013
2.10303
2.97445
3.38294
3.44368
2.98098
2.84162
2.86058
2.53706
1.02477
1.03089
1.02734
1.02267
1.01971
1.01581
1.01607
1.01867
1.02891
1.05699
1.13013
1.3235
2.01722
2.87762
3.50008
3.4721
2.96379
2.83723
2.81104
2.44859
1.02127
1.03461
1.04043
1.04311
1.04387
1.04417
1.04612
1.05181
1.06604
1.10025
1.18295
1.39346
1.96373
3.14309
2.7758
3.43165
3.59219
3.39443
3.11931
2.67692
1.02127
1.03461
1.04043
1.04311
1.04387
1.04418
1.04614
1.05186
1.06621
1.10083
1.18478
1.39978
1.97931
3.17504
2.75367
3.36381
3.47338
3.28289
3.07478
2.6836
1.02127
1.03461
1.04043
1.04312
1.04387
1.04418
1.04617
1.05197
1.06657
1.10194
1.1882
1.4112
2.00829
3.22612
2.74344
3.26011
3.31358
3.1694
3.0191
2.67597
1.02127
1.03461
1.04043
1.04312
1.04386
1.04418
1.04621
1.05214
1.0671
1.1035
1.19281
1.42618
2.04603
3.28981
2.74115
3.17358
3.18525
3.07955
2.97099
2.66123
1.02126
1.03461
1.04043
1.04313
1.04386
1.04418
1.04626
1.05234
1.06773
1.10528
1.19792
1.44223
2.09914
3.36423
2.73197
3.10579
3.09097
3.00953
2.92952
2.64518
1.02125
1.03461
1.04044
1.04313
1.04386
1.04418
1.04632
1.05256
1.06838
1.10708
1.20309
1.45807
2.16583
3.42377
2.72328
3.06112
3.02566
2.95997
2.89382
2.62742
1.02125
1.03462
1.04044
1.04314
1.04385
1.04419
1.04638
1.05276
1.069
1.10881
1.20803
1.47288
2.23198
3.46444
2.7212
3.03253
2.98199
2.9247
2.86345
2.60973
1.02123
1.03463
1.04045
1.04314
1.04383
1.04419
1.04643
1.05296
1.06958
1.1104
1.21255
1.48597
2.29263
3.4971
2.72362
3.01422
2.9563
2.89635
2.83701
2.59355
1.02122
1.03465
1.04046
1.04315
1.04381
1.04419
1.04647
1.05313
1.07008
1.11179
1.21654
1.49723
2.34813
3.52933
2.7303
3.00106
2.9411
2.87214
2.81344
2.57768
1.02121
1.03466
1.04046
1.04315
1.04378
1.04418
1.04649
1.05324
1.07046
1.11293
1.22001
1.50717
2.40093
3.56571
2.7447
2.99034
2.93075
2.85302
2.79175
2.56103
1.0212
1.03468
1.04046
1.04315
1.04375
1.04415
1.04648
1.05327
1.07064
1.11367
1.22279
1.51594
2.45268
3.60567
2.76341
2.97749
2.92291
2.83699
2.77142
2.54368
1.02119
1.0347
1.04046
1.04315
1.04372
1.04411
1.04642
1.05319
1.07058
1.11386
1.22438
1.52227
2.49661
3.65114
2.78713
2.96303
2.92135
2.82439
2.75073
2.52487
1.02119
1.03472
1.04045
1.04314
1.04369
1.04407
1.04633
1.05302
1.07029
1.1135
1.22458
1.5248
2.53157
3.68859
2.81991
2.9455
2.91522
2.81076
2.73282
2.50695
1.02119
1.03474
1.04044
1.04314
1.04365
1.04401
1.0462
1.05275
1.06978
1.11263
1.22346
1.52367
2.55332
3.71557
2.86399
2.93169
2.90598
2.79325
2.71255
2.4889
1.02119
1.03474
1.04043
1.04313
1.04362
1.04395
1.04605
1.05242
1.06908
1.11125
1.22096
1.51881
2.56234
3.72672
2.91326
2.91819
2.89133
2.77723
2.69212
2.47191
1.0212
1.03474
1.04041
1.04312
1.04358
1.04388
1.04589
1.05204
1.06825
1.10943
1.21695
1.50983
2.55378
3.73051
2.96188
2.91308
2.86148
2.7565
2.66753
2.45044
1.02121
1.03474
1.04041
1.04311
1.04355
1.04382
1.04572
1.05165
1.06734
1.10724
1.21148
1.49551
2.52405
3.72233
3.04902
2.92207
2.83034
2.73559
2.64527
2.42954
1.02122
1.03472
1.0404
1.04309
1.04352
1.04375
1.04554
1.05123
1.06634
1.10475
1.20476
1.47659
2.46302
3.69641
3.10176
2.94918
2.81731
2.71881
2.61405
2.39041
1.02124
1.03471
1.0404
1.04307
1.04349
1.04369
1.04535
1.05075
1.0652
1.10189
1.19706
1.45417
2.39466
3.61172
3.18176
2.97811
2.81469
2.70862
2.59683
2.3577
1.02125
1.03469
1.04039
1.04305
1.04348
1.04362
1.04511
1.05019
1.0639
1.09868
1.18848
1.42988
2.30216
3.5163
3.34014
2.99276
2.81742
2.70216
2.55008
2.28327
1.01029
1.02109
1.03009
1.03669
1.04127
1.04457
1.04847
1.05647
1.07388
1.11355
1.2083
1.45605
2.12312
3.39665
2.62371
3.31658
3.24769
3.01566
2.85289
2.54339
1.01029
1.0211
1.03009
1.03669
1.04126
1.04457
1.0485
1.05659
1.0743
1.11485
1.21192
1.46738
2.13786
3.40478
2.58177
3.23251
3.15921
2.96533
2.82414
2.54278
1.01028
1.02111
1.0301
1.03669
1.04126
1.04457
1.04858
1.05686
1.07505
1.11699
1.2179
1.48587
2.18833
3.42614
2.54528
3.08489
3.01917
2.9
2.77702
2.53555
1.01026
1.02113
1.03011
1.03668
1.04126
1.04456
1.04868
1.0572
1.07599
1.11949
1.22479
1.50668
2.26564
3.44569
2.51517
2.95702
2.91111
2.84271
2.73562
2.52418
1.01024
1.02115
1.03012
1.03666
1.04127
1.04454
1.04877
1.05755
1.07695
1.12201
1.23159
1.52704
2.3518
3.46448
2.48063
2.86369
2.83836
2.79363
2.70048
2.5129
1.01022
1.02118
1.03013
1.03664
1.04129
1.04453
1.04885
1.05785
1.07783
1.12436
1.23791
1.54585
2.4369
3.47216
2.44375
2.80017
2.79058
2.75374
2.6672
2.50078
1.01019
1.02123
1.03013
1.03662
1.04131
1.04452
1.04893
1.05813
1.07863
1.12649
1.24367
1.56265
2.51397
3.4595
2.42003
2.76544
2.75863
2.719
2.63718
2.4878
1.01016
1.02128
1.03013
1.03661
1.04133
1.04451
1.04899
1.05836
1.07933
1.12839
1.24883
1.57757
2.57764
3.44302
2.41303
2.75113
2.73497
2.68554
2.6097
2.47458
1.01014
1.02133
1.0301
1.0366
1.04134
1.04449
1.04903
1.05856
1.07994
1.13004
1.25332
1.59079
2.63256
3.43445
2.42204
2.74411
2.71636
2.65413
2.58435
2.4602
1.01013
1.02138
1.03007
1.03661
1.04135
1.04446
1.04904
1.0587
1.08041
1.13141
1.25723
1.60304
2.68108
3.44269
2.43871
2.73768
2.70476
2.62613
2.55893
2.44515
1.01013
1.02143
1.03002
1.03662
1.04135
1.04442
1.04902
1.05874
1.08068
1.13238
1.26046
1.6142
2.7229
3.47544
2.46754
2.728
2.69452
2.60002
2.53616
2.43017
1.01013
1.02147
1.02996
1.03665
1.04134
1.04438
1.04896
1.05868
1.0807
1.13275
1.26252
1.62259
2.75651
3.53685
2.50586
2.7161
2.68378
2.57401
2.51054
2.41282
1.01015
1.0215
1.02989
1.03668
1.04131
1.04433
1.04887
1.05852
1.08046
1.13252
1.26319
1.62662
2.7862
3.60311
2.55229
2.6965
2.66912
2.54815
2.48812
2.39649
1.01017
1.02151
1.02983
1.03673
1.04127
1.04428
1.04875
1.05827
1.07995
1.13167
1.26241
1.62629
2.80841
3.66813
2.60861
2.68795
2.65122
2.52172
2.46092
2.37977
1.0102
1.0215
1.02979
1.03678
1.04122
1.04423
1.04862
1.05794
1.07918
1.13013
1.25994
1.6212
2.82298
3.72111
2.66499
2.68819
2.63443
2.49711
2.43501
2.36312
1.01023
1.02148
1.02976
1.03683
1.04116
1.04419
1.04848
1.05756
1.07821
1.12792
1.25548
1.61092
2.82354
3.76381
2.72811
2.6916
2.61025
2.46665
2.4049
2.34336
1.01026
1.02144
1.02975
1.03687
1.04109
1.04417
1.04836
1.05715
1.07709
1.12516
1.24898
1.5943
2.79789
3.8062
2.82119
2.70533
2.58439
2.44114
2.37978
2.31906
1.01028
1.02141
1.02977
1.03689
1.04102
1.04416
1.04824
1.05671
1.07583
1.12195
1.24078
1.57197
2.733
3.84549
2.88827
2.72797
2.57111
2.41634
2.34726
2.28746
1.0103
1.02137
1.02979
1.03689
1.04096
1.04417
1.0481
1.05618
1.07438
1.11832
1.23136
1.54486
2.64826
3.83723
2.99677
2.77701
2.58164
2.4033
2.32329
2.24346
1.01031
1.02135
1.02982
1.03688
1.04093
1.04418
1.04793
1.05556
1.07276
1.11433
1.22081
1.51462
2.52446
3.82458
3.14054
2.77515
2.59095
2.39042
2.28237
2.18916
1.0034
1.00921
1.01627
1.02275
1.02807
1.03248
1.03712
1.0466
1.06665
1.11169
1.21989
1.50847
2.37856
3.65439
2.41427
3.04524
2.84173
2.69946
2.62114
2.49645
1.00339
1.00922
1.01628
1.02274
1.02806
1.03249
1.03716
1.04683
1.06739
1.11367
1.22456
1.52166
2.37338
3.53698
2.33164
2.96691
2.79585
2.66967
2.59929
2.4928
1.00337
1.00925
1.01628
1.02273
1.02805
1.03248
1.03733
1.04725
1.0685
1.1166
1.23194
1.54257
2.43649
3.44816
2.25417
2.82476
2.72079
2.62245
2.564
2.48541
1.00335
1.00929
1.01629
1.0227
1.02806
1.03245
1.03751
1.04779
1.06977
1.11966
1.23984
1.56536
2.54025
3.36062
2.19591
2.71059
2.65536
2.57874
2.53223
2.47749
1.00332
1.00935
1.01629
1.02266
1.02808
1.03242
1.03765
1.04827
1.07099
1.12265
1.24749
1.58708
2.6601
3.23186
2.16901
2.62876
2.60811
2.54438
2.50439
2.46917
1.0033
1.00941
1.01629
1.02261
1.02811
1.0324
1.03778
1.04869
1.0721
1.12541
1.25457
1.60622
2.78273
3.10307
2.17351
2.57635
2.57416
2.51264
2.48043
2.46104
1.00327
1.00949
1.01627
1.02256
1.02815
1.03239
1.03788
1.04905
1.07309
1.12791
1.26115
1.6234
2.89292
3.00889
2.19494
2.54005
2.54694
2.48048
2.45905
2.45146
1.00326
1.00956
1.01622
1.02253
1.02818
1.03238
1.03796
1.04936
1.07392
1.13008
1.26696
1.63952
2.98106
2.957
2.21928
2.51769
2.52521
2.45465
2.4403
2.44222
1.00325
1.00963
1.01616
1.02251
1.02822
1.03236
1.03802
1.0496
1.07461
1.13189
1.27182
1.65503
3.04146
2.93874
2.24487
2.50671
2.50355
2.4286
2.42245
2.43119
1.00326
1.00969
1.01607
1.02252
1.02824
1.03233
1.03805
1.04977
1.07515
1.13336
1.27581
1.67065
3.06804
2.97128
2.27837
2.50314
2.48339
2.39924
2.40275
2.41911
1.00329
1.00974
1.01597
1.02256
1.02825
1.03229
1.03804
1.04985
1.07549
1.13444
1.27908
1.68536
3.0726
3.05877
2.31891
2.50079
2.46667
2.36913
2.38423
2.4044
1.00333
1.00976
1.01586
1.02263
1.02825
1.03224
1.038
1.04983
1.07558
1.13497
1.28138
1.69687
3.07128
3.17262
2.36288
2.50291
2.45882
2.34097
2.36197
2.38729
1.00338
1.00975
1.01576
1.02271
1.02821
1.0322
1.03793
1.04971
1.07542
1.13492
1.28246
1.70381
3.07232
3.28891
2.41459
2.50323
2.45553
2.31681
2.3423
2.36772
1.00343
1.00971
1.01569
1.02282
1.02816
1.03217
1.03783
1.04948
1.07497
1.13422
1.28209
1.70549
3.07487
3.39804
2.47442
2.51904
2.45383
2.29224
2.32005
2.34887
1.00348
1.00965
1.01564
1.02292
1.02808
1.03215
1.03772
1.04914
1.07419
1.13269
1.27987
1.70105
3.07811
3.48751
2.53815
2.54443
2.44865
2.26831
2.29676
2.3292
1.00353
1.00958
1.01563
1.02302
1.02798
1.03215
1.0376
1.04874
1.07312
1.1303
1.27532
1.69024
3.07194
3.56364
2.62715
2.5627
2.43127
2.24313
2.27086
2.30944
1.00357
1.00951
1.01566
1.02308
1.02788
1.03218
1.03749
1.04829
1.07184
1.12719
1.26825
1.67168
3.03871
3.64086
2.7134
2.59784
2.42042
2.22601
2.24449
2.28138
1.00359
1.00944
1.01572
1.02311
1.02778
1.03223
1.03737
1.04779
1.07037
1.12352
1.25922
1.64625
2.96889
3.725
2.81908
2.66963
2.42273
2.21268
2.22111
2.25419
1.0036
1.0094
1.01578
1.0231
1.0277
1.03231
1.03723
1.04718
1.06868
1.11937
1.24872
1.61535
2.87425
3.77177
2.92196
2.7279
2.44093
2.20925
2.19152
2.19441
1.0036
1.00937
1.01585
1.02307
1.02766
1.03238
1.03704
1.04646
1.06678
1.11476
1.23659
1.58003
2.72746
3.8207
2.98611
2.7328
2.46203
2.20506
2.17167
2.15499
1.00064
1.00302
1.00625
1.01072
1.01521
1.0195
1.02435
1.03441
1.0561
1.1057
1.2276
1.55965
2.65183
3.76044
2.16395
2.80907
2.63324
2.51645
2.48768
2.48353
1.00063
1.00304
1.00625
1.0107
1.01521
1.01949
1.0245
1.0348
1.05711
1.10811
1.23248
1.56985
2.65448
3.49135
2.05782
2.75904
2.5944
2.50051
2.47562
2.47936
1.00063
1.00306
1.00625
1.01068
1.01523
1.01947
1.02473
1.03544
1.05855
1.1114
1.2399
1.58645
2.76349
3.16435
1.9687
2.6361
2.54919
2.47844
2.45912
2.47215
1.00062
1.00308
1.00625
1.01064
1.01526
1.01945
1.02494
1.03605
1.06002
1.11479
1.2483
1.60532
2.94006
2.89441
1.94719
2.53329
2.50869
2.46066
2.44623
2.46467
1.00062
1.00311
1.00624
1.0106
1.0153
1.01945
1.02512
1.03662
1.06145
1.11825
1.25732
1.62359
3.10428
2.71064
1.97598
2.46884
2.4738
2.44071
2.43084
2.45552
1.00062
1.00314
1.00622
1.01056
1.01534
1.01946
1.02528
1.03713
1.06279
1.12155
1.26623
1.64206
3.22664
2.59487
2.0302
2.41914
2.44342
2.4212
2.41654
2.4462
1.00061
1.00317
1.00619
1.01053
1.01539
1.01946
1.02542
1.03755
1.06394
1.12445
1.2742
1.66138
3.30422
2.5338
2.09949
2.37765
2.41967
2.39818
2.40202
2.43626
1.00061
1.00321
1.00614
1.01051
1.01543
1.01946
1.02551
1.03788
1.06483
1.12676
1.28024
1.6826
3.32931
2.51818
2.14779
2.34766
2.39912
2.36969
2.38602
2.42557
1.00061
1.00324
1.00609
1.01051
1.01548
1.01944
1.02557
1.03812
1.06552
1.12853
1.28449
1.70453
3.32146
2.54784
2.18403
2.34107
2.38334
2.34056
2.36916
2.4135
1.00061
1.00327
1.00602
1.01054
1.01551
1.0194
1.02559
1.03829
1.06604
1.12993
1.28768
1.72528
3.30098
2.62126
2.21969
2.3445
2.38074
2.31633
2.35187
2.40034
1.00061
1.00329
1.00595
1.01059
1.01552
1.01934
1.02557
1.03837
1.06638
1.13098
1.29041
1.7434
3.28467
2.73784
2.26383
2.35946
2.38251
2.29403
2.33607
2.38337
1.00061
1.0033
1.00588
1.01067
1.01551
1.01927
1.02552
1.03837
1.06653
1.13161
1.29249
1.75803
3.27342
2.86925
2.30909
2.37444
2.38534
2.27163
2.31825
2.36301
1.00061
1.0033
1.00583
1.01076
1.01547
1.01921
1.02545
1.03829
1.06647
1.13173
1.29356
1.76824
3.26329
3.00544
2.36307
2.39526
2.38857
2.25196
2.30216
2.33912
1.00062
1.0033
1.00579
1.01084
1.0154
1.01916
1.02536
1.03809
1.06611
1.13119
1.29326
1.77254
3.25401
3.13655
2.42077
2.42887
2.38894
2.23016
2.28496
2.31635
1.00063
1.00327
1.00576
1.01094
1.01532
1.01914
1.02524
1.03777
1.06536
1.12973
1.29111
1.76936
3.24912
3.25162
2.51274
2.45639
2.38552
2.20994
2.26573
2.29405
1.00067
1.0032
1.00574
1.01105
1.01522
1.01915
1.02512
1.03735
1.06425
1.12726
1.28648
1.75852
3.23935
3.33661
2.58562
2.49066
2.37797
2.18999
2.24371
2.27336
1.0007
1.00313
1.00574
1.01114
1.01511
1.01918
1.025
1.03687
1.06286
1.12391
1.27909
1.73795
3.21059
3.44127
2.70701
2.53821
2.37964
2.17828
2.21631
2.24492
1.00071
1.00308
1.00578
1.01119
1.015
1.01924
1.02488
1.03631
1.06125
1.11996
1.26963
1.70919
3.14951
3.54278
2.79185
2.58744
2.39257
2.17372
2.19482
2.21829
1.00072
1.00304
1.00585
1.01118
1.01491
1.01932
1.02472
1.03564
1.05941
1.11551
1.25852
1.67463
3.05475
3.61123
2.85771
2.62226
2.40838
2.17413
2.16147
2.15759
1.00071
1.00303
1.00591
1.01115
1.01486
1.0194
1.0245
1.03483
1.05728
1.11039
1.24522
1.63371
2.90822
3.66618
2.85093
2.6523
2.43951
2.17385
2.14297
2.12024
1.00012
1.0005
1.0015
1.00334
1.00627
1.00947
1.01439
1.02455
1.0471
1.10019
1.23426
1.60723
2.90711
3.74232
1.91362
2.63768
2.55592
2.49073
2.46952
2.48367
1.00012
1.0005
1.0015
1.00334
1.00629
1.00947
1.01456
1.02508
1.04837
1.10276
1.23862
1.60775
2.98109
3.19651
1.81988
2.61833
2.52406
2.48456
2.46211
2.47944
1.00012
1.0005
1.0015
1.00332
1.00633
1.0095
1.0148
1.02578
1.04998
1.10609
1.24563
1.61351
3.14107
2.73717
1.77695
2.50604
2.48211
2.48119
2.45536
2.47166
1.00012
1.0005
1.00151
1.0033
1.00638
1.00957
1.01504
1.02643
1.05157
1.10984
1.25551
1.62856
3.28663
2.50173
1.81639
2.40796
2.4554
2.47225
2.44932
2.46327
1.00012
1.0005
1.00151
1.00328
1.00642
1.00964
1.01529
1.02708
1.05322
1.11395
1.26704
1.64833
3.39679
2.34342
1.89109
2.34946
2.42435
2.45226
2.43778
2.45378
1.00012
1.0005
1.00152
1.00327
1.00647
1.00971
1.01552
1.02769
1.05478
1.11781
1.27801
1.67171
3.44576
2.27434
2.01751
2.30019
2.39278
2.4287
2.42497
2.44388
1.00012
1.0005
1.00151
1.00327
1.00652
1.00975
1.0157
1.02817
1.05598
1.12079
1.2857
1.69982
3.43233
2.2526
2.0904
2.25927
2.35849
2.39687
2.40973
2.43276
1.00011
1.0005
1.00151
1.00328
1.00655
1.00977
1.0158
1.02848
1.0568
1.12288
1.28999
1.72954
3.38415
2.27156
2.13022
2.22822
2.33446
2.35564
2.39002
2.42075
1.00011
1.0005
1.00149
1.0033
1.00658
1.00976
1.01585
1.02868
1.05736
1.12436
1.29244
1.7574
3.3379
2.31619
2.15481
2.22838
2.32904
2.32422
2.37133
2.40815
1.00011
1.0005
1.00148
1.00333
1.00659
1.00971
1.01585
1.02881
1.05778
1.12553
1.29452
1.78098
3.3105
2.40253
2.18443
2.24699
2.33459
2.30373
2.35528
2.39266
1.00011
1.0005
1.00147
1.00336
1.00658
1.00964
1.01581
1.02886
1.05808
1.12647
1.2967
1.80026
3.29965
2.51537
2.22595
2.28053
2.34456
2.28704
2.34138
2.37522
1.00011
1.0005
1.00146
1.0034
1.00654
1.00956
1.01573
1.02884
1.05823
1.12712
1.29858
1.81602
3.29487
2.6514
2.2756
2.3031
2.34914
2.26965
2.32503
2.3524
1.00011
1.0005
1.00145
1.00344
1.00648
1.00946
1.01562
1.02876
1.05822
1.12735
1.29961
1.82768
3.29094
2.79263
2.3292
2.32714
2.35021
2.25085
2.30933
2.32534
1.00011
1.0005
1.00145
1.00348
1.0064
1.00936
1.0155
1.02858
1.05793
1.12693
1.29931
1.83339
3.286
2.94746
2.41223
2.36253
2.3502
2.22904
2.29377
2.29754
1.00011
1.0005
1.00144
1.0035
1.00632
1.00928
1.01536
1.02827
1.05724
1.12558
1.29726
1.83072
3.28841
3.05906
2.4899
2.40512
2.34251
2.20471
2.27448
2.27336
1.00011
1.00049
1.00144
1.00352
1.00622
1.00924
1.01523
1.02784
1.05612
1.12313
1.2927
1.81968
3.28539
3.16533
2.60238
2.44713
2.34054
2.18108
2.2538
2.25031
1.00011
1.00049
1.00144
1.00353
1.00613
1.00923
1.01509
1.02733
1.05471
1.11973
1.28538
1.7968
3.27429
3.28375
2.71284
2.45464
2.34633
2.16223
2.22322
2.22263
1.00011
1.00049
1.00144
1.00353
1.00605
1.00925
1.01493
1.02674
1.05307
1.11571
1.27586
1.76439
3.23679
3.37171
2.75067
2.47727
2.35942
2.15705
2.20142
2.19636
1.00011
1.00049
1.00144
1.00353
1.00599
1.00926
1.01474
1.02603
1.05119
1.11116
1.26452
1.72551
3.15946
3.46602
2.79742
2.51871
2.38184
2.16026
2.16055
2.13696
1.00011
1.00049
1.00143
1.00353
1.00595
1.00928
1.01448
1.02516
1.04895
1.10571
1.2505
1.67736
3.04936
3.49536
2.73355
2.5739
2.42588
2.16576
2.13888
2.09876
0.999913
0.999854
0.99999
1.00048
1.00168
1.00376
1.00822
1.01816
1.0412
1.09689
1.24053
1.64381
3.10793
3.65667
1.70691
2.48242
2.50384
2.52297
2.48773
2.47603
0.999913
0.999855
0.999991
1.00049
1.00169
1.00384
1.00845
1.01877
1.04256
1.09937
1.24419
1.63251
3.23808
2.89037
1.63893
2.49063
2.48441
2.51644
2.47843
2.47061
0.999913
0.999856
0.999994
1.0005
1.0017
1.00399
1.00879
1.01951
1.04418
1.10261
1.25132
1.63207
3.35789
2.47593
1.66039
2.413
2.4502
2.52113
2.47609
2.4598
0.999913
0.999859
0.999999
1.00051
1.00171
1.00412
1.00914
1.02026
1.04591
1.10676
1.26305
1.64736
3.44848
2.2482
1.73072
2.32002
2.43233
2.51141
2.4721
2.44931
0.999912
0.999862
1
1.00053
1.00174
1.00424
1.00948
1.02108
1.04787
1.11156
1.27721
1.67101
3.49345
2.12039
1.89203
2.27455
2.40221
2.48281
2.4635
2.44036
0.999911
0.999866
1.00001
1.00055
1.00177
1.00434
1.00978
1.02183
1.04966
1.1158
1.28899
1.70184
3.4616
2.08735
2.02082
2.23022
2.34737
2.44051
2.4489
2.43081
0.99991
0.999868
1.00001
1.00056
1.00179
1.00441
1.00999
1.02236
1.05083
1.1185
1.29363
1.74
3.36452
2.10336
2.06986
2.16092
2.30846
2.39362
2.42799
2.41793
0.999909
0.999869
1.00002
1.00056
1.00181
1.00446
1.01013
1.02267
1.05154
1.12016
1.2953
1.77502
3.30418
2.12146
2.11326
2.13306
2.29631
2.34859
2.40486
2.40363
0.999908
0.999868
1.00002
1.00056
1.00182
1.00449
1.0102
1.02286
1.05196
1.12125
1.29597
1.80307
3.26264
2.17287
2.13136
2.14482
2.30057
2.3194
2.38212
2.38941
0.999907
0.999865
1.00001
1.00056
1.00181
1.00449
1.01024
1.02297
1.05226
1.12212
1.29715
1.82355
3.24789
2.25445
2.16416
2.18884
2.30653
2.30223
2.36657
2.37208
0.999907
0.999861
1
1.00055
1.0018
1.00448
1.01022
1.02299
1.05244
1.12288
1.29899
1.84032
3.24869
2.36095
2.20734
2.22558
2.31177
2.28612
2.3539
2.35255
0.999906
0.999855
0.999996
1.00053
1.00177
1.00445
1.01016
1.02293
1.05251
1.12345
1.30086
1.85532
3.25413
2.4945
2.25044
2.25114
2.31193
2.2675
2.33801
2.32788
0.999905
0.99985
0.999987
1.00051
1.00175
1.00439
1.01006
1.02278
1.05242
1.12366
1.30199
1.86764
3.25869
2.64194
2.31684
2.27598
2.30974
2.24955
2.32148
2.29868
0.999905
0.999845
0.999979
1.00049
1.00172
1.00432
1.00989
1.02252
1.05206
1.12329
1.30184
1.87516
3.25975
2.80228
2.39893
2.31071
2.30891
2.22538
2.30271
2.26927
0.999904
0.99984
0.999971
1.00048
1.00169
1.00423
1.00968
1.02211
1.05132
1.12202
1.30009
1.8751
3.26611
2.91517
2.49302
2.37261
2.29756
2.1976
2.28145
2.24355
0.999903
0.999836
0.999965
1.00046
1.00166
1.00414
1.00945
1.02157
1.05017
1.11967
1.29594
1.867
3.26592
3.04654
2.62195
2.38132
2.29786
2.16901
2.25873
2.21784
0.999903
0.999832
0.999958
1.00045
1.00163
1.00404
1.0092
1.02097
1.04875
1.11635
1.28914
1.84472
3.26994
3.13626
2.68608
2.37399
2.3089
2.14542
2.22468
2.19046
0.999903
0.999828
0.999953
1.00044
1.0016
1.00394
1.00892
1.02031
1.04715
1.11246
1.27999
1.80851
3.25458
3.23628
2.72629
2.39486
2.32632
2.13643
2.2024
2.16506
0.999902
0.999824
0.999947
1.00042
1.00158
1.00382
1.00861
1.01956
1.04535
1.10803
1.26888
1.76449
3.21007
3.32924
2.72181
2.45905
2.35602
2.13893
2.15696
2.10796
0.999902
0.999821
0.999942
1.00041
1.00155
1.00367
1.00825
1.01867
1.04314
1.10247
1.25454
1.71002
3.13963
3.34476
2.59934
2.54591
2.41425
2.14313
2.13156
2.07088
0.999889
0.999696
0.999637
0.99975
1.00027
1.00182
1.00578
1.01541
1.03867
1.09591
1.24501
1.66385
3.21478
3.57234
1.59443
2.37922
2.47275
2.5291
2.48894
2.4371
0.999889
0.999694
0.999644
0.999762
1.0003
1.00192
1.00605
1.01607
1.04006
1.09826
1.24822
1.64543
3.35065
2.72568
1.53887
2.39867
2.46041
2.52311
2.4775
2.43119
0.99989
0.999691
0.999657
0.999784
1.00036
1.00207
1.00642
1.01689
1.04175
1.10149
1.25567
1.64299
3.44446