/*--------------------------------*- C++ -*----------------------------------*\
  =========                 |
  \\      /  F ield         | OpenFOAM: The Open Source CFD Toolbox
   \\    /   O peration     | Website:  https://openfoam.org
    \\  /    A nd           | Version:  6.0
     \\/     M anipulation  |
\*---------------------------------------------------------------------------*/
FoamFile
{
    version     2.0;
    format      ascii;
    class       volVectorField;
    location    "1.5";
    object      U;
}
// * * * * * * * * * * * * * * * * * * * * * * * * * * * * * * * * * * * * * //

dimensions      [0 1 -1 0 0 0 0];

internalField   nonuniform List<vector> 
24000
(
(3.08438 3.28782e-08 -0.139664)
(3.11002 1.47586e-07 -0.14975)
(3.12411 5.50479e-07 -0.152844)
(3.13423 5.69188e-07 -0.152678)
(3.1416 1.81003e-06 -0.152285)
(3.14553 1.89948e-06 -0.152596)
(3.14587 5.60985e-06 -0.152878)
(3.14473 1.29936e-05 -0.153457)
(3.14034 3.21198e-05 -0.155182)
(3.1272 8.11129e-05 -0.15969)
(3.09086 0.000217713 -0.17088)
(2.98813 0.000649278 -0.199178)
(2.66259 0.00203655 -0.279182)
(1.54879 0.00779549 -0.50311)
(0.489764 -0.0115296 -0.602738)
(0.508903 -0.0133686 -0.598935)
(0.637638 -0.00673969 -0.611143)
(0.716819 -0.00337519 -0.659629)
(0.611916 -0.00583995 -0.672204)
(0.549056 -0.00710963 -0.632879)
(3.08438 2.28633e-07 -0.139663)
(3.11002 5.00071e-07 -0.14975)
(3.12411 1.5501e-06 -0.152846)
(3.13423 2.06909e-06 -0.152674)
(3.1416 5.15726e-06 -0.152287)
(3.14553 7.04146e-06 -0.152597)
(3.14588 1.76843e-05 -0.152876)
(3.14474 3.98259e-05 -0.153453)
(3.14036 9.58061e-05 -0.155172)
(3.12726 0.000232284 -0.159667)
(3.09106 0.000595786 -0.17083)
(2.98882 0.00169378 -0.199039)
(2.66566 0.00508099 -0.279386)
(1.55497 0.0166358 -0.497492)
(0.442607 -0.0285012 -0.60529)
(0.474946 -0.0300702 -0.610313)
(0.62659 -0.00694631 -0.627036)
(0.716918 0.00631364 -0.662357)
(0.614125 0.000101579 -0.673634)
(0.545803 -0.0105002 -0.636534)
(3.08438 7.66601e-07 -0.139663)
(3.11002 9.69029e-07 -0.149748)
(3.12411 2.20119e-06 -0.152851)
(3.13424 4.39636e-06 -0.152666)
(3.1416 7.45704e-06 -0.152291)
(3.14554 1.55839e-05 -0.152598)
(3.14588 3.20927e-05 -0.152873)
(3.14476 6.92281e-05 -0.153445)
(3.1404 0.000158617 -0.155158)
(3.12736 0.000357499 -0.159643)
(3.09137 0.000844096 -0.170801)
(2.98983 0.00221512 -0.199005)
(2.66898 0.00630027 -0.28015)
(1.54957 0.015811 -0.493585)
(0.389137 -0.0367863 -0.608708)
(0.454708 -0.0302271 -0.621294)
(0.632136 0.0104829 -0.635451)
(0.729443 0.0259732 -0.658421)
(0.624308 0.0126231 -0.668794)
(0.544872 -0.00789464 -0.637549)
(3.08438 1.28825e-06 -0.139664)
(3.11002 1.58541e-06 -0.149746)
(3.12411 2.55589e-06 -0.152857)
(3.13424 7.94803e-06 -0.152655)
(3.1416 8.2369e-06 -0.152298)
(3.14554 2.89289e-05 -0.152598)
(3.14589 5.36667e-05 -0.152868)
(3.14478 0.000109364 -0.153437)
(3.14045 0.000229963 -0.155151)
(3.12748 0.000462968 -0.159654)
(3.0917 0.000959 -0.17088)
(2.99085 0.00222949 -0.199271)
(2.67143 0.00591619 -0.28173)
(1.52928 0.0110922 -0.49287)
(0.321601 -0.0372622 -0.612936)
(0.435861 -0.0188414 -0.630317)
(0.643543 0.0376949 -0.638566)
(0.744534 0.0518706 -0.652266)
(0.633504 0.031173 -0.661318)
(0.539579 0.000496101 -0.636569)
(3.08438 5.36827e-07 -0.139666)
(3.11002 2.54507e-06 -0.149744)
(3.12411 3.05453e-06 -0.152864)
(3.13424 1.32856e-05 -0.15264)
(3.14161 7.66862e-06 -0.152305)
(3.14555 4.79843e-05 -0.152597)
(3.14591 8.80096e-05 -0.152862)
(3.14481 0.000170046 -0.153432)
(3.14051 0.00032277 -0.155162)
(3.12759 0.000568978 -0.159719)
(3.09196 0.000994219 -0.17111)
(2.99159 0.00194197 -0.199975)
(2.67262 0.00458218 -0.284563)
(1.49919 0.00722166 -0.496375)
(0.250645 -0.0257222 -0.616317)
(0.417004 0.00547855 -0.637031)
(0.657321 0.0712232 -0.638342)
(0.759215 0.0802501 -0.644551)
(0.638974 0.050759 -0.652688)
(0.528788 0.0105012 -0.633879)
(3.08438 -1.79704e-06 -0.139666)
(3.11002 3.89163e-06 -0.149744)
(3.12411 3.6839e-06 -0.152874)
(3.13424 2.02397e-05 -0.152621)
(3.14161 5.44675e-06 -0.152313)
(3.14557 7.25665e-05 -0.152593)
(3.14593 0.000135027 -0.152857)
(3.14485 0.000251546 -0.153433)
(3.14057 0.000439424 -0.155191)
(3.12768 0.000689019 -0.159831)
(3.09212 0.0010089 -0.171459)
(2.99199 0.00156844 -0.201012)
(2.67307 0.00307617 -0.288459)
(1.46958 0.00547019 -0.502034)
(0.188404 -0.00115181 -0.617919)
(0.406123 0.0414688 -0.640159)
(0.673974 0.109582 -0.637607)
(0.772442 0.110909 -0.637899)
(0.639381 0.0714162 -0.644915)
(0.512779 0.0214042 -0.630433)
(3.08438 -4.64321e-06 -0.139664)
(3.11002 5.38429e-06 -0.149747)
(3.12412 4.08761e-06 -0.152887)
(3.13424 2.76651e-05 -0.152599)
(3.14162 9.40871e-07 -0.152322)
(3.14559 0.000101555 -0.152587)
(3.14597 0.000191019 -0.152853)
(3.14491 0.000348767 -0.15344)
(3.14064 0.000578516 -0.155235)
(3.12775 0.000836291 -0.15998)
(3.09217 0.00105447 -0.171894)
(2.99204 0.00123306 -0.202286)
(2.67293 0.00163839 -0.292922)
(1.44496 0.00455076 -0.508541)
(0.139084 0.0338092 -0.617764)
(0.40316 0.0858124 -0.641413)
(0.693731 0.151606 -0.636795)
(0.785327 0.143277 -0.630883)
(0.636306 0.092657 -0.637927)
(0.493393 0.0329326 -0.627465)
(3.08438 -7.23358e-06 -0.13966)
(3.11002 6.92601e-06 -0.149753)
(3.12412 4.22954e-06 -0.152901)
(3.13423 3.42075e-05 -0.152574)
(3.14164 -5.68777e-06 -0.152333)
(3.14563 0.000132708 -0.152576)
(3.14601 0.000251155 -0.152849)
(3.14498 0.000456389 -0.153449)
(3.14072 0.000739123 -0.155288)
(3.12779 0.00102475 -0.160149)
(3.09211 0.00118497 -0.172373)
(2.99174 0.00108143 -0.20365)
(2.67215 0.000567874 -0.297552)
(1.4279 0.0042608 -0.516249)
(0.10653 0.0752233 -0.616337)
(0.407471 0.135582 -0.641423)
(0.715874 0.195979 -0.6353)
(0.798467 0.175663 -0.622993)
(0.631112 0.11414 -0.631204)
(0.472467 0.0457954 -0.624696)
(3.08438 -9.16782e-06 -0.139654)
(3.11002 8.45982e-06 -0.149762)
(3.12413 4.33307e-06 -0.152916)
(3.13423 3.84772e-05 -0.152545)
(3.14165 -1.33429e-05 -0.152345)
(3.14567 0.000163362 -0.152559)
(3.14607 0.000311786 -0.152844)
(3.14506 0.0005723 -0.153459)
(3.14081 0.000922214 -0.155343)
(3.12783 0.00126207 -0.160321)
(3.09197 0.00143018 -0.172848)
(2.99116 0.00122325 -0.204984)
(2.67068 0.000224351 -0.302192)
(1.41834 0.00509353 -0.525511)
(0.0903995 0.120363 -0.615024)
(0.418579 0.188445 -0.640083)
(0.73974 0.241078 -0.633521)
(0.812099 0.206679 -0.613462)
(0.624914 0.135005 -0.624335)
(0.451412 0.0602718 -0.621595)
(3.08438 -1.01737e-05 -0.139648)
(3.11003 9.74797e-06 -0.149775)
(3.12413 4.70212e-06 -0.15293)
(3.13423 3.88551e-05 -0.152513)
(3.14167 -1.98219e-05 -0.15236)
(3.14573 0.000189919 -0.152534)
(3.14614 0.000371257 -0.152838)
(3.14517 0.00069947 -0.153466)
(3.14092 0.00113673 -0.155394)
(3.12788 0.00156784 -0.160478)
(3.09182 0.00183375 -0.173277)
(2.99044 0.00176755 -0.206205)
(2.66862 0.0009083 -0.306618)
(1.41565 0.00780363 -0.534907)
(0.0896979 0.167837 -0.614563)
(0.436259 0.242753 -0.637866)
(0.764755 0.285363 -0.630605)
(0.826449 0.235385 -0.602738)
(0.618955 0.154549 -0.617054)
(0.431131 0.0770786 -0.618127)
(3.08438 -1.01663e-05 -0.13964)
(3.11003 1.04763e-05 -0.149791)
(3.12414 5.62522e-06 -0.15294)
(3.13422 3.36688e-05 -0.152481)
(3.1417 -2.15552e-05 -0.152379)
(3.1458 0.000206154 -0.1525)
(3.14623 0.000428206 -0.152828)
(3.1453 0.000842436 -0.153468)
(3.14107 0.00139332 -0.155432)
(3.12797 0.00196808 -0.160596)
(3.09171 0.00246296 -0.173607)
(2.98971 0.00288111 -0.207246)
(2.66619 0.00309812 -0.310833)
(1.41886 0.0141867 -0.543231)
(0.103041 0.216671 -0.615291)
(0.459952 0.297128 -0.635185)
(0.790288 0.327417 -0.626092)
(0.841251 0.261368 -0.591478)
(0.614046 0.173443 -0.609524)
(0.412579 0.0977442 -0.613838)
(3.08438 -9.12258e-06 -0.139633)
(3.11003 1.03857e-05 -0.149809)
(3.12414 7.10657e-06 -0.152944)
(3.13422 2.17435e-05 -0.152449)
(3.14173 -1.51373e-05 -0.1524)
(3.14588 0.000203332 -0.152455)
(3.14635 0.000482791 -0.152817)
(3.14547 0.00100504 -0.153463)
(3.14126 0.00169364 -0.155452)
(3.12814 0.00246509 -0.160658)
(3.09175 0.00333681 -0.173778)
(2.98927 0.00464517 -0.207904)
(2.66421 0.00720002 -0.314103)
(1.42709 0.0260807 -0.549481)
(0.127293 0.265937 -0.617413)
(0.488248 0.350237 -0.632519)
(0.81551 0.366255 -0.619917)
(0.855799 0.284427 -0.579515)
(0.610415 0.192652 -0.601526)
(0.396412 0.123852 -0.608522)
(3.08438 -7.10674e-06 -0.139627)
(3.11004 9.41775e-06 -0.149829)
(3.12414 8.78158e-06 -0.152942)
(3.13421 3.33419e-06 -0.152421)
(3.14176 1.17186e-06 -0.152425)
(3.14596 0.000173036 -0.1524)
(3.14649 0.000539793 -0.152804)
(3.14569 0.00119107 -0.153451)
(3.14151 0.00203194 -0.155449)
(3.12841 0.00303642 -0.160657)
(3.09202 0.00439136 -0.173769)
(2.98942 0.00688504 -0.208029)
(2.66377 0.0127927 -0.315567)
(1.43996 0.0426032 -0.552151)
(0.158698 0.315441 -0.620818)
(0.519799 0.401433 -0.629991)
(0.839535 0.401984 -0.611871)
(0.869339 0.305278 -0.567488)
(0.608271 0.214267 -0.593645)
(0.383256 0.158522 -0.602762)
(3.08438 -4.66702e-06 -0.139622)
(3.11004 7.86363e-06 -0.149847)
(3.12414 1.0263e-05 -0.152933)
(3.13421 -1.96114e-05 -0.152396)
(3.14178 2.57669e-05 -0.152452)
(3.14606 0.000112484 -0.152331)
(3.14668 0.00060655 -0.152792)
(3.14595 0.00140002 -0.153431)
(3.14183 0.00239354 -0.155431)
(3.1288 0.00364286 -0.160615)
(3.09258 0.00553662 -0.173611)
(2.99034 0.00938589 -0.20763)
(2.66576 0.0191596 -0.315155)
(1.45787 0.0610752 -0.550561)
(0.195665 0.364316 -0.624896)
(0.553562 0.449901 -0.627556)
(0.861487 0.434676 -0.601688)
(0.88125 0.324826 -0.555161)
(0.608544 0.240292 -0.584649)
(0.374309 0.204416 -0.595432)
(3.08438 -1.96301e-06 -0.139619)
(3.11005 5.03764e-06 -0.149861)
(3.12413 1.10469e-05 -0.152918)
(3.13422 -4.32527e-05 -0.152377)
(3.1418 5.43525e-05 -0.152481)
(3.14615 2.87319e-05 -0.152246)
(3.14691 0.000687276 -0.152784)
(3.14627 0.00161903 -0.153414)
(3.14222 0.00274118 -0.15541)
(3.12933 0.00421622 -0.160533)
(3.09346 0.00668778 -0.173293)
(2.99214 0.0120707 -0.206769)
(2.67017 0.0260727 -0.313118)
(1.47986 0.0805503 -0.545227)
(0.237152 0.413826 -0.629476)
(0.588583 0.496117 -0.625326)
(0.880521 0.465373 -0.589291)
(0.891471 0.345331 -0.543542)
(0.612217 0.273017 -0.575473)
(0.370492 0.263767 -0.587431)
(3.08438 5.70302e-07 -0.139618)
(3.11005 3.23011e-07 -0.14987)
(3.12412 1.11674e-05 -0.152902)
(3.13423 -6.3352e-05 -0.152366)
(3.14181 8.18883e-05 -0.152511)
(3.14626 -6.13586e-05 -0.152141)
(3.1472 0.000774877 -0.15279)
(3.14662 0.00181453 -0.153416)
(3.14265 0.00301587 -0.155385)
(3.13 0.00468314 -0.160382)
(3.09472 0.0077708 -0.172802)
(2.99492 0.0148488 -0.205424)
(2.67725 0.0333561 -0.30913)
(1.50787 0.100309 -0.535886)
(0.284349 0.465635 -0.634401)
(0.624369 0.542343 -0.623344)
(0.895444 0.495076 -0.575451)
(0.899733 0.369251 -0.533041)
(0.620407 0.315319 -0.566763)
(0.373058 0.339345 -0.578075)
(3.08438 1.79511e-06 -0.139619)
(3.11005 -5.52368e-06 -0.14987)
(3.12411 1.02297e-05 -0.152886)
(3.13424 -7.70119e-05 -0.152362)
(3.1418 0.00010424 -0.152537)
(3.14638 -0.000138338 -0.152031)
(3.14753 0.000848024 -0.152822)
(3.14699 0.00194402 -0.153418)
(3.14313 0.00318054 -0.155314)
(3.1308 0.0050338 -0.160164)
(3.09639 0.00878483 -0.172228)
(2.99877 0.0176882 -0.203757)
(2.68706 0.0410653 -0.303045)
(1.54226 0.120812 -0.519157)
(0.3375 0.519471 -0.638858)
(0.659206 0.588381 -0.62169)
(0.905861 0.523047 -0.561829)
(0.906515 0.397359 -0.522522)
(0.635037 0.367719 -0.555849)
(0.383155 0.431307 -0.56622)
(3.08438 2.3557e-06 -0.139619)
(3.11005 -1.20959e-05 -0.149865)
(3.1241 7.55567e-06 -0.152874)
(3.13426 -8.2177e-05 -0.152364)
(3.14179 0.000119409 -0.152556)
(3.14651 -0.000192582 -0.151944)
(3.14789 0.000889071 -0.152834)
(3.14738 0.00198826 -0.153384)
(3.14364 0.00324906 -0.155216)
(3.13175 0.00534178 -0.159913)
(3.09851 0.00988724 -0.17158)
(3.00382 0.0208977 -0.201864)
(2.70017 0.04986 -0.295819)
(1.58449 0.144088 -0.497318)
(0.395112 0.577331 -0.642303)
(0.690854 0.634515 -0.618927)
(0.911099 0.549172 -0.548495)
(0.913139 0.429282 -0.514061)
(0.657673 0.432007 -0.544988)
(0.401722 0.543845 -0.5504)
(3.08438 4.24123e-07 -0.139623)
(3.11005 -1.76808e-05 -0.14985)
(3.12409 4.21099e-06 -0.152869)
(3.13428 -7.64685e-05 -0.152369)
(3.14178 0.000125606 -0.152572)
(3.14664 -0.000223036 -0.151876)
(3.14825 0.000903911 -0.152804)
(3.14776 0.00196222 -0.15334)
(3.14421 0.00326556 -0.15509)
(3.13291 0.00569905 -0.159593)
(3.10119 0.0112423 -0.170831)
(3.01035 0.0247626 -0.19981)
(2.71725 0.0604811 -0.28806)
(1.63456 0.173688 -0.475979)
(0.457847 0.644848 -0.644194)
(0.716376 0.687464 -0.614375)
(0.910073 0.575098 -0.536357)
(0.921218 0.465146 -0.506461)
(0.692588 0.512772 -0.532046)
(0.430873 0.69518 -0.529374)
(3.08438 -8.01412e-06 -0.139624)
(3.11005 -2.03166e-05 -0.149831)
(3.12408 1.48636e-06 -0.152873)
(3.1343 -6.01199e-05 -0.152374)
(3.14175 0.000128464 -0.15259)
(3.14677 -0.000232662 -0.151814)
(3.14861 0.000909493 -0.152757)
(3.14815 0.00190295 -0.153267)
(3.14485 0.00328243 -0.154907)
(3.13433 0.0061201 -0.159193)
(3.10455 0.0127235 -0.169981)
(3.01874 0.0289008 -0.197653)
(2.74046 0.0723494 -0.28023)
(1.70012 0.210838 -0.455456)
(0.516791 0.743222 -0.647)
(0.730093 0.762853 -0.608038)
(0.899558 0.610063 -0.526977)
(0.933846 0.516309 -0.501413)
(0.748218 0.611496 -0.519482)
(0.474081 0.906886 -0.499765)
(3.00703 2.43788e-07 -0.0225802)
(3.0173 3.11266e-07 -0.0336157)
(3.02725 4.67615e-07 -0.0379949)
(3.03689 7.17944e-07 -0.0412978)
(3.04408 3.07105e-06 -0.0430075)
(3.04786 2.40448e-06 -0.0444206)
(3.04828 6.73541e-06 -0.0447902)
(3.04699 1.75766e-05 -0.0453123)
(3.04069 4.00074e-05 -0.0464278)
(3.02173 9.08629e-05 -0.0487531)
(2.97097 0.000220628 -0.0537669)
(2.83353 0.000583179 -0.0651947)
(2.41568 0.00150767 -0.0959119)
(0.994888 0.00245162 -0.172454)
(-0.24402 -0.00574121 -0.194973)
(-0.00843788 2.37497e-06 -0.1986)
(0.390055 0.0129653 -0.199464)
(0.547 0.012446 -0.201269)
(0.477839 0.0106418 -0.195013)
(0.449415 0.00344779 -0.169403)
(3.00703 7.47513e-07 -0.0225802)
(3.0173 9.24006e-07 -0.0336156)
(3.02725 1.31236e-06 -0.0379954)
(3.0369 2.35235e-06 -0.0412972)
(3.04408 8.8483e-06 -0.0430075)
(3.04786 7.81261e-06 -0.0444207)
(3.04829 2.16076e-05 -0.0447913)
(3.047 5.38139e-05 -0.0453146)
(3.04071 0.000116905 -0.0464364)
(3.02179 0.000250434 -0.0487865)
(2.97114 0.000568115 -0.0538898)
(2.83406 0.0013995 -0.0656077)
(2.41687 0.0033919 -0.0975083)
(0.992339 0.00517228 -0.176497)
(-0.275332 -0.0187887 -0.192909)
(-0.0231734 0.00266345 -0.199915)
(0.391383 0.0424579 -0.197975)
(0.539085 0.0409424 -0.197189)
(0.467089 0.035175 -0.191158)
(0.437778 0.0123845 -0.16937)
(3.00703 1.34198e-06 -0.0225801)
(3.0173 1.58348e-06 -0.0336154)
(3.02725 1.90964e-06 -0.0379962)
(3.0369 4.48101e-06 -0.0412961)
(3.04408 1.36244e-05 -0.0430075)
(3.04786 1.4963e-05 -0.044421)
(3.0483 4.07919e-05 -0.0447933)
(3.04702 9.33685e-05 -0.0453204)
(3.04075 0.000183801 -0.0464584)
(3.02188 0.000343261 -0.0488663)
(2.97139 0.000654542 -0.0541622)
(2.83475 0.00130733 -0.0664536)
(2.41853 0.00224836 -0.100462)
(0.988049 0.00209465 -0.182246)
(-0.319854 -0.0218517 -0.189234)
(-0.0319933 0.0188287 -0.199307)
(0.402885 0.0731186 -0.1944)
(0.538795 0.0628113 -0.192404)
(0.462972 0.0550543 -0.186659)
(0.427819 0.0225152 -0.168609)
(3.00703 1.77212e-06 -0.0225799)
(3.0173 2.00076e-06 -0.0336152)
(3.02725 2.20394e-06 -0.0379975)
(3.0369 7.35777e-06 -0.0412945)
(3.04408 1.70959e-05 -0.0430073)
(3.04786 2.55352e-05 -0.0444217)
(3.04831 6.80689e-05 -0.0447966)
(3.04705 0.000140262 -0.0453318)
(3.04079 0.000239949 -0.0465001)
(3.02194 0.000354069 -0.0490052)
(2.9715 0.000432727 -0.0545978)
(2.83485 0.000216981 -0.0676625)
(2.41881 -0.00219305 -0.10522)
(0.979437 -0.0062269 -0.189311)
(-0.371174 -0.0126796 -0.184193)
(-0.0347668 0.0484973 -0.196101)
(0.420855 0.106847 -0.190315)
(0.542641 0.087586 -0.187185)
(0.460374 0.0771171 -0.182486)
(0.415244 0.0366494 -0.167553)
(3.00703 1.24593e-06 -0.0225797)
(3.0173 1.40892e-06 -0.0336151)
(3.02725 2.28418e-06 -0.0379995)
(3.0369 1.12574e-05 -0.0412926)
(3.04409 1.93299e-05 -0.0430069)
(3.04787 4.14105e-05 -0.0444237)
(3.04834 0.000106687 -0.0448016)
(3.04708 0.000199794 -0.0453488)
(3.04081 0.000298399 -0.0465581)
(3.02192 0.000328739 -0.0491848)
(2.97132 6.5168e-05 -0.055124)
(2.83382 -0.00128143 -0.0690421)
(2.41621 -0.00778526 -0.111163)
(0.971998 -0.0164101 -0.199298)
(-0.417086 0.0095796 -0.177495)
(-0.031977 0.0877361 -0.191324)
(0.441733 0.141679 -0.186423)
(0.548048 0.111781 -0.182122)
(0.456928 0.0990267 -0.178574)
(0.399999 0.0541366 -0.166127)
(3.00703 -3.81969e-07 -0.0225792)
(3.0173 -2.39007e-07 -0.0336155)
(3.02726 2.28637e-06 -0.038002)
(3.03691 1.61765e-05 -0.0412901)
(3.04409 2.01793e-05 -0.0430061)
(3.04789 6.38822e-05 -0.0444273)
(3.04837 0.00015804 -0.0448078)
(3.04711 0.000277128 -0.0453687)
(3.0408 0.000381049 -0.0466222)
(3.02181 0.000339764 -0.0493743)
(2.97083 -0.000235059 -0.0556643)
(2.83176 -0.00259339 -0.0704674)
(2.4094 -0.0127555 -0.117317)
(0.968896 -0.0254744 -0.210096)
(-0.446 0.0428484 -0.170808)
(-0.0226753 0.132754 -0.186192)
(0.461325 0.176999 -0.183028)
(0.551721 0.136673 -0.177358)
(0.450166 0.122109 -0.175059)
(0.382128 0.0740925 -0.164389)
(3.00703 -2.45553e-06 -0.0225783)
(3.0173 -2.24255e-06 -0.0336166)
(3.02726 2.39253e-06 -0.038005)
(3.03691 2.15781e-05 -0.0412874)
(3.0441 1.92658e-05 -0.0430045)
(3.04792 9.34862e-05 -0.0444331)
(3.04841 0.000221884 -0.0448146)
(3.04714 0.000375624 -0.0453891)
(3.04079 0.000506507 -0.0466851)
(3.02162 0.000444231 -0.049557)
(2.97006 -0.000322458 -0.0561784)
(2.82875 -0.00338878 -0.0718063)
(2.39826 -0.016285 -0.123038)
(0.969021 -0.031524 -0.219589)
(-0.453999 0.0826824 -0.165342)
(-0.00805542 0.181058 -0.181453)
(0.479883 0.212395 -0.179899)
(0.554315 0.161556 -0.173039)
(0.440466 0.146132 -0.172046)
(0.362134 0.0953266 -0.162694)
(3.00703 -4.48822e-06 -0.0225771)
(3.0173 -4.03461e-06 -0.0336185)
(3.02727 2.8717e-06 -0.038008)
(3.03691 2.65162e-05 -0.0412844)
(3.04412 1.67188e-05 -0.043002)
(3.04796 0.000129641 -0.0444417)
(3.04846 0.000295994 -0.0448221)
(3.04718 0.000494468 -0.0454083)
(3.04077 0.000681544 -0.0467423)
(3.02139 0.000671043 -0.0497216)
(2.9691 -0.000102277 -0.0566349)
(2.82508 -0.00337701 -0.0729479)
(2.38347 -0.0175025 -0.128155)
(0.965946 -0.0350011 -0.229843)
(-0.443082 0.125486 -0.160047)
(0.0113932 0.230954 -0.177059)
(0.498117 0.247369 -0.176863)
(0.557191 0.185636 -0.16907)
(0.429285 0.17063 -0.169338)
(0.341068 0.11768 -0.16109)
(3.00703 -6.16193e-06 -0.0225755)
(3.0173 -5.21178e-06 -0.0336214)
(3.02727 3.95659e-06 -0.0380108)
(3.03692 2.99347e-05 -0.0412813)
(3.04414 1.35842e-05 -0.0429986)
(3.04802 0.000170629 -0.0444516)
(3.04853 0.000376594 -0.0448288)
(3.04723 0.000630917 -0.0454246)
(3.04076 0.000907589 -0.0467911)
(3.02117 0.00103336 -0.049862)
(2.9681 0.000472525 -0.0570146)
(2.8211 -0.00242529 -0.0738927)
(2.36598 -0.0160411 -0.132709)
(0.953894 -0.0349278 -0.238895)
(-0.418148 0.169836 -0.155676)
(0.0350709 0.281538 -0.172974)
(0.516709 0.281619 -0.173998)
(0.561078 0.20911 -0.165411)
(0.417666 0.195384 -0.166985)
(0.319986 0.141301 -0.15954)
(3.00703 -7.23653e-06 -0.0225737)
(3.0173 -5.52197e-06 -0.0336252)
(3.02728 5.74039e-06 -0.0380129)
(3.03692 3.08444e-05 -0.0412783)
(3.04417 1.16008e-05 -0.0429946)
(3.04809 0.000213058 -0.044462)
(3.04861 0.000458577 -0.0448336)
(3.04731 0.000782776 -0.0454355)
(3.0408 0.0011887 -0.0468267)
(3.02102 0.00154788 -0.0499717)
(2.96722 0.00144949 -0.057323)
(2.81733 -0.000406204 -0.0747281)
(2.34717 -0.0115085 -0.136516)
(0.930045 -0.0273186 -0.246059)
(-0.383675 0.214949 -0.152546)
(0.0622411 0.331923 -0.169162)
(0.53609 0.314605 -0.171183)
(0.565941 0.232274 -0.161943)
(0.406246 0.220649 -0.164954)
(0.299523 0.166868 -0.157995)
(3.00703 -7.59423e-06 -0.0225719)
(3.0173 -4.92955e-06 -0.0336299)
(3.02728 8.13085e-06 -0.0380139)
(3.03692 2.85747e-05 -0.0412755)
(3.0442 1.24052e-05 -0.0429905)
(3.04818 0.000251584 -0.0444722)
(3.04871 0.000535785 -0.0448356)
(3.04742 0.000946394 -0.0454388)
(3.04091 0.00152095 -0.0468429)
(3.02101 0.00220655 -0.0500369)
(2.96665 0.00282856 -0.0575448)
(2.81432 0.00277705 -0.0754648)
(2.32948 -0.00308445 -0.139538)
(0.896874 -0.00605764 -0.252198)
(-0.344917 0.260725 -0.150216)
(0.0917648 0.381136 -0.165631)
(0.555938 0.345505 -0.168411)
(0.571539 0.254947 -0.158402)
(0.395457 0.24686 -0.16304)
(0.280098 0.195949 -0.15634)
(3.00703 -7.22347e-06 -0.0225701)
(3.0173 -3.61974e-06 -0.0336351)
(3.02729 1.08009e-05 -0.0380136)
(3.03692 2.30096e-05 -0.0412728)
(3.04424 1.67472e-05 -0.0429869)
(3.04829 0.000280358 -0.044481)
(3.04882 0.000603129 -0.0448347)
(3.04757 0.00111686 -0.0454343)
(3.0411 0.00188733 -0.0468381)
(3.02119 0.00295831 -0.0500455)
(2.96659 0.00448691 -0.0576343)
(2.81283 0.0068699 -0.0759788)
(2.31728 0.00899592 -0.141562)
(0.869637 0.0299211 -0.256996)
(-0.307639 0.30768 -0.14859)
(0.122341 0.428709 -0.162552)
(0.575519 0.373657 -0.165376)
(0.577847 0.277043 -0.15472)
(0.386051 0.274699 -0.161185)
(0.262365 0.230656 -0.154383)
(3.00703 -6.08293e-06 -0.0225687)
(3.0173 -1.74542e-06 -0.0336404)
(3.02729 1.32268e-05 -0.038012)
(3.03693 1.39654e-05 -0.0412702)
(3.04428 2.45503e-05 -0.0429848)
(3.04841 0.000294685 -0.0444866)
(3.04897 0.000659199 -0.044831)
(3.04778 0.00129142 -0.0454242)
(3.04138 0.00227131 -0.0468172)
(3.0216 0.00375078 -0.0500024)
(2.96715 0.00624923 -0.0575817)
(2.81335 0.0112649 -0.0761823)
(2.31377 0.0223587 -0.142365)
(0.861641 0.0719674 -0.260004)
(-0.274933 0.356714 -0.148034)
(0.152824 0.474883 -0.160186)
(0.593971 0.399351 -0.161862)
(0.584546 0.299259 -0.151012)
(0.378773 0.305424 -0.159211)
(0.246995 0.273364 -0.152178)
(3.00703 -4.01133e-06 -0.0225677)
(3.0173 1.47616e-06 -0.0336452)
(3.0273 1.51443e-05 -0.0380093)
(3.03693 6.95017e-07 -0.041267)
(3.04432 3.56085e-05 -0.0429855)
(3.04854 0.000289198 -0.0444861)
(3.04913 0.000704249 -0.0448263)
(3.04803 0.00146875 -0.0454125)
(3.04177 0.00266263 -0.0467863)
(3.02224 0.00455117 -0.0499206)
(2.96831 0.00799904 -0.0574159)
(2.81581 0.0155481 -0.0760877)
(2.31875 0.0350854 -0.141953)
(0.872556 0.112059 -0.261786)
(-0.246635 0.407999 -0.148644)
(0.182744 0.519645 -0.158509)
(0.610384 0.423345 -0.15757)
(0.591539 0.323098 -0.147333)
(0.374975 0.340611 -0.156961)
(0.235183 0.326239 -0.149531)
(3.00703 -1.8435e-07 -0.0225664)
(3.0173 4.42361e-06 -0.0336496)
(3.0273 1.49066e-05 -0.0380062)
(3.03694 -1.58173e-05 -0.0412628)
(3.04436 5.15517e-05 -0.0429899)
(3.04868 0.000255682 -0.0444773)
(3.04933 0.000743453 -0.044825)
(3.04834 0.0016544 -0.0454039)
(3.04227 0.00304351 -0.0467509)
(3.02311 0.00527844 -0.0498076)
(2.97006 0.00956429 -0.0571444)
(2.82003 0.0194993 -0.075698)
(2.3312 0.0469772 -0.140445)
(0.899093 0.149082 -0.261837)
(-0.219943 0.462922 -0.150204)
(0.212624 0.56307 -0.157683)
(0.623769 0.447252 -0.15227)
(0.598355 0.350578 -0.143674)
(0.375519 0.382379 -0.154339)
(0.227702 0.391452 -0.146581)
(3.00703 2.52864e-06 -0.0225652)
(3.01731 4.65533e-06 -0.0336536)
(3.02729 1.34177e-05 -0.0380025)
(3.03695 -3.15559e-05 -0.0412572)
(3.0444 7.22131e-05 -0.0429976)
(3.04881 0.00018665 -0.0444581)
(3.04957 0.000796163 -0.0448316)
(3.04871 0.00185062 -0.0454058)
(3.04284 0.00335986 -0.0467238)
(3.02415 0.00581716 -0.0496769)
(2.97234 0.0107864 -0.0567518)
(2.82601 0.0228447 -0.0748954)
(2.35105 0.0575221 -0.137748)
(0.943437 0.182274 -0.261163)
(-0.189948 0.522393 -0.153052)
(0.24361 0.605992 -0.157701)
(0.634049 0.471036 -0.146391)
(0.605437 0.382701 -0.140255)
(0.381754 0.432333 -0.151463)
(0.225799 0.469609 -0.142986)
(3.00703 2.29224e-06 -0.022565)
(3.01731 2.86018e-06 -0.0336561)
(3.02728 1.19094e-05 -0.0379983)
(3.03697 -4.29119e-05 -0.0412501)
(3.04442 9.02978e-05 -0.0430083)
(3.04896 9.59078e-05 -0.0444254)
(3.04986 0.000878152 -0.0448526)
(3.04912 0.00200895 -0.0454277)
(3.04345 0.00354571 -0.0467083)
(3.02533 0.00618284 -0.0495292)
(2.97505 0.011814 -0.0562501)
(2.83337 0.0257914 -0.0735918)
(2.3767 0.0663715 -0.133303)
(1.00104 0.208849 -0.257145)
(-0.153639 0.584597 -0.157856)
(0.274402 0.647005 -0.158494)
(0.639524 0.492427 -0.140417)
(0.61348 0.418342 -0.136896)
(0.395381 0.490859 -0.148187)
(0.229407 0.563716 -0.138513)
(3.00703 1.49872e-06 -0.0225654)
(3.01732 3.33528e-07 -0.0336568)
(3.02728 9.26188e-06 -0.0379941)
(3.03698 -4.81238e-05 -0.0412423)
(3.04443 9.79045e-05 -0.0430214)
(3.04911 2.2815e-05 -0.0443762)
(3.05019 0.000947636 -0.0448994)
(3.04954 0.00207379 -0.0454617)
(3.0441 0.0036373 -0.0466851)
(3.02667 0.00654089 -0.0493643)
(2.97822 0.0130004 -0.055693)
(2.8419 0.029083 -0.0719342)
(2.40588 0.0749529 -0.126946)
(1.06575 0.230285 -0.245275)
(-0.10925 0.648825 -0.162798)
(0.301629 0.683923 -0.159375)
(0.639701 0.510044 -0.135258)
(0.623784 0.455714 -0.134532)
(0.419026 0.558593 -0.144727)
(0.240388 0.682406 -0.132801)
(3.00703 -4.70807e-07 -0.0225667)
(3.01732 -3.23464e-06 -0.0336553)
(3.02727 5.89084e-06 -0.0379903)
(3.037 -4.62369e-05 -0.0412344)
(3.04443 9.56696e-05 -0.0430362)
(3.04927 -2.15077e-05 -0.044316)
(3.05054 0.000971882 -0.0449639)
(3.04996 0.00207874 -0.0454934)
(3.04483 0.00372634 -0.0466535)
(3.02824 0.00702975 -0.049192)
(2.98196 0.0145867 -0.0551277)
(2.85176 0.0332366 -0.0701468)
(2.43747 0.0849639 -0.120066)
(1.13535 0.251548 -0.227394)
(-0.058323 0.716849 -0.167881)
(0.32468 0.720344 -0.160396)
(0.634719 0.524534 -0.131682)
(0.638248 0.492376 -0.132593)
(0.457538 0.63901 -0.141243)
(0.263614 0.838294 -0.12659)
(3.00703 -5.44584e-06 -0.0225679)
(3.01733 -8.96111e-06 -0.0336524)
(3.02726 2.08024e-06 -0.0379872)
(3.03701 -3.75533e-05 -0.0412269)
(3.04442 9.1537e-05 -0.0430521)
(3.04942 -7.52303e-05 -0.0442448)
(3.0509 0.000990863 -0.0450391)
(3.05041 0.00209585 -0.0455239)
(3.04566 0.00384827 -0.0466135)
(3.0301 0.00759513 -0.0490196)
(2.98641 0.0163224 -0.0545875)
(2.86325 0.0377226 -0.0684077)
(2.47213 0.096039 -0.112387)
(1.20699 0.277757 -0.207712)
(-0.00200589 0.803348 -0.175654)
(0.343991 0.764468 -0.160607)
(0.624726 0.536441 -0.129503)
(0.660546 0.532063 -0.131709)
(0.519717 0.723898 -0.138231)
(0.307951 1.02989 -0.11895)
(2.97875 5.10656e-07 0.000331939)
(2.97493 -4.66239e-07 -0.00402961)
(2.97768 3.207e-07 -0.00714181)
(2.98107 1.27274e-06 -0.010499)
(2.9847 2.93899e-06 -0.0125215)
(2.98689 1.68577e-06 -0.0141568)
(2.98717 3.5463e-06 -0.0145637)
(2.98479 7.86574e-06 -0.0151856)
(2.97605 1.08326e-05 -0.0161745)
(2.9523 1.1696e-06 -0.0179211)
(2.89163 -6.36796e-05 -0.0214264)
(2.73033 -0.000348812 -0.0294071)
(2.22483 -0.00179727 -0.0521172)
(0.482472 -0.00889864 -0.121636)
(-0.849142 -0.00474757 -0.105986)
(-0.329785 0.00513953 -0.0985583)
(0.232693 0.0233137 -0.0930046)
(0.470407 0.0176231 -0.088898)
(0.391982 0.0225795 -0.0820298)
(0.375793 0.00887073 -0.0672547)
(2.97875 1.48634e-06 0.000332011)
(2.97493 -1.45541e-06 -0.00402989)
(2.97768 9.07487e-07 -0.00714179)
(2.98107 3.75061e-06 -0.0104989)
(2.9847 8.57642e-06 -0.0125214)
(2.98689 5.63892e-06 -0.0141571)
(2.98717 1.21448e-05 -0.0145658)
(2.98479 2.4649e-05 -0.015195)
(2.97604 2.84989e-05 -0.0162093)
(2.95227 -2.22905e-05 -0.0180319)
(2.89149 -0.000289698 -0.0217559)
(2.72967 -0.00135339 -0.0303426)
(2.2214 -0.00619502 -0.0548008)
(0.474366 -0.0264709 -0.128015)
(-0.861663 -0.0130261 -0.0995724)
(-0.311599 0.0218833 -0.0943451)
(0.248346 0.0669321 -0.0891258)
(0.452787 0.0539105 -0.0860742)
(0.376278 0.0607018 -0.0800962)
(0.360446 0.0264823 -0.0671828)
(2.97875 2.35473e-06 0.000332158)
(2.97493 -2.56809e-06 -0.00403042)
(2.97768 1.38583e-06 -0.00714175)
(2.98108 6.07798e-06 -0.0104987)
(2.9847 1.35313e-05 -0.0125214)
(2.98689 1.12543e-05 -0.0141571)
(2.98717 2.46121e-05 -0.0145713)
(2.98479 4.19995e-05 -0.0152154)
(2.97602 2.67091e-05 -0.0162763)
(2.95217 -0.000135717 -0.018235)
(2.89111 -0.000818394 -0.0223351)
(2.7281 -0.00327591 -0.0319063)
(2.21382 -0.0134443 -0.0593652)
(0.470672 -0.0466783 -0.139537)
(-0.881836 -0.0106234 -0.0896726)
(-0.297804 0.0468216 -0.0874709)
(0.263626 0.100006 -0.0842661)
(0.441773 0.0824853 -0.0829179)
(0.365903 0.0944759 -0.0777375)
(0.345687 0.0477598 -0.066512)
(2.97875 2.97846e-06 0.000332388)
(2.97493 -4.01637e-06 -0.00403119)
(2.97768 1.69145e-06 -0.0071417)
(2.98108 8.27535e-06 -0.0104983)
(2.98471 1.76034e-05 -0.012522)
(2.98689 1.94224e-05 -0.0141559)
(2.98717 4.25143e-05 -0.0145792)
(2.98478 5.95309e-05 -0.015246)
(2.97596 -1.36648e-06 -0.0163685)
(2.95194 -0.0003506 -0.0184918)
(2.89027 -0.00163588 -0.0230255)
(2.72489 -0.00594556 -0.0336672)
(2.19912 -0.0230919 -0.0650197)
(0.466034 -0.0740144 -0.153243)
(-0.896194 0.00612182 -0.0787605)
(-0.284719 0.0834957 -0.0800476)
(0.280135 0.134186 -0.0800998)
(0.433943 0.113904 -0.0796724)
(0.356525 0.127484 -0.075296)
(0.329563 0.070918 -0.0655448)
(2.97875 3.1258e-06 0.000332735)
(2.97493 -6.14017e-06 -0.00403216)
(2.97769 1.80145e-06 -0.00714168)
(2.98108 1.05122e-05 -0.0104977)
(2.98471 2.10667e-05 -0.0125232)
(2.9869 3.10548e-05 -0.0141537)
(2.98718 6.79534e-05 -0.0145881)
(2.98476 8.49252e-05 -0.0152805)
(2.97585 -2.60553e-05 -0.0164671)
(2.95155 -0.000562542 -0.0187489)
(2.88891 -0.00241185 -0.0236714)
(2.71979 -0.00840034 -0.0352128)
(2.1753 -0.032239 -0.0703821)
(0.443417 -0.10685 -0.169929)
(-0.897324 0.0331766 -0.0674074)
(-0.2695 0.124452 -0.0732736)
(0.295155 0.166121 -0.076658)
(0.427467 0.142868 -0.0764056)
(0.347511 0.158988 -0.0728134)
(0.312377 0.0960535 -0.0644226)
(2.97875 2.73439e-06 0.000333291)
(2.97493 -8.80574e-06 -0.00403332)
(2.97769 1.92171e-06 -0.00714175)
(2.98109 1.30039e-05 -0.0104971)
(2.98471 2.44024e-05 -0.0125247)
(2.98691 4.72869e-05 -0.0141509)
(2.98719 0.000104148 -0.0145966)
(2.98473 0.000131995 -0.0153134)
(2.9757 -7.09489e-07 -0.0165569)
(2.95102 -0.000644618 -0.018973)
(2.88713 -0.00283944 -0.0242166)
(2.71303 -0.00990717 -0.0365005)
(2.14255 -0.0384625 -0.0749054)
(0.396936 -0.134497 -0.183934)
(-0.875773 0.0647257 -0.0585176)
(-0.248706 0.165976 -0.067706)
(0.307384 0.195533 -0.0738466)
(0.420423 0.171246 -0.0731507)
(0.337649 0.19036 -0.0704028)
(0.29426 0.123031 -0.0632107)
(2.97875 1.90158e-06 0.000334105)
(2.97493 -1.14451e-05 -0.00403464)
(2.97769 2.36726e-06 -0.00714187)
(2.98109 1.58548e-05 -0.0104968)
(2.98472 2.80208e-05 -0.0125257)
(2.98692 6.82147e-05 -0.0141514)
(2.9872 0.000152211 -0.0146048)
(2.9847 0.000209396 -0.0153419)