/*--------------------------------*- C++ -*----------------------------------*\
  =========                 |
  \\      /  F ield         | OpenFOAM: The Open Source CFD Toolbox
   \\    /   O peration     | Website:  https://openfoam.org
    \\  /    A nd           | Version:  6.0
     \\/     M anipulation  |
\*---------------------------------------------------------------------------*/
FoamFile
{
    version     2.0;
    format      ascii;
    class       volScalarField;
    location    "4";
    object      T;
}
// * * * * * * * * * * * * * * * * * * * * * * * * * * * * * * * * * * * * * //

dimensions      [0 0 0 1 0 0 0];

internalField   nonuniform List<scalar> 
192000
(
0.896124
0.86149
0.844608
0.833234
0.825426
0.819533
0.814907
0.811179
0.808073
0.80544
0.803169
0.801213
0.799494
0.798121
0.797625
0.797741
0.799394
0.80212
0.816442
0.842034
0.935303
1.11734
1.66948
2.10067
2.2034
2.20364
2.19691
2.18765
2.18299
2.18456
2.19582
2.20534
2.21881
2.22739
2.24624
2.26242
2.30256
2.33404
2.46499
2.25847
0.896127
0.861486
0.844615
0.833228
0.825434
0.819525
0.814916
0.811171
0.808083
0.805432
0.803179
0.801205
0.799505
0.79811
0.797631
0.797734
0.799499
0.802157
0.816945
0.841405
0.937557
1.11698
1.67159
2.09637
2.1992
2.19947
2.19262
2.18343
2.17878
2.18033
2.19134
2.20055
2.21375
2.2222
2.24078
2.2568
2.29668
2.32789
2.45991
2.2484
0.896127
0.861486
0.844615
0.833228
0.825434
0.819525
0.814916
0.811171
0.808083
0.805432
0.803179
0.801205
0.799505
0.79811
0.79763
0.797733
0.799497
0.802148
0.816927
0.841324
0.937415
1.11629
1.67094
2.09625
2.19931
2.19991
2.19307
2.18397
2.17963
2.1812
2.1925
2.20158
2.21474
2.22323
2.2419
2.25797
2.29785
2.32914
2.46085
2.24968
0.896124
0.86149
0.844608
0.833234
0.825426
0.819532
0.814908
0.811179
0.808073
0.80544
0.80317
0.801213
0.799495
0.79812
0.797624
0.79774
0.799387
0.802103
0.816383
0.841823
0.934921
1.11539
1.66777
2.10053
2.20464
2.20576
2.19902
2.19003
2.18641
2.18809
2.2002
2.20961
2.22297
2.2317
2.25088
2.26726
2.30758
2.33935
2.47006
2.26378
0.896128
0.861485
0.844612
0.833229
0.82543
0.819528
0.814912
0.811174
0.808078
0.805436
0.803174
0.801209
0.799499
0.798114
0.797627
0.797727
0.799362
0.80239
0.816361
0.843453
0.934462
1.11904
1.66595
2.10003
2.20528
2.20697
2.20038
2.19164
2.18869
2.19048
2.20315
2.21264
2.22596
2.23482
2.25429
2.27085
2.31141
2.34342
2.47384
2.27022
0.896124
0.86149
0.844608
0.833234
0.825426
0.819532
0.814908
0.811179
0.808074
0.80544
0.80317
0.801213
0.799495
0.798118
0.797621
0.797736
0.799375
0.802108
0.816288
0.841712
0.934133
1.11365
1.66325
2.10015
2.20657
2.20844
2.20182
2.19323
2.19074
2.19257
2.20572
2.21504
2.22837
2.23731
2.25695
2.27362
2.31426
2.34644
2.47616
2.2745
0.896132
0.861479
0.84462
0.833222
0.825439
0.819519
0.814921
0.811165
0.808088
0.805427
0.803184
0.801199
0.799509
0.798102
0.797631
0.797718
0.799439
0.802551
0.816763
0.842406
0.935953
1.11563
1.66343
2.09529
2.20305
2.20514
2.19863
2.19038
2.18824
2.19014
2.20339
2.21244
2.22537
2.23425
2.25381
2.27042
2.31086
2.34296
2.47256
2.26943
0.89613
0.861482
0.844618
0.833225
0.825436
0.819522
0.814919
0.811168
0.808085
0.805429
0.803182
0.801201
0.799507
0.798105
0.797628
0.797728
0.799449
0.802271
0.816619
0.841038
0.934805
1.10949
1.66161
2.09649
2.20585
2.20785
2.20127
2.19313
2.19128
2.19318
2.20673
2.21547
2.22842
2.2373
2.25687
2.2735
2.31385
2.34593
2.47478
2.27054
0.896133
0.861478
0.844621
0.833222
0.82544
0.819518
0.814922
0.811164
0.808089
0.805425
0.803185
0.801198
0.799509
0.798099
0.797625
0.797714
0.799422
0.802477
0.816522
0.841607
0.934163
1.10815
1.65636
2.09361
2.20531
2.20765
2.20128
2.19357
2.1921
2.19415
2.20792
2.21643
2.2293
2.2382
2.25777
2.27441
2.31466
2.34679
2.47509
2.27049
0.896132
0.861479
0.844621
0.833222
0.825439
0.819519
0.814921
0.811165
0.808088
0.805426
0.803185
0.801198
0.799509
0.798098
0.797616
0.797704
0.799397
0.802424
0.816365
0.841248
0.933086
1.10497
1.65082
2.09128
2.20562
2.20811
2.20181
2.19449
2.19336
2.19552
2.20949
2.21781
2.23056
2.23951
2.25908
2.27572
2.31584
2.34799
2.47577
2.27039
0.896128
0.861484
0.844617
0.833227
0.825436
0.819523
0.814918
0.811169
0.808085
0.80543
0.803181
0.801202
0.799505
0.798099
0.797602
0.797697
0.799374
0.802137
0.816147
0.840057
0.931522
1.10026
1.64503
2.09019
2.20767
2.21031
2.20402
2.19704
2.19623
2.19868
2.21285
2.22109
2.23383
2.24292
2.26258
2.27926
2.31935
2.3516
2.47902
2.27242
0.896131
0.86148
0.84462
0.833223
0.825438
0.81952
0.814921
0.811166
0.808087
0.805427
0.803184
0.801198
0.799508
0.798092
0.797588
0.79767
0.79932
0.802273
0.815929
0.840332
0.930242
1.09734
1.63586
2.08538
2.20686
2.21003
2.20393
2.19756
2.19709
2.20012
2.21441
2.22259
2.23532
2.24452
2.26423
2.28094
2.32102
2.3534
2.48071
2.27334
0.896131
0.861481
0.844619
0.833224
0.825437
0.819521
0.81492
0.811167
0.808086
0.805427
0.803183
0.801199
0.799507
0.798089
0.797568
0.797646
0.799268
0.802154
0.81564
0.839671
0.928442
1.09202
1.6262
2.08051
2.20639
2.20976
2.20368
2.19775
2.19751
2.20104
2.21538
2.22349
2.23614
2.24536
2.26506
2.28176
2.32173
2.35423
2.48149
2.27296
0.89613
0.861482
0.844618
0.833225
0.825436
0.819522
0.814919
0.811168
0.808085
0.805429
0.803182
0.801199
0.799505
0.798084
0.797544
0.797617
0.799204
0.802007
0.815306
0.838904
0.926353
1.08649
1.61449
2.07477
2.20587
2.20937
2.2033
2.19767
2.19761
2.20158
2.21598
2.22405
2.23662
2.24584
2.26563
2.28229
2.32209
2.35472
2.4821
2.27191
0.896125
0.861487
0.844614
0.83323
0.825433
0.819526
0.814916
0.811172
0.808083
0.805433
0.80318
0.801202
0.799503
0.798081
0.797514
0.79758
0.799128
0.801793
0.814939
0.838075
0.92402
1.08129
1.6017
2.06766
2.2047
2.20831
2.20218
2.19692
2.19697
2.20131
2.21568
2.22369
2.23608
2.24521
2.26491
2.28148
2.32107
2.35386
2.48164
2.26945
0.896124
0.86149
0.844609
0.833234
0.825426
0.819532
0.814907
0.811179
0.808074
0.805439
0.80317
0.801209
0.799492
0.798083
0.797478
0.79755
0.798975
0.801526
0.814101
0.837627
0.919063
1.07828
1.58767
2.06528
2.20832
2.21148
2.20478
2.19915
2.19894
2.20345
2.21748
2.22526
2.23733
2.24627
2.26569
2.28204
2.32119
2.35401
2.48186
2.26722
0.896125
0.861489
0.844608
0.833234
0.825426
0.819532
0.814907
0.811178
0.808074
0.805439
0.803171
0.801209
0.799491
0.798076
0.797449
0.797509
0.798885
0.801402
0.813639
0.837201
0.916381
1.07078
1.56761
2.05831
2.2094
2.21333
2.20659
2.20137
2.2015
2.20651
2.22056
2.22842
2.24039
2.24922
2.26846
2.2846
2.32322
2.35596
2.48348
2.26665
0.896123
0.861491
0.844607
0.833236
0.825424
0.819534
0.814906
0.81118
0.808072
0.805441
0.803169
0.801209
0.79949
0.79807
0.797416
0.797471
0.7988
0.80122
0.813139
0.835851
0.912695
1.06373
1.54819
2.04992
2.20972
2.21428
2.20747
2.2023
2.20294
2.20855
2.22304
2.23113
2.24351
2.25245
2.27208
2.28823
2.32684
2.36
2.4883
2.26865
0.896123
0.86149
0.844612
0.833233
0.82543
0.819529
0.814913
0.811175
0.80808
0.805435
0.803178
0.801202
0.799498
0.798056
0.797389
0.797421
0.79877
0.80125
0.812992
0.834849
0.911241
1.05238
1.52277
2.0332
2.20391
2.20975
2.20357
2.19918
2.20054
2.20686
2.22182
2.23022
2.24294
2.25199
2.27179
2.28811
2.32693
2.36051
2.49039
2.27005
0.896119
0.861494
0.844608
0.833237
0.825427
0.819533
0.814909
0.811179
0.808077
0.805438
0.803175
0.801205
0.799495
0.798051
0.797352
0.79738
0.798682
0.800887
0.812394
0.833079
0.907053
1.0416
1.50054
2.01799
2.19758
2.20248
2.19583
2.19125
2.19293
2.19997
2.21603
2.22502
2.23851
2.24784
2.26808
2.28472
2.32394
2.35821
2.48945
2.26882
0.896119
0.861497
0.844602
0.833241
0.825419
0.819539
0.8149
0.811186
0.808067
0.805446
0.803165
0.801213
0.799483
0.798053
0.797308
0.797343
0.798512
0.800421
0.811355
0.831779
0.900243
1.03425
1.47509
2.00917
2.19727
2.20038
2.19299
2.18699
2.1883
2.19506
2.21078
2.21967
2.23329
2.24267
2.263
2.27989
2.3195
2.35453
2.48799
2.26666
0.89612
0.861495
0.844603
0.83324
0.82542
0.819538
0.814901
0.811184
0.808068
0.805445
0.803166
0.801211
0.799484
0.798044
0.797274
0.797292
0.798389
0.800416
0.810762
0.831429
0.896477
1.0242
1.44421
1.99392
2.19239
2.19523
2.18805
2.1808
2.18198
2.18855
2.20373
2.21233
2.22556
2.23469
2.25449
2.27127
2.31073
2.34643
2.4825
2.26248
0.896114
0.861502
0.844597
0.833246
0.825414
0.819544
0.814896
0.811191
0.808063
0.805451
0.803161
0.801216
0.799478
0.798041
0.797234
0.797252
0.798301
0.799978
0.810049
0.829328
0.891806
1.01391
1.39687
1.98151
2.18974
2.19258
2.18551
2.17735
2.17838
2.18481
2.19948
2.20784
2.22046
2.22918
2.24805
2.26441
2.30304
2.33889
2.47596
2.2543
0.896124
0.86149
0.844607
0.833234
0.825424
0.819532
0.814906
0.811179
0.808073
0.805439
0.803171
0.801204
0.799487
0.798021
0.797205
0.797194
0.798178
0.800128
0.809165
0.829202
0.886553
1.00751
1.37294
1.97057
2.19351
2.19756
2.18823
2.17837
2.178
2.1836
2.19758
2.20573
2.21782
2.22616
2.24414
2.26009
2.29775
2.33376
2.47165
2.24865
0.896117
0.861498
0.8446
0.833242
0.825417
0.819541
0.814899
0.811187
0.808066
0.805447
0.803165
0.801211
0.79948
0.798022
0.797164
0.797156
0.7981
0.799729
0.808578
0.827541
0.882924
0.997547
1.35523
1.95376
2.19635
2.20596
2.19586
2.18603
2.184
2.18811
2.20027
2.20702
2.218
2.22584
2.2428
2.25833
2.2949
2.33103
2.46993
2.24552
0.896112
0.861505
0.844594
0.833249
0.825411
0.819547
0.814893
0.811194
0.808061
0.805454
0.803159
0.801217
0.799474
0.79802
0.797122
0.797113
0.797997
0.799605
0.807768
0.826467
0.878506
0.989514
1.33363
1.93792
2.19695
2.212
2.20213
2.19192
2.19036
2.19395
2.20583
2.21268
2.22241
2.22933
2.24421
2.25905
2.29424
2.33054
2.47026
2.24579
0.896103
0.861515
0.844586
0.833259
0.825403
0.819557
0.814886
0.811204
0.808054
0.805463
0.803153
0.801225
0.799466
0.79802
0.797076
0.797064
0.797922
0.799116
0.807427
0.824339
0.875724
0.980819
1.31616
1.93011
2.19786
2.21831
2.20913
2.19892
2.19697
2.20007
2.21097
2.21764
2.22703
2.23382
2.24831
2.26249
2.29566
2.3317
2.47148
2.24717
0.896121
0.861494
0.844604
0.833238
0.825421
0.819536
0.814904
0.811183
0.808072
0.805442
0.80317
0.801203
0.799483
0.797991
0.797054
0.797007
0.797813
0.798957
0.806822
0.823151
0.872641
0.973068
1.30055
1.917
2.1973
2.22442
2.21644
2.20682
2.2044
2.20707
2.21706
2.22341
2.23226
2.23867
2.25223
2.26623
2.29884
2.3348
2.47485
2.24999
0.896148
0.861462
0.844633
0.833205
0.825451
0.819503
0.814933
0.81115
0.808101
0.805409
0.803199
0.801169
0.79951
0.797948
0.797043
0.796926
0.797714
0.79867
0.806334
0.821727
0.869745
0.965834
1.28526
1.90043
2.19446
2.22914
2.22276
2.21446
2.21207
2.21451
2.22372
2.22954
2.23773
2.2437
2.25638
2.26986
2.30146
2.33709
2.47932
2.25624
0.896169
0.861436
0.844656
0.833179
0.825473
0.819477
0.814956
0.811123
0.808123
0.805382
0.803222
0.801141
0.799532
0.797913
0.797027
0.796854
0.79761
0.798441
0.805773
0.819952
0.866335
0.955953
1.26831
1.8783
2.18714
2.23092
2.2264
2.21997
2.21848
2.22124
2.2303
2.23609
2.24372
2.24924
2.26093
2.27367
2.30411
2.33872
2.48186
2.26218
0.896225
0.86137
0.844717
0.833111
0.825534
0.819407
0.815017
0.811053
0.808184
0.805312
0.803282
0.801071
0.79959
0.79784
0.797054
0.79674
0.797524
0.798236
0.805562
0.818322
0.864617
0.949935
1.2583
1.86378
2.17984
2.23129
2.22907
2.22301
2.22247
2.2257
2.2349
2.24116
2.24916
2.25464
2.26601
2.27818
2.30745
2.3409
2.48472
2.26849
0.896253
0.861336
0.844746
0.833077
0.825564
0.819373
0.815046
0.811019
0.808213
0.805277
0.803312
0.801036
0.799618
0.797801
0.797051
0.796656
0.797396
0.798135
0.805091
0.816419
0.86159
0.939448
1.24344
1.84555
2.17692
2.23339
2.23292
2.22654
2.22551
2.22863
2.2375
2.24348
2.25196
2.25758
2.26928
2.28117
2.31051
2.34278
2.48744
2.27516
0.896294
0.861287
0.844789
0.833027
0.825607
0.819323
0.815088
0.810969
0.808255
0.805228
0.803352
0.800987
0.799657
0.797748
0.797054
0.796551
0.797272
0.797961
0.804592
0.815349
0.858867
0.933823
1.22513
1.82291
2.16819
2.23772
2.23729
2.23241
2.23027
2.23304
2.24088
2.24592
2.25382
2.25919
2.2705
2.28206
2.31068
2.34214
2.48819
2.28037
0.896275
0.861311
0.844766
0.833052
0.825583
0.819349
0.815065
0.810995
0.808232
0.805253
0.80333
0.801011
0.799633
0.797766
0.796991
0.796485
0.797126
0.797826
0.803833
0.814807
0.854685
0.925863
1.19523
1.78366
2.15418
2.23722
2.2393
2.23628
2.23482
2.23783
2.24505
2.24959
2.25646
2.26123
2.27131
2.28208
2.30982
2.34015
2.48757
2.28533
0.896267
0.861321
0.844757
0.833062
0.825574
0.819359
0.815055
0.811006
0.808222
0.805264
0.80332
0.801022
0.799622
0.797774
0.796949
0.796412
0.797016
0.797658
0.803362
0.813908
0.851716
0.920334
1.17245
1.75127
2.13281
2.23305
2.23842
2.23709
2.23733
2.24101
2.24847
2.2532
2.25981
2.26413
2.27294
2.28236
2.30755
2.33601
2.4849
2.28811
0.896264
0.861325
0.844754
0.833065
0.825571
0.819362
0.815054
0.811008
0.808221
0.805267
0.803319
0.801024
0.799619
0.797773
0.796926
0.79634
0.796949
0.797465
0.80312
0.812745
0.850187
0.917463
1.16505
1.72437
2.11747
2.22529
2.23339
2.23455
2.23649
2.24194
2.24962
2.25518
2.26221
2.26664
2.2751
2.28343
2.3058
2.3316
2.48067
2.28911
0.896248
0.861343
0.844737
0.833084
0.825554
0.819382
0.815036
0.81103
0.808203
0.805289
0.8033
0.801046
0.799597
0.797794
0.79688
0.796283
0.796829
0.79737
0.802819
0.810146
0.847675
0.908535
1.14415
1.68379
2.10378
2.22456
2.23109
2.23134
2.23353
2.24036
2.24949
2.25511
2.26345
2.2679
2.276
2.28355
2.30373
2.32508
2.47109
2.28645
0.896125
0.86149
0.844606
0.833234
0.825423
0.819533
0.814906
0.81118
0.808075
0.805437
0.803174
0.801193
0.799471
0.797938
0.796725
0.796324
0.796433
0.798094
0.800104
0.814187
0.833374
0.923346
1.07881
1.60986
2.06912
2.21892
2.2288
2.22987
2.23194
2.23705
2.24759
2.2545
2.26345
2.2693
2.2771
2.28406
2.30307
2.31956
2.46162
2.27956
0.896115
0.861501
0.844595
0.833246
0.825413
0.819545
0.814895
0.811193
0.808064
0.805451
0.803162
0.801207
0.799457
0.797949
0.796688
0.796251
0.796326
0.797806
0.800473
0.812625
0.834464
0.913846
1.0614
1.55893
2.03566
2.20912
2.22421
2.22888
2.23145
2.23687
2.24625
2.25391
2.26335
2.26933
2.27714
2.28286
2.30009
2.31006
2.44039
2.26402
0.896118
0.861499
0.844598
0.833243
0.825415
0.819543
0.814898
0.81119
0.808066
0.805448
0.803163
0.801205
0.799456
0.797946
0.796668
0.796166
0.796221
0.797575
0.800058
0.811332
0.832095
0.905099
1.04029
1.51353
1.99358
2.19269
2.21609
2.22697
2.23354
2.24228
2.25413
2.26283
2.27235
2.27787
2.28488
2.28927
2.30337
2.30591
2.41468
2.20907
1.00317
0.996907
0.990525
0.983428
0.977912
0.973359
0.969644
0.966538
0.963847
0.961564
0.959517
0.95779
0.956182
0.955165
0.955069
0.955824
0.957179
0.964634
0.976183
1.02297
1.10722
1.40137
2.11291
2.5157
2.59824
2.59272
2.58087
2.57791
2.5795
2.5858
2.60146
2.61112
2.62664
2.63837
2.66283
2.68502
2.73263
2.77284
2.88441
2.67788
1.00317
0.996856
0.990576
0.983374
0.977966
0.973303
0.9697
0.96648
0.963904
0.961505
0.959575
0.957731
0.956241
0.955098
0.955147
0.955686
0.957325
0.965745
0.977787
1.0202
1.11463
1.391
2.08747
2.5084
2.5924
2.5876
2.57572
2.57259
2.57415
2.58032
2.59629
2.60587
2.62122
2.63285
2.65714
2.67917
2.72654
2.76642
2.87957
2.68117
1.00317
0.996856
0.990576
0.983374
0.977966
0.973303
0.9697
0.96648
0.963904
0.961505
0.959575
0.957731
0.956241
0.955097
0.955147
0.955685
0.957322
0.965737
0.977756
1.02016
1.11441
1.3906
2.08698
2.50842
2.59282
2.58828
2.57647
2.57333
2.57481
2.58099
2.597
2.60649
2.62177
2.63338
2.65763
2.6796
2.72678
2.76639
2.87944
2.6839
1.00317
0.996906
0.990525
0.983427
0.977912
0.973359
0.969645
0.966537
0.963848
0.961563
0.959518
0.95779
0.956183
0.955163
0.955069
0.955824
0.95717
0.964606
0.976092
1.02279
1.10679
1.39952
2.11034
2.51465
2.59852
2.59383
2.5822
2.57917
2.58053
2.58682
2.60257
2.61174
2.62711
2.63873
2.66298
2.68495
2.73177
2.7712
2.8826
2.68562
1.00317
0.996903
0.990528
0.983423
0.977917
0.973354
0.969649
0.966531
0.963853
0.961558
0.959523
0.957784
0.956188
0.955156
0.955079
0.955834
0.957174
0.9646
0.976028
1.02298
1.10693
1.39882
2.10657
2.51141
2.59617
2.59208
2.58112
2.57814
2.5799
2.58638
2.60219
2.61112
2.62666
2.63835
2.66271
2.68474
2.73138
2.77087
2.88198
2.68763
1.00317
0.996906
0.990525
0.983427
0.977912
0.973359
0.969645
0.966537
0.963849
0.961563
0.959518
0.957789
0.956182
0.955159
0.955064
0.955817
0.957157
0.96456
0.975999
1.0224
1.10593
1.39655
2.1062
2.51383
2.59977
2.59571
2.58505
2.58175
2.5835
2.58986
2.60529
2.61402
2.62928
2.64091
2.66511
2.68699
2.73305
2.77226
2.88249
2.68777
1.00317
0.996862
0.99057
0.983379
0.97796
0.973308
0.969695
0.966485
0.9639
0.961511
0.95957
0.957735
0.956235
0.955098
0.955118
0.955829
0.957214
0.965956
0.977248
1.02042
1.11046
1.38641
2.07747
2.50348
2.59234
2.58954
2.57968
2.57684
2.57903
2.58605
2.60174
2.61065
2.62591
2.63757
2.66183
2.68367
2.72952
2.76858
2.88024
2.68813
1.00317
0.996862
0.99057
0.98338
0.97796
0.97331
0.969694
0.966487
0.963898
0.961512
0.959569
0.957737
0.956233
0.955101
0.955123
0.955828
0.957259
0.96594
0.977074
1.02124
1.10907
1.38447
2.07905
2.50649
2.5964
2.59292
2.58292
2.5798
2.58171
2.58912
2.60426
2.61301
2.62782
2.63933
2.66328
2.68482
2.72984
2.76828
2.87965
2.68936
1.00317
0.996859
0.990573
0.983377
0.977963
0.973306
0.969697
0.966483
0.963902
0.961508
0.959572
0.957733
0.956236
0.955093
0.955104
0.955963
0.957142
0.966527
0.976804
1.02155
1.10762
1.38087
2.07099
2.50242
2.59512
2.59256
2.58339
2.58031
2.58251
2.59028
2.60538
2.61405
2.62856
2.63996
2.6637
2.68495
2.72921
2.76704
2.87859
2.68996
1.00317
0.99686
0.990573
0.983377
0.977963
0.973306
0.969697
0.966483
0.963902
0.961508
0.959573
0.957732
0.956237
0.955089
0.955094
0.955944
0.957114
0.966442
0.976636
1.02112
1.10643
1.37756
2.06429
2.49905
2.59446
2.59229
2.58367
2.58068
2.58311
2.59113
2.60635
2.61494
2.62917
2.64044
2.66402
2.68502
2.72864
2.7659
2.87774
2.69134
1.00317
0.996855
0.990577
0.983373
0.977966
0.973302
0.969701
0.966479
0.963906
0.961504
0.959576
0.957728
0.95624
0.955081
0.955098
0.955776
0.957179
0.965697
0.976583
1.01994
1.10537
1.3747
2.05899
2.49737
2.59573
2.59363
2.58544
2.58218
2.58464
2.59269
2.6079
2.61635
2.63026
2.64132
2.6647
2.68537
2.72823
2.76485
2.8769
2.69403
1.00317
0.996861
0.990571
0.983378
0.977961
0.973307
0.969696
0.966483
0.963901
0.961508
0.959572
0.957731
0.956236
0.955076
0.95506
0.955882
0.957026
0.966194
0.976157
1.01999
1.10327
1.36909
2.04709
2.49095
2.59398
2.59246
2.58515
2.58212
2.58492
2.59329
2.60859
2.61704
2.63091
2.64178
2.66496
2.68535
2.7275
2.76368
2.87607
2.69625
1.00317
0.996863
0.990569
0.98338
0.977959
0.973309
0.969694
0.966485
0.963899
0.96151
0.95957
0.957732
0.956234
0.955069
0.955035
0.955848
0.95696
0.966065
0.975832
1.01928
1.10147
1.36323
2.03617
2.48523
2.59349
2.59191
2.5852
2.58217
2.58514
2.59374
2.6091
2.61753
2.63133
2.64198
2.66484
2.68502
2.72652
2.7623
2.87512
2.6982
1.00317
0.996864
0.990568
0.98338
0.977959
0.973309
0.969693
0.966485
0.963899
0.961509
0.959571
0.957731
0.956234
0.955057
0.955008
0.95579
0.956887
0.965847
0.975462
1.0183
1.09928
1.35713
2.02263
2.47886
2.59306
2.59142
2.58531
2.58234
2.58559
2.59438
2.60972
2.61818
2.6318
2.64221
2.66457
2.68453
2.72547
2.76066
2.87406
2.70059
1.00318
0.996844
0.990588
0.983359
0.977979
0.973288
0.969714
0.966464
0.96392
0.961488
0.959592
0.957708
0.956255
0.955021
0.954994
0.955586
0.956856
0.965029
0.975203
1.01575
1.09694
1.35133
2.00633
2.46851
2.59077
2.58929
2.5842
2.58159
2.58536
2.59448
2.60993
2.61854
2.6321
2.64229
2.66415
2.68384
2.72413
2.75889
2.87271
2.70288
1.00317
0.996906
0.990525
0.983426
0.977913
0.973357
0.969646
0.966535
0.963851
0.96156
0.959521
0.95778
0.956183
0.955086
0.954902
0.955558
0.956729
0.963355
0.973667
1.01537
1.09021
1.35013
2.00857
2.46192
2.58923
2.58753
2.58238
2.57973
2.58398
2.59346
2.60932
2.61813
2.63193
2.64204
2.66349
2.683
2.72285
2.75734
2.87195
2.70509
1.00317
0.996912
0.990518
0.983429
0.977908
0.973359
0.969642
0.966536
0.963848
0.96156
0.959519
0.957778
0.956181
0.955073
0.95487
0.955505
0.956641
0.963175
0.973192
1.01444
1.08786
1.34087
1.99191
2.45531
2.58938
2.58745
2.58222
2.57888
2.58325
2.59252
2.60841
2.61706
2.63111
2.64116
2.66217
2.68146
2.72079
2.75488
2.87041
2.70798
1.00317
0.996908
0.990523
0.983427
0.977911
0.973358
0.969645
0.966536
0.963849
0.96156
0.959521
0.957777
0.956182
0.955058
0.954829
0.955442
0.956542
0.962869
0.972703
1.01252
1.08372
1.33071
1.96949
2.44532
2.5886
2.58666
2.58171
2.57792
2.58245
2.59169
2.60762
2.61615
2.63022
2.64009
2.66058
2.67981
2.71874
2.75252
2.86899
2.71235
1.00317
0.996853
0.990578
0.983367
0.97797
0.973294
0.969706
0.96647
0.963913
0.961492
0.959587
0.957707
0.956249
0.954969
0.954845
0.955349
0.956463
0.964085
0.973102
1.01125
1.08338
1.31351
1.92248
2.4312
2.58678
2.58491
2.58058
2.57624
2.58149
2.59021
2.60596
2.61427
2.62828
2.63792
2.65777
2.67672
2.71537
2.74895
2.867
2.71583
1.00318
0.996843
0.990588
0.983356
0.97798
0.973284
0.969716
0.966459
0.963923
0.961481
0.959597
0.957694
0.95626
0.954943
0.954817
0.95523
0.956385
0.963674
0.972602
1.00893
1.07986
1.30078
1.88999
2.41198
2.58162
2.58016
2.57715
2.57369
2.58026
2.589
2.6047
2.61302
2.62693
2.63638
2.65566
2.67407
2.712
2.74486
2.86408
2.71736
1.00317
0.996914
0.990517
0.983433
0.977905
0.973364
0.969638
0.966541
0.963843
0.961565
0.959516
0.957779
0.956177
0.95502
0.954706
0.955242
0.956225
0.962082
0.971011
1.00746
1.0728
1.29262
1.88229
2.40033
2.57777
2.57571
2.57135
2.5681
2.57573
2.5855
2.6019
2.61053
2.6247
2.63422
2.65345
2.67154
2.70921
2.74147
2.86094
2.71833
1.00317
0.996918
0.990511
0.983434
0.977902
0.973363
0.969637
0.966539
0.963843
0.961561
0.959517
0.957773
0.956179
0.955001
0.954674
0.95518
0.956121
0.96178
0.970388
1.00581
1.06863
1.27976
1.85161
2.38574
2.57432
2.57216
2.56765
2.5638
2.57161
2.58111
2.59776
2.60662
2.62102
2.63056
2.64979
2.66772
2.70534
2.73764
2.85845
2.71811
1.00317
0.996918
0.990512
0.983437
0.9779
0.973368
0.969633
0.966546
0.963839
0.961569
0.959512
0.95778
0.956173
0.954992
0.954619
0.955088
0.955994
0.961413
0.969811
1.00335
1.0641
1.26743
1.81066
2.37354
2.56736
2.5654
2.56177
2.55853
2.56736
2.5768
2.59382
2.60285
2.61733
2.62678
2.64571
2.66334
2.70069
2.73296
2.85498
2.71697
1.00317
0.996918
0.990512
0.983434
0.977902
0.973364
0.969637
0.96654
0.963844
0.961562
0.959518
0.957771
0.956179
0.954968
0.954586
0.95504
0.955893
0.961122
0.969097
1.0017
1.05926
1.25429
1.7635
2.35464
2.55734
2.55558
2.55315
2.55088
2.56088
2.5709
2.58848
2.59822
2.613
2.62261
2.64118
2.65848
2.69556
2.72808
2.85243
2.71478
1.00317
0.996919
0.99051
0.983434
0.977901
0.973364
0.969636
0.96654
0.963843
0.961562
0.959518
0.957769
0.956179
0.95495
0.954539
0.954962
0.955772
0.960808
0.968472
0.99984
1.05492
1.24185
1.723
2.33023
2.54642
2.54474
2.54385
2.54183
2.55322
2.56325
2.58165
2.59232
2.60765
2.61793
2.6362
2.65303
2.68937
2.72152
2.84815
2.71451
1.00316
0.996918
0.990511
0.983434
0.977901
0.973363
0.969637
0.966539
0.963844
0.961561
0.959519
0.957766
0.956179
0.954931
0.954489
0.95488
0.955652
0.960457
0.96782
0.997759
1.05036
1.23052
1.68015
2.31051
2.53827
2.53817
2.53636
2.53377
2.54562
2.5556
2.57367
2.58513
2.60084
2.61205
2.63075
2.64761
2.68423
2.71581
2.84409
2.71535
1.00316
0.996909
0.990519
0.983428
0.977907
0.973358
0.969642
0.966535
0.963849
0.961557
0.959525
0.957761
0.956184
0.954908
0.954435
0.95476
0.955545
0.960035
0.967187
0.995472
1.04629
1.22033
1.63306
2.29755
2.53206
2.53469
2.53128
2.52847
2.53861
2.55016
2.56707
2.57814
2.59351
2.60458
2.6232
2.63996
2.67716
2.70909
2.8383
2.71624
1.00317
0.99691
0.99052
0.983426
0.97791
0.973355
0.969647
0.966531
0.963855
0.961551
0.959531
0.957752
0.956191
0.954885
0.954391
0.954691
0.955428
0.959744
0.966506
0.993962
1.0416
1.21036
1.58218
2.28189
2.52658
2.53307
2.52706
2.52447
2.53188
2.54486
2.56201
2.57299
2.58813
2.5989
2.61687
2.63301
2.66928
2.70157
2.8336
2.71816
1.00317
0.996905
0.990527
0.983423
0.977917
0.973353
0.969654
0.966529
0.963862
0.961547
0.959539
0.957747
0.956198
0.954864
0.954341
0.954599
0.955321
0.959398
0.965787
0.992109
1.03668
1.2008
1.54292
2.25746
2.5207
2.53261
2.52555
2.52186
2.52742
2.53896
2.55547
2.56644
2.58156
2.59252
2.61039
2.62598
2.66116
2.69259
2.8249
2.71875
1.00317
0.996904
0.990531
0.983425
0.977919
0.973356
0.969655
0.966531
0.963863
0.96155
0.95954
0.957747
0.956199
0.954849
0.954283
0.954515
0.955179
0.95903
0.965129
0.99032
1.03216
1.19235
1.50589
2.23021
2.5091
2.53107
2.52515
2.52137
2.52635
2.53679
2.55162
2.56148
2.57564
2.58599
2.6039
2.61915
2.65364
2.68475
2.81817
2.71993
1.00318
0.996877
0.990563
0.983398
0.977954
0.973326
0.969691
0.9665
0.9639
0.961516
0.959579
0.957711
0.956238
0.954799
0.954273
0.954405
0.955103
0.959789
0.965062
0.991005
1.03109
1.17603
1.48932
2.2255
2.49874
2.5275
2.52277
2.52033
2.5246
2.53433
2.54847
2.55734
2.57073
2.57968
2.59691
2.61144
2.64474
2.67438
2.80667
2.71909
1.00319
0.996879
0.990565
0.983402
0.977954
0.973331
0.969691
0.966505
0.9639
0.961521
0.959578
0.957715
0.956236
0.95479
0.954221
0.954342
0.955033
0.959274
0.964502
0.989387
1.02792
1.16457
1.4716
2.20926
2.49418
2.52848
2.52256
2.52076
2.52444
2.53308
2.54655
2.55407
2.56659
2.57444
2.59056
2.60436
2.63697
2.66637
2.79762
2.71756
1.00319
0.996884
0.990564
0.983409
0.977953
0.973337
0.96969
0.966511
0.963899
0.961526
0.959578
0.957719
0.956235
0.954778
0.954162
0.954258
0.954898
0.95895
0.96379
0.987729
1.02453
1.1542
1.45386
2.19089
2.48424
2.52889
2.52242
2.52114
2.52394
2.5319
2.54517
2.55196
2.56313
2.56982
2.58381
2.59602
2.62579
2.65392
2.78393
2.71394
1.00318
0.99692
0.990526
0.983446
0.977913
0.973376
0.969649
0.96655
0.963857
0.961566
0.959536
0.957758
0.956191
0.954801
0.954046
0.954246
0.954688
0.957782
0.962663
0.983936
1.01759
1.15223
1.4174
2.14349
2.47719
2.52833
2.52292
2.52136
2.52343
2.52972
2.54253
2.54999
2.56047
2.56646
2.57908
2.59001
2.61741
2.64412
2.77132
2.70696
1.00318
0.996929
0.990516
0.983454
0.977903
0.973384
0.969639
0.966559
0.963848
0.961575
0.959527
0.957766
0.95618
0.9548
0.953983
0.954155
0.954566
0.957481
0.962071
0.982408
1.01423
1.14242
1.39331
2.08765
2.45966
2.52898
2.52471
2.52176
2.5235
2.52847
2.53856
2.54644
2.55722
2.56239
2.57276
2.58178
2.60495
2.62986
2.75435
2.69839
1.00319
0.996909
0.990536
0.983432
0.977924
0.973361
0.969661
0.966535
0.963871
0.96155
0.95955
0.95774
0.956203
0.954766
0.953974
0.954025
0.954506
0.958028
0.961978
0.983354
1.01406
1.12645
1.38665
2.09402
2.44197
2.52818
2.52735
2.52384
2.52458
2.52839
2.53638
2.54194
2.55334
2.55926
2.56929
2.5765
2.59637
2.61667
2.73769
2.68081
1.00318
0.996923
0.990519
0.983445
0.977909
0.973374
0.969646
0.966548
0.963856
0.961563
0.959536
0.957753
0.956185
0.954773
0.953912
0.95395
0.954392
0.957647
0.961426
0.981824
1.01105
1.11752
1.36358
2.07531
2.42883
2.52704
2.52695
2.52494
2.52501
2.52851
2.53496
2.53883
2.5476
2.55278
2.56176
2.56815
2.5841
2.59926
2.71522
2.66358
1.00316
0.996938
0.990491
0.983458
0.97788
0.97339
0.969616
0.966566
0.963825
0.961583
0.959503
0.957774
0.956148
0.954789
0.95382
0.953874
0.954413
0.955919
0.963594
0.974668
1.01308
1.09793
1.343
1.996
2.41806
2.52993
2.52879
2.52548
2.52454
2.5283
2.53403
2.53738
2.54487
2.54927
2.5568
2.56157
2.57632
2.58151
2.6904
2.62853
1.00316
0.996941
0.990487
0.983462
0.977875
0.973394
0.969611
0.966571
0.96382
0.961588
0.959497
0.957779
0.956139
0.954789
0.953769
0.95376
0.954531
0.955533
0.96392
0.972654
1.01284
1.0863
1.31788
1.92333
2.39323
2.52965
2.52907
2.52698
2.52313
2.52621
2.53151
2.5341
2.5399
2.54284
2.54831
2.55058
2.56349
2.56328
2.65518
2.59063
1.00316
0.996942
0.990487
0.983464
0.977874
0.973396
0.96961
0.966573
0.963818
0.961591
0.959495
0.957783
0.956133
0.954791
0.953723
0.953667
0.954315
0.955291
0.963027
0.971293
1.00877
1.07701
1.292
1.86411
2.35317
2.52529
2.52807
2.52789
2.52436
2.52664
2.53151
2.53379
2.53877
2.54056
2.5439
2.54365
2.55053
2.54002
2.62017
2.51032
1.02214
1.02696
1.02399
1.02129
1.01826
1.01496
1.01203
1.00946
1.00709
1.0051
1.00321
1.00163
1.00012
0.999323
0.999257
1.0001
1.00177
1.01027
1.02455
1.07773
1.18337
1.51297
2.32258
2.64398
2.69538
2.68262
2.67033
2.66577
2.6673
2.67446
2.68902
2.6978
2.71086
2.71986
2.73882
2.75337
2.7843
2.80302
2.87492
2.71397
1.02215
1.02695
1.02405
1.02123
1.01832
1.0149
1.01208
1.0094
1.00715
1.00505
1.00326
1.00157
1.00017
0.999262
0.99936
0.999795
1.00288
1.00794
1.0299
1.06782
1.19693
1.49958
2.28609
2.63935
2.69146
2.67893
2.6673
2.66287
2.6649
2.67215
2.68685
2.69575
2.70906
2.71816
2.73729
2.75173
2.78223
2.80014
2.87216
2.71872
1.02215
1.02695
1.02405
1.02123
1.01832
1.0149
1.01208
1.0094
1.00715
1.00505
1.00326
1.00157
1.00017
0.999261
0.999359
0.999794
1.00287
1.00794
1.02987
1.06775
1.19669
1.49902
2.28565
2.63947
2.69185
2.67951
2.66807
2.66387
2.66615
2.67346
2.68826
2.69712
2.71045
2.71953
2.73865
2.75285
2.78312
2.7999
2.87189
2.72165
1.02214
1.02696
1.02399
1.02129
1.01827
1.01495
1.01203
1.00946
1.00709
1.0051
1.00321
1.00163
1.00012
0.999319
0.999259
1.00011
1.00177
1.01025
1.02441
1.07747
1.18237
1.51093
2.31916
2.64266
2.69524
2.6831
2.67156
2.66781
2.67015
2.67758
2.69237
2.70105
2.71429
2.72328
2.74236
2.75629
2.78694
2.80166
2.87309
2.72157
1.02214
1.02696
1.02402
1.02126
1.0183
1.01492
1.01206
1.00943
1.00712
1.00507
1.00324
1.0016
1.00015
0.999288
0.999325
0.99974
1.0036
1.00826
1.03147
1.06957
1.19162
1.5098
2.30035
2.63802
2.69128
2.67995
2.66904
2.66602
2.66901
2.67712
2.69211
2.70077
2.71415
2.72318
2.74233
2.75609
2.78689
2.80015
2.87253
2.72267
1.02214
1.02696
1.024
1.02128
1.01827
1.01495
1.01204
1.00945
1.0071
1.0051
1.00321
1.00162
1.00012
0.999311
0.999249
1.0001
1.00175
1.01021
1.02426
1.07723
1.18131
1.50629
2.31543
2.642
2.69574
2.68396
2.67337
2.66998
2.67298
2.68109
2.69567
2.70389
2.71692
2.72574
2.74453
2.75777
2.78836
2.79973
2.87246
2.72258
1.02215
1.02695
1.02406
1.02122
1.01833
1.01489
1.0121
1.00939
1.00716
1.00503
1.00328
1.00156
1.00019
0.99923
0.999353
0.999756
1.00266
1.00789
1.02914
1.06795
1.19494
1.48843
2.27189
2.63305
2.68946
2.67907
2.66989
2.66756
2.67167
2.68074
2.6959
2.7041
2.71759
2.72657
2.74563
2.75867
2.78906
2.7986
2.87196
2.72291
1.02215
1.02695
1.02405
1.02123
1.01832
1.0149
1.01209
1.0094
1.00715
1.00504
1.00327
1.00157
1.00017
0.999248
0.999311
1.00001
1.00191
1.01108
1.0257
1.07415
1.18645
1.49106
2.28927
2.63781
2.69498
2.68349
2.67373
2.6712
2.67502
2.68396
2.69884