/*--------------------------------*- C++ -*----------------------------------*\
  =========                 |
  \\      /  F ield         | OpenFOAM: The Open Source CFD Toolbox
   \\    /   O peration     | Website:  https://openfoam.org
    \\  /    A nd           | Version:  6.0
     \\/     M anipulation  |
\*---------------------------------------------------------------------------*/
FoamFile
{
    version     2.0;
    format      ascii;
    class       volScalarField;
    location    "1.50049";
    object      p;
}
// * * * * * * * * * * * * * * * * * * * * * * * * * * * * * * * * * * * * * //

dimensions      [1 -1 -2 0 0 0 0];

internalField   nonuniform List<scalar> 
4800
(
1
1
1
1
1
1
1
1
1
1
1
1
1
1
1
1
1
1
1
1
1
3.68824
9.83149
10.6261
11.1161
11.3124
11.1025
10.6168
10.3699
10.9121
11.9737
12.582
12.23
11.1078
10.4552
11.1948
13.0416
13.8876
13.2453
12.4178
1
1
1
1
1
1
1
1
1
1
1
1
1
1
1
1
1
1
1
1
1
3.73591
10.0249
10.66
10.7482
11.0132
11.1114
11.1599
11.2685
11.3284
11.3914
11.4183
11.54
11.6793
11.7457
11.7775
11.7874
11.7817
11.646
11.7058
1
1
1
1
1
1
1
1
1
1
1
1
1
1
1
1
1
1
1
1
1
3.76804
10.1983
10.7044
10.583
10.5894
10.9702
11.607
12.0864
11.8447
11.0376
10.5312
10.7608
11.7944
12.7052
12.4807
10.9754
10.1346
10.5704
11.2829
1
1
1
1
1
1
1
1
1
1
1
1
1
1
1
1
1
1
1
1
1
3.73542
10.1984
10.7633
10.5894
10.4897
10.8813
11.705
12.0903
11.9201
11.1197
10.5767
10.8715
11.9106
12.7168
12.4515
10.9332
9.97895
10.5034
11.637
1
1
1
1
1
1
1
1
1
1
1
1
1
1
1
1
1
1
1
1
1
3.66456
10.0701
10.7025
10.6677
10.7341
11.0585
11.3259
11.5547
11.4779
11.4975
11.5362
11.7972
12.0185
12.0099
11.7613
11.6903
11.6093
11.8205
12.1024
1
1
1
1
1
1
1
1
1
1
1
1
1
1
1
1
1
1
1
1
1
3.57118
9.88273
10.5411
10.8284
11.1753
11.1529
10.9539
10.7039
11.0013
11.8134
12.639
12.6366
11.9434
11.0527
11.0646
12.2591
13.3828
13.115
12.3966
1
1
1
1
1
1
1
1
1
1
1
1
1
1
1
1
1
1
1
1
1
3.47587
9.76238
10.4999
11.0634
11.3083
11.1792
10.7057
10.3343
10.745
11.8233
12.7678
12.8518
11.7192
10.7518
11.001
12.4131
13.4626
13.194
12.0575
1
1
1
1
1
1
1
1
1
1
1
1
1
1
1
1
1
1
1
1
1
3.40207
9.74769
10.6716
10.9886
11.1983
11.0721
10.6846
10.6412
11.1837
11.7795
11.8896
11.5028
11.4501
11.5406
11.6949
12.2402
12.2401
11.8432
11.9791
1
1
1
1
1
1
1
1
1
1
1
1
1
1
1
1
1
1
1
1
1
3.376
9.88961
10.8349
10.8496
10.8024
10.8046
10.9543
11.282
11.4835
11.381
10.7033
10.3689
11.0943
12.4201
12.7198
11.8712
11.13
11.1392
12.125
1
1
1
1
1
1
1
1
1
1
1
1
1
1
1
1
1
1
1
1
1
3.33571
10.0134
10.8572
10.6714
10.5067
10.5932
11.2162
11.8049
11.8249
10.999
10.2647
10.4205
11.2294
12.4391
12.9712
11.9272
10.8144
11.3188
12.0871
1
1
1
1
1
1
1
1
1
1
1
1
1
1
1
1
1
1
1
1
1
3.23677
9.93708
10.6844
10.4207
10.4015
10.7971
11.5956
11.9811
11.6246
10.8121
10.8184
11.2966
11.9456
11.9498
12.0084
11.5515
11.7283
12.2548
12.9958
1
1
1
1
1
1
1
1
1
1
1
1
1
1
1
1
1
1
1
1
1
3.07536
9.76995
10.4037
10.3904
10.7176
11.3805
11.7002
11.643
11.0726
11.0755
11.6843
12.4762
12.4968
11.8036
10.4571
11.4596
12.6834
12.7208
12.5506
1
1
1
1
1
1
1
1
1
1
1
1
1
1
1
1
1
1
1
1
1
2.90359
9.45166
10.2446
10.6021
11.203
11.4679
11.4724
11.0598
10.773
11.2638
12.2019
12.8108
12.5857
10.8385
10.3942
11.1043
12.334
12.3957
11.8147
1
1
1
1
1
1
1
1
1
1
1
1
1
1
1
1
1
1
1
1
1
2.7442
9.21454
10.3974
11.0276
11.2769
11.2101
10.8655
10.6135
11.0123
11.9151
12.2465
12.1374
11.2102
10.9361
10.8389
11.1613
11.5952
11.4615
10.8449
1
1
1
1
1
1
1
1
1
1
1
1
1
1
1
1
1
1
1
1
1
2.6204
9.18922
10.8364
11.0985
11.1454
10.8848
10.2992
10.4269
11.4439
12.0744
12.1342
10.9313
10.4003
10.7847
11.9242
12.1067
11.5161
10.8893
10.7778
1
1
1
1
1
1
1
1
1
1
1
1
1
1
1
1
1
1
1
1
1
2.57949
9.38187
10.9113
11.0359
11.006
10.4352
10.288
10.5643
11.4613
12.0458
11.5935
10.4191
10.506
11.937
12.6989
12.6403
11.5511
10.747
10.7713
1
1
1
1
1
1
1
1
1
1
1
1
1
1
1
1
1
1
1
1
1
2.47154
9.43113
10.8599
10.7863
10.4668
10.5278
10.7183
11.3454
11.4426
11.4031
10.5958
10.8127
11.187
12.3956
12.6316
12.4116
11.4869
11.2579
11.7349
1
1
1
1
1
1
1
1
1
1
1
1
1
1
1
1
1
1
1
1
1
2.34535
9.21676
10.7711
10.3187
10.209
10.5059
11.5149
11.9238
11.6302
10.4217
10.1757
10.7154
12.1086
12.5607
12.8086
11.9428
12.0135
13.0211
13.4035
1
1
1
1
1
1
1
1
1
1
1
1
1
1
1
1
1
1
1
1
1
2.16385
8.92183
10.3585
10.1415
10.1864
10.9925
11.7084
11.9587
11.3547
10.2464
10.1739
11.0482
12.225
12.2641
11.0932
11.4227
12.1965
13.0794
13.7044
1
1
1
1
1
1
1
1
1
1
1
1
1
1
1
1
1
1
1
1
1
1.95889
8.50164
10.2415
10.255
10.8612
11.2377
11.3359
11.4148
10.8399
10.6798
11.1478
12.1727
11.9667
11.098
10.4538
11.0565
12.3866
12.7591
12.2766
1
1
1
1
1
1
1
1
1
1
1
1
1
1
1
1
1
1
1
1
1
1.78094
8.21365
10.1276
10.7915
11.3301
11.2417
11.0528
10.3645
10.4565
11.5356
12.6528
12.6721
11.8759
10.1412
9.9097
10.7586
11.3466
10.6881
10.0262
1
1
1
1
1
1
1
1
1
1
1
1
1
1
1
1
1
1
1
1
1
1.6471
8.06803
10.5612
11.0692
11.3745
11.3946
10.5928
10.0041
10.463
12.0286
12.7345
12.794
11.5183
11.2144
11.2323
11.0456
10.637
10.2149
9.82514
1
1
1
1
1
1
1
1
1
1
1
1
1
1
1
1
1
1
1
1
1
1.54487
8.24682
10.9216
11.0136
11.1812
10.8845
10.1848
10.2432
11.0579
11.8184
12.1753
11.4367
11.1454
12.1214
12.2787
11.3214
9.97958
9.55132
9.75621
1
1
1
1
1
1
1
1
1
1
1
1
1
1
1
1
1
1
1
1
1
1.41477
8.06166
10.9432
10.8169
10.6817
10.1471
10.2307
10.5954
11.552
11.7477
11.2361
10.001
10.4111
11.4185
12.1558
11.7719
10.4646
10.0283
10.5457
1
1
1
1
1
1
1
1
1
1
1
1
1
1
1
1
1
1
1
1
1
1.26759
7.80277
10.8985
10.6158
10.0184
9.72401
10.2154
11.4985
11.7507
11.4548
9.86424
9.8471
10.0236
10.4157
11.2766
12.1126
12.5833
13.0752
13.356
1
1
1
1
1
1
1
1
1
1
1
1
1
1
1
1
1
1
1
1
1
1.17453
7.32491
10.5557
10.108
9.83526
9.96702
11.1105
11.5725
11.5478
10.4802
9.84886
10.1164
10.3951
10.4585
10.8583
12.0588
13.309
13.8379
13.9401
1
1
1
1
1
1
1
1
1
1
1
1
1
1
1
1
1
1
1
1
1
1.09962
6.93192
10.1841
10.0061
10.0394
11.0292
11.3363
11.4042
11.1339
10.0041
9.73165
10.1534
10.9736
11.3841
11.5315
11.4335
12.5419
13.382
13.5271
1
1
1
1
1
1
1
1
1
1
1
1
1
1
1
1
1
1
1
1
1
1.02616
6.6379
10.0705
9.99943
10.9209
11.3079
11.4305
11.4391
10.5626
10.1104
10.6819
12.2275
12.9058
12.9347
11.9296
10.5313
10.1074
9.82722
9.65016
1
1
1
1
1
1
1
1
1
1
1
1
1
1
1
1
1
1
1
1
1
1.00488
6.34775
10.0439
10.593
10.9861
11.2212
11.3644
10.822
10.3429
10.9299
12.2691
12.8316
12.968
12.6826
11.5652
10.4158
9.58596
9.03294
8.84616
1
1
1
1
1
1
1
1
1
1
1
1
1
1
1
1
1
1
1
1
1
1.00021
6.17316
10.3729
10.755
10.9031
10.9454
10.8099
9.80601
10.1562
11.1307
12.3341
12.7797
13.0585
11.9433
10.686
10.2596
9.59135
9.01291
8.67945
1
1
1
1
1
1
1
1
1
1
1
1
1
1
1
1
1
1
1
1
1
0.999995
5.83917
10.4415
10.7301
10.8425
10.8237
9.79449
9.5559
9.91789
11.0425
12.0338
12.145
9.91878
9.95186
10.2167
9.92548
9.21592
8.86866
8.82158
1
1
1
1
1
1
1
1
1
1
1
1
1
1
1
1
1
1
1
1
1
0.999996
5.37989
10.3083
10.6788
10.7715
10.0289
9.54977
9.63246
10.0858
10.9828
11.1818
9.44592
9.19834
9.41342
10.0173
9.89819
8.95552
9.34892
10.8233
1
1
1
1
1
1
1
1
1
1
1
1
1
1
1
1
1
1
1
1
1
0.999998
4.92285
10.1472
10.3504
9.99894
9.82141
9.74672
10.482
11.3259
10.9801
10.04
9.09411
8.92749
8.95821
9.75621
10.5143
12.5191
13.1134
13.1567
1
1
1
1
1
1
1
1
1
1
1
1
1
1
1
1
1
1
1
1
1
1
4.47823
9.87355
9.91469
9.73783
9.7511
10.6339
11.4353
11.4334
10.9587
9.76698
8.98294
8.7625
8.81294
9.40658
12.8546
14.0539
13.739
13.0318
1
1
1
1
1
1
1
1
1
1
1
1
1
1
1
1
1
1
1
1
1
1
4.05022
9.58066
9.78193
9.71918
10.2272
11.1924
11.4233
11.4158
10.8566
9.58053
8.9726
8.9859
9.44542
11.8115
12.5942
13.9655
13.0202
12.1583
1
1
1
1
1
1
1
1
1
1
1
1
1
1
1
1
1
1
1
1
1
1
3.61004
9.35582
9.74351
10.1633
10.8439
11.0752
11.2851
11.3635
10.5775
9.41679
9.5163
11.5947
12.8327
12.1709
12.1151
9.00492
8.32537
8.65176
1
1
1
1
1
1
1
1
1
1
1
1
1
1
1
1
1
1
1
1
1
1
3.26392
9.10162
10.3528
10.7738
10.8751
10.9734
11.1279
10.7369
9.97846
10.1578
12.0784
12.858
12.8562
11.956
8.42464
7.67463
7.76923
8.02522
1
1
1
1
1
1
1
1
1
1
1
1
1
1
1
1
1
1
1
1
1
1
2.96958
9.23798
10.5839
10.7096
10.7743
10.8858
10.2581
9.4865
9.77961
10.9377
12.3095
12.7001
12.7178
10.1323
7.80103
7.47606
7.55921
7.63581
1
1
1
1
1
1
1
1
1
1
1
1
1
1
1
1
1
1
1
1
1
1
2.52705
9.06095
10.5685
10.6379
10.6132
10.2455
9.3382
9.3951
9.68556
11.126
12.0556
12.6556
9.86604
8.20011
7.55674
7.16095
7.24175
7.27469
1
1
1
1
1
1
1
1
1
1
1
1
1
1
1
1
1
1
1
1
1
1
2.00331
8.71592
10.5358
10.4629
10.3632
9.51193
9.18708
9.44201
10.5827
11.0998
11.1521
8.42206
7.99721
8.20145
7.59526
7.09421
6.99858
6.99174
1
1
1
1
1
1
1
1
1
1
1
1
1
1
1
1
1
1
1
1
1
1
1.21837
7.47133
10.2191
9.99583
9.9138
10.1277
10.4984
10.7197
10.7389
10.421
9.54874
9.08558
9.17887
9.70649
10.3287
10.3434
9.43151
7.46042
1
1
1
1
1
1
1
1
1
1
1
1
1
1
1
1
1
1
1
1
1
1
1.00381
5.38597
9.7425
9.93884
10.15
10.2747
10.3344
10.3078
10.1343
9.91758
9.96119
10.2221
10.1186
9.81043
9.47411
8.91745
7.89934
6.22598
1
1
1
1
1
1
1
1
1
1
1
1
1
1
1
1
1
1
1
1
1
1
1
2.90336
8.94734
9.94991
10.0106
9.98457
9.93297
9.89779
9.9176
9.9834
9.95967
9.80532
9.53215
9.12178
8.57242
7.88387
6.91787
5.61442
1
1
1
1
1
1
1
1
1
1
1
1
1
1
1
1
1
1
1
1
1
1
1
1.19796
7.19606
9.92079
9.86422
9.79777
9.76281
9.7615
9.75875
9.71906
9.59341
9.37061
9.08178
8.76121
8.37815
7.84302
6.81651
5.71137
1
1
1
1
1
1
1
1
1
1
1
1
1
1
1
1
1
1
1
1
1
1
1
1.00215
4.48582
9.33607
9.66617
9.69264
9.6634
9.5613
9.43069
9.33333
9.25295
9.12977
8.91738
8.61967
8.20268
7.56451
6.66832
5.77199
1
1
1
1
1
1
1
1
1
1
1
1
1
1
1
1
1
1
1
1
1
1
1
0.999992
1.82618
8.06955
9.6343
9.59436
9.51128
9.35945
9.19522
9.06633
8.93704
8.79575
8.61132
8.33269
7.93819
7.34699
6.60531
5.8819
1
1
1
1
1
1
1
1
1
1
1
1
1
1
1
1
1
1
1
1
1
1
1
0.999998
1.03619
5.44062
9.26814
9.40181
9.33483
9.20652
9.04603
8.87082
8.65973
8.45783
8.25548
8.00872
7.68051
7.18618
6.58055
5.96727
1
1
1
1
1
1
1
1
1
1
1
1
1
1
1
1
1
1
1
1
1
1
1
1
1.00005
2.18303
8.0862
9.2824
9.1853
9.09968
8.94183
8.74081
8.50491
8.2636
7.99719
7.72364
7.41667
7.01233
6.51215
5.98656
1
1
1
1
1
1
1
1
1
1
1
1
1
1
1
1
1
1
1
1
1
1
1
1
1
1.06778
5.35776
8.92649
8.997
8.95524
8.83186
8.64228
8.40082
8.13344
7.83429
7.52378
7.19924
6.84476
6.42511
5.96018
1
1
1
1
1
1
1
1
1
1
1
1
1
1
1
1
1
1
1
1
1
1
1
1
1
1.00022
1.91259
7.64371
8.92482
8.77718
8.70307
8.5423
8.32489
8.05972
7.7565
7.43574
7.09537
6.74716
6.35707
5.94847
1
1
1
1
1
1
1
1
1
1
1
1
1
1
1
1
1
1
1
1
1
1
1
1
1
1
1.04026
4.60983
8.46921
8.59163
8.485
8.37183
8.20692
7.99587
7.722
7.40625
7.06495
6.72122
6.35131
5.97899
1
1
1
1
1
1
1
1
1
1
1
1
1
1
1
1
1
1
1
1
1
1
1
1
1
1
1.0001
1.53966
6.64755
8.52443
8.36925
8.23823
8.08479
7.90423
7.67877
7.40688
7.10164
6.77511
6.41658
6.05295
1
1
1
1
1
1
1
1
1
1
1
1
1
1
1
1
1
1
1
1
1
1
1
1
1
1
1
1.01467
3.00587
7.69482
8.22631
8.06079
7.92248
7.74928
7.557
7.33479
7.07717
6.79152
6.4781
6.15049
1
1
1
1
1
1
1
1
1
1
1
1
1
1
1
1
1
1
1
1
1
1
1
1
1
1
1
1.00004
1.17952
5.0072
8.02679
8.00288
7.83523
7.63962
7.44851
7.24047
7.0039
6.74438
6.47407
6.19513
1
1
1
1
1
1
1
1
1
1
1
1
1
1
1
1
1
1
1
1
1
1
1
1
1
1
1
1
1.00196
1.7383
6.1869
7.95094
7.75859
7.57234
7.37461
7.15554
6.92104
6.67471
6.42811
6.17254
1
1
1
1
1
1
1
1
1
1
1
1
1
1
1
1
1
1
1
1
1
1
1
1
1
1
1
1
1
1.02664
2.52713
6.90843
7.75219
7.53979
7.34538
7.1147
6.87817
6.63491
6.39583
6.14677
1
1
1
1
1
1
1
1
1
1
1
1
1
1
1
1
1
1
1
1
1
1
1
1
1
1
1
1
1
1.00014
1.10752
3.56734
7.22154
7.57997
7.33588
7.12688
6.89386
6.64949
6.40828
6.16171
1
1
1
1
1
1
1
1
1
1
1
1
1
1
1
1
1
1
1
1
1
1
1
1
1
1
1
1
1
1
1.00105
1.3034
4.60414
7.30031
7.3405
7.13757
6.92534
6.69408
6.45254
6.2016
1
1
1
1
1
1
1
1
1
1
1
1
1
1
1
1
1
1
1
1
1
1
1
1
1
1
1
1
1
1
1
1.00559
1.64415
5.22511
7.22834
7.15738
6.94253
6.73459
6.51593
6.27959
1
1
1
1
1
1
1
1
1
1
1
1
1
1
1
1
1
1
1
1
1
1
1
1
1
1
1
1
1
1
1
1.00002
1.02129
1.99916
5.63696
7.05245
6.95231
6.73962
6.54536
6.34178
1
1
1
1
1
1
1
1
1
1
1
1
1
1
1
1
1
1
1
1
1
1
1
1
1
1
1
1
1
1
1
1
1.00012
1.04887
2.35056
5.81844
6.88381
6.7699
6.56089
6.3697
1
1
1
1
1
1
1
1
1
1
1
1
1
1
1
1
1
1
1
1
1
1
1
1
1
1
1
1
1
1
1
1
1
1.00038
1.08819
2.62268
5.88211
6.71275
6.59575
6.3916
1
1
1
1
1
1
1
1
1
1
1
1
1
1
1
1
1
1
1
1
1
1
1
1
1
1
1
1
1
1
1
1
1
1
1.00093
1.12934
2.81136
5.84205
6.54503
6.44751
1
1
1
1
1
1
1
1
1
1
1
1
1
1
1
1
1
1
1
1
1
1
1
1
1
1
1
1
1
1
1
1
1
1
1
1.00169
1.16503
2.89335
5.72977
6.39945
1
1
1
1
1
1
1
1
1
1
1
1
1
1
1
1
1
1
1
1
1
1
1
1
1
1
1
1
1
1
1
1
1
1
1
1
1.00248
1.18566
2.87043
5.65117
1
1
1
1
1
1
1
1
1
1
1
1
1
1
1
1
1
1
1
1
1
1
1
1
1
1
1
1
1
1
1
1
1
1
1
1
1.00001
1.00321
1.18137
3.12553
1
1
1
1
1
1
1
1
1
1
1
1
1
1
1
1
1
1
1
1
1
1
1
1
1
1
1
1
1
1
1
1
1
1
1
1
1
1.00001
1.00275
1.25496
1
1
1
1
1
1
1
1
1
1
1
1
1
1
1
1
1
1
1
1
1
1
1
1
1
1
1
1
1
1
1
1
1
1
1
1
1
1
1.00001
1.00438
1
1
1
1
1
1
1
1
1
1
1
1
1
1
1
1
1
1
1
1
1
1
1
1
1
1
1
1
1
1
1
1
1
1
1
1
1
1
1
1
1
1
1
1
1
1
1
1
1
1
1
1
1
1
1
1
1
1
1
1
1
1
1
1
1
1
1
1
1
1
1
1
1
1
1
1
1
1
1
1
1
1
1
1
1
1
1
1
1
1
1
1
1
1
1
1
1
1
1
1
1
1
1
1
1
1
1
1
1
1
1
1
1
1
1
1
1
1
1
1
1
1
1
1
1
1
1
1
1
1
1
1
1
1
1
1
1
1
1
1
1
1
1
1
1
1
1
1
1
1
1
1
1
1
1
1
1
1
1
1
1
1
1
1
1
1
1
1
1
1
1
1
1
1
1
1
1
1
1
1
1
1
1
1
1
1
1
1
1
1
1
1
1
1
1
1
1
1
1
1
1
1
1
1
1
1
1
1
1
1
1
1
1
1
1
1
1
1
1
1
1
1
1
1
1
1
1
1
1
1
1
1
1
1
1
1
1
1
1
1
1
1
1
1
1
1
1
1
1
1
1
1
1
1
1
1
1
1
1
1
1
1
1
1
1
1
1
1
1
1
1
1
1
1
1
1
1
1
1
1
1
1
1
1
1
1
1
1
1
1
1
1
1
1
1
1
1
1
1
1
1
1
1
1
1
1
1
1
1
1
1
1
1
1
1
1
1
1
1
1
1
1
1
1
1
1
1
1
1
1
1
1
1
1
1
1
1
1
1
1
1
1
1
1
1
1
1
1
1
1
1
1
1
1
1
1
1
1
1
1
1
1
1
1
1
1
1
1
1
1
1
1
1
1
1
1
1
1
1
1
1
1
1
1
1
1
1
1
1
1
1
1
1
1
1
1
1
1
1
1
1
1
1
1
1
1
1
1
1
1
1
1
1
1
1
1
1
1
1
1
1
1
1
1
1
1
1
1
1
1
1
1
1
1
1
1
1
1
1
1
1
1
1
1
1
1
1
1
1
1
1
1
1
1
1
1
1
1
1
1
1
1
1
1
1
1
1
1
1
1
1
1
1
1
1
1
1
1
1
1
1.04471
0.408709
0.559545
0.740972
0.906338
0.989629
1.08637
1.17625
1.20873
1.21978
1.21845
1.22545
1.24914
1.27223
1.27247
1.25723
1.22791
1.19138
1.16044
1.13389
1.12201
1.25145
2.20631
3.84798
4.66977
4.48837
4.19561
3.97574
3.76036
3.57369
3.38938
3.24029
3.11991
3.0129
2.89989
2.77902
2.65804
2.53406
2.42786
2.27523
2.24946
0.828446
0.6444
0.716015
0.880106
1.02153
1.1067
1.16403
1.18402
1.18816
1.19381
1.2083
1.22793
1.24512
1.24318
1.22764
1.20215
1.17672
1.14757
1.12002
1.13947
1.49392
2.1714
3.05368
3.91155
4.20797
4.17424
3.9837
3.77404
3.58325
3.41344
3.25128
3.11021
2.99918
2.89414
2.78231
2.66445
2.54031
2.43301
2.28026
2.83423
1.26936
0.694662
0.735179
0.874149
1.04617
1.16449
1.20626
1.212
1.20335
1.20834
1.22323
1.24237
1.25766
1.25432
1.23509
1.20485
1.17763
1.14595
1.13843
1.27633
1.88946
2.23604
2.37035
3.12754
3.86479
4.13123
4.05229
3.85028
3.59419
3.3923
3.22962
3.10425
3.00757
2.89777
2.77445
2.64636
2.51835
2.40731
2.25688
3.28523
1.71544
0.994093
0.814088
0.866932
0.988241
1.11203
1.17347
1.20486
1.18289
1.1806
1.20376
1.23203
1.24633
1.23949
1.21827
1.19512
1.1711
1.14962
1.17635
1.56079
2.16317
2.37582
2.30669
2.42009
3.08891
3.67472
3.85804
3.87028
3.67013
3.42073
3.24173
3.09475
2.97629
2.87508
2.76779
2.65766
2.53689
2.42413
2.26452
3.75739
2.12312
1.34175
0.91355
0.896397
0.927378
1.01411
1.08624
1.13967
1.15734
1.16673
1.18645
1.21351
1.22436
1.21593
1.19727
1.17521
1.15485
1.15161
1.29065
1.95342
2.39481
2.39327
2.29415
2.20132
2.31924
2.88847
3.49479
3.68451
3.59905
3.48754
3.31997
3.11284
2.93133
2.81997
2.74102
2.65892
2.55685
2.44631
2.27561
4.21214
2.53657
1.66401
1.13254
0.9758
0.90852
0.934004
0.995208
1.06899
1.12252
1.1672
1.20658
1.23448
1.24129
1.23023
1.21583
1.19079
1.16458
1.19271
1.6061
2.29641
2.50961
2.44453
2.33065
2.19665
2.10135
2.20683
2.72895
3.28327
3.4744
3.42563
3.34505
3.16773
2.95973
2.80338
2.71016
2.63531
2.54929
2.45329
2.28473
4.5329
2.93726
1.93859
1.3923
1.08183
0.952408
0.915272
0.929133
0.980888
1.07165
1.14728
1.22652
1.25831
1.25643
1.23883
1.21147
1.18402
1.18125
1.34244
2.10571
2.54236
2.52683
2.45202
2.31564
2.18261
2.05962
1.98799
2.07045
2.498
3.0771
3.30498
3.25937
3.17927
3.02894
2.85155
2.69853
2.58766
2.50845
2.43427
2.28565
4.6555
3.25899
2.17518
1.63281
1.26369
1.09381
0.934013
0.929987
0.939948
1.01318
1.11293
1.20902
1.24434
1.24149
1.22552
1.19292
1.16872
1.20511
1.71455
2.47446
2.60847
2.5473
2.43122
2.29263
2.1573
2.038
1.94649
1.8806
1.92092
2.29271
2.84235
3.10723
3.09376
3.03467
2.91507
2.73845
2.58252
2.47907
2.39781
2.26715
4.75537
3.46775
2.4502
1.85545
1.46386
1.21726
0.997475
0.948569
0.947701
0.979734
1.06705
1.17785
1.21478
1.21106
1.20091
1.16731
1.14909
1.33621
2.19906
2.64666
2.62281
2.54469
2.41609
2.27543
2.13439
2.01961
1.92086
1.84235
1.78995
1.80393
2.08281
2.58811
2.91213
2.94533
2.89276
2.77707
2.60993
2.47993
2.3834
2.24904
4.85784
3.64482
2.71842
2.07622
1.66488
1.38369
1.13082
1.00343
0.955654
0.963636
1.01097
1.10707
1.17773
1.17922
1.16872
1.13324
1.16033
1.72094
2.50956
2.69868
2.6495
2.54194
2.40507
2.26415
2.12184
2.0078
1.91288
1.82749
1.75531
1.71072
1.70037
1.8866
2.34386
2.68605
2.77705
2.73513
2.63339
2.50011
2.3899
2.24274
4.96346
3.82682
2.96828
2.28533
1.85936
1.53229
1.26674
1.0843
0.983085
0.982254
0.975293
1.00535
1.07964
1.12803
1.12254
1.10732
1.29332
2.24556
2.67292
2.7255
2.65966
2.53998
2.39925
2.25706
2.11709
2.00189
1.90985
1.82633
1.74549
1.67877
1.62708
1.58536
1.69198
2.06176
2.47127
2.62857
2.55425
2.49202
2.39373
2.23637
5.10938
4.01711
3.18975
2.49137
2.05184
1.67294
1.39543
1.19731
1.06699
1.01123
0.955591
0.942088
0.972647
1.04132
1.06214
1.10872
1.67582
2.60889
2.78285
2.74547
2.64465
2.52243
2.38624
2.2464
2.11185
1.99989
1.90776
1.8169
1.73633
1.6657
1.58967
1.52615
1.4776
1.53708
1.83386
2.25324
2.40634
2.39414
2.36164
2.24417
5.28694
4.21389
3.39529
2.69248
2.22204
1.80953
1.52074
1.30175
1.16021
1.05295
0.958611
0.930513
0.928595
0.959864
1.00749
1.23867
2.18685
2.78053
2.8073
2.72743
2.59824
2.46648
2.3365
2.21507
2.10492
2.00523
1.91182
1.81572
1.71817
1.62854
1.5587
1.49491
1.4471
1.41544
1.43785
1.61821
1.97745
2.21784
2.28617
2.20879
5.42917
4.39515
3.58766
2.87415
2.378
1.94267
1.64698
1.40544
1.27036
1.12818
0.994122
0.940442
0.92009
0.929158
1.0046
1.57268
2.60858
2.84801
2.79056
2.6597
2.52818
2.39275
2.27452
2.18036
2.08782
1.99708
1.90815
1.81472
1.70152
1.59756
1.53266
1.47854
1.42893
1.39089
1.35751
1.3264
1.42824
1.68718
1.99218
2.11818
5.48555
4.52149
3.73506
3.0361
2.5003
2.07015
1.77817
1.52652
1.37258
1.18837
1.05197
0.965007
0.921576
0.927257
1.08715
1.99514
2.75243
2.81251
2.71305
2.55714
2.434
2.3062
2.211
2.14518
2.07618
1.99866
1.91132
1.81222
1.68619
1.57321
1.51991
1.47961
1.43345
1.38837
1.33105
1.27501
1.23969
1.27939
1.44936
1.82942
5.50011
4.60744
3.82922
3.16608
2.60554
2.2033
1.89405
1.65035
1.4696
1.26364
1.14038
0.999839
0.939044
0.956204
1.3505
2.28675
2.63862
2.68979
2.57437
2.43508
2.35158
2.25243
2.16385
2.12592
2.08468
2.00358
1.90372
1.79505
1.66998
1.57304
1.51887
1.46078
1.40227
1.35476
1.30349
1.24774
1.20848
1.17288
1.17128
1.38523
5.5213
4.67324
3.90166
3.26911
2.7073
2.34054
2.00637
1.76528
1.55413
1.34732
1.21221
1.05176
0.971569
1.03803
1.77024
2.46439
2.50185
2.48156
2.40546
2.32612
2.29031
2.21598
2.15173
2.1148
2.06499
1.97053
1.86629
1.76182
1.65456
1.58168
1.51987
1.44696
1.38235
1.33244
1.27902
1.22915
1.19014
1.14842
1.11444
1.10847
5.5589
4.73084
3.96965
3.36045
2.82806
2.46783
2.11497
1.87121
1.62481
1.44046
1.28362
1.12062
1.02805
1.26335
2.21926
2.48523
2.422
2.3432
2.26986
2.23146
2.23283
2.19899
2.14496
2.08162
1.99578
1.89368
1.79694
1.7145
1.63645
1.57915
1.51582
1.43587
1.36633
1.3131
1.25843
1.21319
1.17488
1.13299
1.09516
1.04821
5.64425
4.80116
4.05904
3.45705
2.97667
2.58891
2.22789
1.96575
1.69099
1.53261
1.3447
1.19364
1.13019
1.72042
2.56988
2.53489
2.41683
2.29174
2.19998
2.1451
2.14627
2.12974
2.07277
2.00349
1.91946
1.80458
1.7187
1.66812
1.61759
1.56991
1.50748
1.42629
1.35606
1.29959
1.2409
1.20289
1.16464
1.12425
1.08628
1.02849
5.74823
4.89562
4.17897
3.58224
3.13513
2.70065
2.33895
2.04576
1.77956
1.61907
1.39342
1.26464
1.37249
2.31317
2.75346
2.63317
2.44384
2.28544
2.16578
2.05858
2.0136
1.99318
1.9489
1.9109
1.83712
1.72597
1.65626
1.62869
1.60556
1.56353
1.49882
1.42179
1.35618
1.29747
1.23056
1.18073
1.13517
1.09862
1.07026
1.0129
5.83306
5.0048
4.32507
3.73665
3.29055
2.81077
2.45073
2.10844
1.88596
1.68833
1.45812
1.36726
1.86418
2.87433
2.85232
2.69204
2.47862
2.28986
2.13934
2.02201
1.94377
1.86426
1.79893
1.78261
1.74586
1.66653
1.62503
1.60626
1.57718
1.54038
1.48953
1.42042
1.35589
1.27835
1.21104
1.15936
1.11
1.07762
1.05416
0.998992
5.88961
5.12358
4.48447
3.9047
3.41102
2.91006
2.54228
2.182
1.99349
1.73838
1.54318
1.57507
2.58123
3.20394
3.02416
2.7718
2.53293
2.31384
2.12477
1.99218
1.902
1.81689
1.72433
1.67741
1.66397
1.61755
1.60499
1.60339
1.55939
1.49959
1.44578
1.39772
1.3324
1.2521
1.19
1.13774
1.08775
1.05846
1.03723
0.983151
5.93822
5.24627
4.6246
4.0511
3.48835
3.00763
2.60533
2.28297
2.07756
1.7918
1.64757
2.06457
3.28938
3.34948
3.14939
2.86346
2.59743
2.3689
2.16388
2.00664
1.88948
1.7889
1.69565
1.62907
1.59195
1.55802
1.55461
1.55294
1.50433
1.45183
1.40453
1.35362
1.28768
1.22226
1.17085
1.11795
1.06912
1.04576
1.02247
0.963675
6.03494
5.37102
4.72383
4.12845
3.52646
3.08952
2.66109
2.39761
2.13327
1.87569
1.81949
2.89485
3.77446
3.54744
3.23609
2.93017
2.64732
2.40143
2.19776
2.03993
1.90716
1.78603
1.68521
1.60713
1.54119
1.48037
1.4653
1.45626
1.41214
1.38461
1.35112
1.30686
1.24169
1.19241
1.15354
1.1032
1.06162
1.04226
1.01684
0.951181
6.11555
5.51234
4.78811
4.14984
3.56287
3.1524
2.74377
2.50271
2.16847
1.97566
2.30146
3.7457
3.98441
3.71224
3.34853
3.02487
2.73901
2.48097
2.25932
2.08125
1.93191
1.79365
1.68031
1.59874
1.51494
1.43397
1.37218
1.34028
1.30833
1.29402
1.28748
1.25494
1.20631
1.17188
1.14272
1.09713
1.05848
1.02876
0.991077
0.92262
6.06121
5.64478
4.80781
4.13573
3.62535
3.20512
2.85416
2.57616
2.24016
2.12387
3.23562
4.43188
4.13428
3.76461
3.40625
3.08204
2.79353
2.53789
2.31738
2.13043
1.9691
1.82498
1.70253
1.59855
1.49913
1.4081
1.33715
1.2809
1.2337
1.2097
1.21816
1.19837
1.18127
1.16882
1.14736
1.10245
1.0568
1.01679
0.970541
0.90227
5.56386
5.41847
4.80667
4.1608
3.73223
3.27424
2.98154
2.61457
2.34665
2.58259
4.28852
4.67203
4.28992
3.86042
3.49362
3.16543
2.87018
2.60989
2.38409
2.18176
1.99907
1.83895
1.7131
1.60464
1.49499
1.39142
1.31123
1.25237
1.20101
1.15949
1.15079
1.14153
1.1372
1.1402
1.11755
1.06778
1.02234
0.984412
0.944059
0.882709
4.03537
5.29696
4.87929
4.30988
3.85291
3.38685
3.08553
2.66625
2.51003
3.63599
5.17973
4.82053
4.3637
3.93891
3.56131
3.22235
2.92263
2.66395
2.44069
2.23946
2.05308
1.88471
1.74164
1.61912
1.50344
1.39577
1.3142
1.24101
1.17644
1.13349
1.10258
1.08463
1.08026
1.09325
1.07453
1.02313
0.98492
0.954276
0.917768
0.863611
3.19986
5.20802
4.99303
4.49048
3.98072
3.54159
3.13947
2.77875
2.92765
4.94471
5.47978
4.98357
4.4709
4.02511
3.62527
3.27175
2.96717
2.70759
2.48206
2.27846
2.09097
1.92082
1.77239
1.63789
1.5132
1.40717
1.32432
1.24587
1.1729
1.11971
1.07861
1.03588
1.01195
1.01696
0.998906
0.95675
0.939511
0.922197
0.891933
0.847423
2.05178
5.03817
5.07266
4.6377
4.05669
3.67059
3.18783
2.94571
4.05772
6.04364
5.66812
5.08457
4.56021
4.1053
3.68849
3.31423
3.00293
2.75245
2.53766
2.33816
2.14693
1.96823
1.81113
1.66983
1.5419
1.43366
1.33836
1.24749
1.169
1.11178
1.06336
1.01162
0.965918
0.94872
0.927747
0.896645
0.892886
0.886604
0.865088
0.832183
1.30041
4.42439
5.0776
4.69403
4.1687
3.7693
3.30168
3.28291
5.63297
6.45776
5.84335
5.20796
4.65992
4.1737
3.73651
3.35378
3.03246
2.7669
2.54497
2.35136
2.17062
1.99812
1.83856
1.69057
1.56158
1.45805
1.36678
1.27361
1.18619
1.11077
1.04912
0.992383
0.945974
0.913226
0.88265
0.853504
0.853153
0.845037
0.834318
0.816334
1.01718
3.57709
4.92796
4.71877
4.31534
3.80213
3.41708
4.41845
6.99904
6.65292
5.95422
5.30776
4.74592
4.23433
3.77428
3.38885
3.07959
2.81889
2.58544
2.37367
2.18607
2.01895
1.86398
1.71659
1.57984
1.46128
1.36449
1.27987
1.20016
1.11884
1.04121
0.976456
0.932156
0.894955
0.85714
0.82109
0.816425
0.80146
0.799401
0.79212
0.999701
2.57477
4.75697
4.81881
4.44476
3.86755
3.63069
6.29328
7.58196
6.81606
6.06296
5.39546
4.79952
4.27298
3.81737
3.43289
3.11727
2.85172
2.6141
2.3965
2.20361
2.03482
1.88036
1.74013
1.61116
1.49193
1.38696
1.29118
1.19986
1.11684
1.03867
0.969573
0.923968
0.88363
0.841595
0.805353
0.786275
0.763746
0.760085
0.757403
0.999888
1.66644
4.27094
4.82856
4.47527
3.95341
4.66123
8.00032
7.84916
6.96022
6.14907
5.45616
4.83297
4.29663
3.85947
3.49973
3.18807
2.90375
2.64633
2.4218
2.22841
2.05862
1.89541
1.74047
1.61206
1.50609
1.40935
1.30846
1.21405
1.13014
1.04988
0.979286
0.927091
0.876418
0.829725
0.796209
0.768478
0.731368
0.722636
0.715281
0.999957
1.1541
3.56745
4.69221
4.48071
4.09665
6.67493
8.93424
7.99065
7.03528
6.19541
5.47418
4.84376
4.30992
3.877
3.52753
3.22629
2.93913
2.67167
2.43908
2.24486
2.08035
1.92316
1.76452
1.63002
1.51495
1.40049
1.30317
1.2363
1.15735
1.06546
0.990486
0.934438
0.878799
0.82834
0.791777
0.757346
0.721172
0.694158
0.668826
0.999988
1.01737
2.62352
4.55722
4.50208
4.79958
8.96531
9.27708
8.12985
7.11018
6.24513
5.51042
4.8869
4.3648
3.92795
3.5681
3.2597
2.96618
2.69454
2.45728
2.25466
2.07395
1.93071
1.81693
1.68009
1.53859
1.41047
1.32036
1.23704
1.14953
1.08631
1.02435
0.964027
0.896579
0.833537
0.789862
0.75116
0.714113
0.681075
0.644546
0.999998
1.00124
1.70497
4.11392
4.36032
6.80062
10.4601
9.42261
8.19468
7.12434
6.24172
5.5189
4.91521
4.40574
3.96618
3.59245
3.27911
2.99257
2.7264
2.49182
2.28377
2.10193
1.94622
1.79322
1.6488
1.51667
1.42222
1.33721
1.23939
1.1559
1.0792
1.0122
0.947612
0.882141
0.82587
0.781836
0.739221
0.701559
0.669843
0.628434
1
1.00007
1.16939
3.20448
4.2384
9.65802
11.2925
9.63524
8.22463
7.11607
6.23462
5.52689
4.94652
4.44821
4.00466
3.61309
3.27655
2.98213
2.72058
2.49203
2.28873
2.11301
1.94976
1.79102
1.64564
1.53019
1.43763
1.34115
1.24616
1.16251
1.08298
1.01492
0.947639
0.884426
0.829334
0.78237
0.73674
0.698973
0.666351
0.622507
1
1
1.01849
2.21352
5.38733
11.6302
11.4361
9.73872
8.24998
7.12454
6.25261
5.55406
4.98018
4.47642
4.07139
3.7134
3.35064
3.03803
2.7772
2.55219
2.35167
2.16585
1.98703
1.82731
1.69349
1.58241
1.47349
1.36962
1.27724
1.19281
1.11368
1.03923
0.965376
0.903986
0.850441
0.800591
0.751776
0.710644
0.67483
0.625357
1
1
1.00094
1.92231
7.04444
14.256
11.8612
9.75959
8.22186
7.10408
6.24794
5.55549
4.97527
4.4946
4.06011
3.65154
3.2759
2.96029
2.70588
2.49159
2.30016
2.11467
1.93358
1.77842
1.65366
1.54416
1.4354
1.33635
1.24565
1.16475
1.08787
1.014
0.938066
0.880366
0.829782
0.781691
0.732703
0.692991
0.65718
0.608642
)
;

boundaryField
{
    inlet
    {
        type            fixedValue;
        value           uniform 1;
    }
    outlet
    {
        type            zeroGradient;
    }
    top
    {
        type            symmetryPlane;
    }
    bottom
    {
        type            symmetryPlane;
    }
    step
    {
        type            zeroGradient;
    }
    defaultFaces
    {
        type            empty;
    }
}


// ************************************************************************* //
