/*--------------------------------*- C++ -*----------------------------------*\
  =========                 |
  \\      /  F ield         | OpenFOAM: The Open Source CFD Toolbox
   \\    /   O peration     | Website:  https://openfoam.org
    \\  /    A nd           | Version:  6.0
     \\/     M anipulation  |
\*---------------------------------------------------------------------------*/
FoamFile
{
    version     2.0;
    format      ascii;
    class       volScalarField;
    location    "1.50049";
    object      rho;
}
// * * * * * * * * * * * * * * * * * * * * * * * * * * * * * * * * * * * * * //

dimensions      [1 -3 0 0 0 0 0];

internalField   nonuniform List<scalar> 
4800
(
1.39997
1.39997
1.39997
1.39997
1.39997
1.39997
1.39997
1.39997
1.39997
1.39997
1.39997
1.39997
1.39997
1.39997
1.39997
1.39997
1.39997
1.39997
1.39997
1.39997
1.39997
2.77148
5.17407
5.4254
5.59697
5.66658
5.59337
5.42381
5.34396
5.5553
5.94399
6.16239
6.03404
5.61669
5.36143
5.60679
6.21849
6.47963
6.2464
5.95515
1.39997
1.39997
1.39997
1.39997
1.39997
1.39997
1.39997
1.39997
1.39997
1.39997
1.39997
1.39997
1.39997
1.39997
1.39997
1.39997
1.39997
1.39997
1.39997
1.39997
1.39997
2.79123
5.24587
5.43877
5.4639
5.55868
5.59747
5.62217
5.67212
5.7062
5.73927
5.75313
5.78906
5.82611
5.83221
5.81448
5.79383
5.7727
5.70161
5.71178
1.39997
1.39997
1.39997
1.39997
1.39997
1.39997
1.39997
1.39997
1.39997
1.39997
1.39997
1.39997
1.39997
1.39997
1.39997
1.39997
1.39997
1.39997
1.39997
1.39997
1.39997
2.80344
5.30962
5.4554
5.40503
5.40622
5.54787
5.78349
5.96521
5.89271
5.61242
5.4298
5.51111
5.86908
6.1667
6.06464
5.50507
5.18418
5.32455
5.56728
1.39997
1.39997
1.39997
1.39997
1.39997
1.39997
1.39997
1.39997
1.39997
1.39997
1.39997
1.39997
1.39997
1.39997
1.39997
1.39997
1.39997
1.39997
1.39997
1.39997
1.39997
2.78839
5.30903
5.47702
5.40819
5.37072
5.51691
5.81961
5.96699
5.91997
5.64316
5.44836
5.55289
5.91155
6.17273
6.05686
5.49284
5.13112
5.30692
5.69732
1.39997
1.39997
1.39997
1.39997
1.39997
1.39997
1.39997
1.39997
1.39997
1.39997
1.39997
1.39997
1.39997
1.39997
1.39997
1.39997
1.39997
1.39997
1.39997
1.39997
1.39997
2.75553
5.26074
5.45608
5.43754
5.4608
5.58176
5.6853
5.77757
5.76214
5.7809
5.80025
5.88776
5.95109
5.93
5.81671
5.76871
5.72684
5.78094
5.86789
1.39997
1.39997
1.39997
1.39997
1.39997
1.39997
1.39997
1.39997
1.39997
1.39997
1.39997
1.39997
1.39997
1.39997
1.39997
1.39997
1.39997
1.39997
1.39997
1.39997
1.39997
2.71372
5.19126
5.39818
5.49809
5.62326
5.61761
5.55246
5.47148
5.59082
5.8939
6.19039
6.18628
5.92732
5.58785
5.57148
5.96917
6.33493
6.22942
5.97424
1.39997
1.39997
1.39997
1.39997
1.39997
1.39997
1.39997
1.39997
1.39997
1.39997
1.39997
1.39997
1.39997
1.39997
1.39997
1.39997
1.39997
1.39997
1.39997
1.39997
1.39997
2.67033
5.147
5.38415
5.58521
5.67308
5.62879
5.46308
5.33653
5.4985
5.8976
6.23548
6.26285
5.84849
5.4797
5.55062
6.02542
6.36514
6.26125
5.86329
1.39997
1.39997
1.39997
1.39997
1.39997
1.39997
1.39997
1.39997
1.39997
1.39997
1.39997
1.39997
1.39997
1.39997
1.39997
1.39997
1.39997
1.39997
1.39997
1.39997
1.39997
2.6352
5.1419
5.44909
5.55997
5.63501
5.59184
5.45603
5.44812
5.65754
5.8831
5.92798
5.78638
5.75301
5.76776
5.79939
5.96842
5.95441
5.80263
5.84378
1.39997
1.39997
1.39997
1.39997
1.39997
1.39997
1.39997
1.39997
1.39997
1.39997
1.39997
1.39997
1.39997
1.39997
1.39997
1.39997
1.39997
1.39997
1.39997
1.39997
1.39997
2.6187
5.1969
5.51172
5.51278
5.49435
5.49626
5.55483
5.68134
5.76512
5.74107
5.49934
5.37347
5.62567
6.07689
6.16264
5.84152
5.56343
5.55817
5.89991
1.39997
1.39997
1.39997
1.39997
1.39997
1.39997
1.39997
1.39997
1.39997
1.39997
1.39997
1.39997
1.39997
1.39997
1.39997
1.39997
1.39997
1.39997
1.39997
1.39997
1.39997
2.5989
5.24764
5.52388
5.45119
5.38783
5.4206
5.65087
5.86835
5.88672
5.60251
5.33829
5.394
5.67679
6.08536
6.24974
5.8645
5.45289
5.62694
5.89477
1.39997
1.39997
1.39997
1.39997
1.39997
1.39997
1.39997
1.39997
1.39997
1.39997
1.39997
1.39997
1.39997
1.39997
1.39997
1.39997
1.39997
1.39997
1.39997
1.39997
1.39997
2.55123
5.22527
5.46481
5.36096
5.35074
5.49629
5.787
5.93089
5.81587
5.5346
5.54382
5.71479
5.93296
5.91625
5.91968
5.73477
5.78156
5.95604
6.21073
1.39997
1.39997
1.39997
1.39997
1.39997
1.39997
1.39997
1.39997
1.39997
1.39997
1.39997
1.39997
1.39997
1.39997
1.39997
1.39997
1.39997
1.39997
1.39997
1.39997
1.39997
2.47787
5.17106
5.36526
5.3513
5.46839
5.70784
5.82475
5.81104
5.61697
5.63062
5.8588
6.13497
6.12894
5.86472
5.36068
5.7041
6.11534
6.12253
6.06584
1.39997
1.39997
1.39997
1.39997
1.39997
1.39997
1.39997
1.39997
1.39997
1.39997
1.39997
1.39997
1.39997
1.39997
1.39997
1.39997
1.39997
1.39997
1.39997
1.39997
1.39997
2.39769
5.05551
5.30884
5.43213
5.64626
5.74002
5.74437
5.60138
5.50775
5.70072
6.04171
6.25354
6.16304
5.51832
5.34086
5.57956
5.99838
6.01688
5.81549
1.39997
1.39997
1.39997
1.39997
1.39997
1.39997
1.39997
1.39997
1.39997
1.39997
1.39997
1.39997
1.39997
1.39997
1.39997
1.39997
1.39997
1.39997
1.39997
1.39997
1.39997
2.32411
4.96918
5.36721
5.58957
5.67455
5.64928
5.52638
5.43959
5.59677
5.9339
6.05918
6.02107
5.67542
5.55724
5.50801
5.60363
5.74203
5.68838
5.47045
1.39997
1.39997
1.39997
1.39997
1.39997
1.39997
1.39997
1.39997
1.39997
1.39997
1.39997
1.39997
1.39997
1.39997
1.39997
1.39997
1.39997
1.39997
1.39997
1.39997
1.39997
2.26268
4.96166
5.5295
5.61688
5.62933
5.53229
5.31935
5.37228
5.75308
5.99212
6.02164
5.58694
5.38103
5.50368
5.89454
5.94051
5.71477
5.48737
5.45002
1.39997
1.39997
1.39997
1.39997
1.39997
1.39997
1.39997
1.39997
1.39997
1.39997
1.39997
1.39997
1.39997
1.39997
1.39997
1.39997
1.39997
1.39997
1.39997
1.39997
1.39997
2.23809
5.03649
5.5582
5.59596
5.57965
5.3678
5.31609
5.42479
5.7605
5.98404
5.83091
5.40125
5.42149
5.91723
6.16715
6.12826
5.72959
5.44195
5.45625
1.39997
1.39997
1.39997
1.39997
1.39997
1.39997
1.39997
1.39997
1.39997
1.39997
1.39997
1.39997
1.39997
1.39997
1.39997
1.39997
1.39997
1.39997
1.39997
1.39997
1.39997
2.18175
5.05769
5.53995
5.50634
5.38238
5.4038
5.47749
5.71017
5.75509
5.75753
5.46999
5.54913
5.67592
6.08372
6.14747
6.05163
5.71131
5.63146
5.80066
1.39997
1.39997
1.39997
1.39997
1.39997
1.39997
1.39997
1.39997
1.39997
1.39997
1.39997
1.39997
1.39997
1.39997
1.39997
1.39997
1.39997
1.39997
1.39997
1.39997
1.39997
2.11416
4.97632
5.50652
5.33358
5.28975
5.40015
5.76805
5.92001
5.82648
5.39876
5.31613
5.51804
6.0041
6.14496
6.21803
5.89164
5.89982
6.24543
6.3788
1.39997
1.39997
1.39997
1.39997
1.39997
1.39997
1.39997
1.39997
1.39997
1.39997
1.39997
1.39997
1.39997
1.39997
1.39997
1.39997
1.39997
1.39997
1.39997
1.39997
1.39997
2.01981
4.86401
5.35533
5.27016
5.28508
5.58125
5.84156
5.93612
5.73002
5.33593
5.31816
5.64134
6.0471
6.04495
5.60716
5.70928
5.96612
6.27109
6.48958
1.39997
1.39997
1.39997
1.39997
1.39997
1.39997
1.39997
1.39997
1.39997
1.39997
1.39997
1.39997
1.39997
1.39997
1.39997
1.39997
1.39997
1.39997
1.39997
1.39997
1.39997
1.9173
4.71158
5.31755
5.3184
5.53929
5.67417
5.71351
5.74688
5.54491
5.49954
5.68203
6.04494
5.96095
5.63145
5.37798
5.58025
6.03942
6.17252
6.00087
1.39997
1.39997
1.39997
1.39997
1.39997
1.39997
1.39997
1.39997
1.39997
1.39997
1.39997
1.39997
1.39997
1.39997
1.39997
1.39997
1.39997
1.39997
1.39997
1.39997
1.39997
1.83113
4.62196
5.28798
5.52873
5.71909
5.68482
5.6212
5.3698
5.40681
5.81001
6.21697
6.22486
5.93422
5.28423
5.18336
5.47762
5.67602
5.43449
5.19329
1.39997
1.39997
1.39997
1.39997
1.39997
1.39997
1.39997
1.39997
1.39997
1.39997
1.39997
1.39997
1.39997
1.39997
1.39997
1.39997
1.39997
1.39997
1.39997
1.39997
1.39997
1.77182
4.59177
5.46833
5.64431
5.74592
5.75078
5.4578
5.23993
5.41346
5.98802
6.24787
6.27117
5.80948
5.68128
5.66942
5.5835
5.42289
5.26844
5.12463
1.39997
1.39997
1.39997
1.39997
1.39997
1.39997
1.39997
1.39997
1.39997
1.39997
1.39997
1.39997
1.39997
1.39997
1.39997
1.39997
1.39997
1.39997
1.39997
1.39997
1.39997
1.71971
4.69711
5.61801
5.63816
5.68898
5.57366
5.31046
5.33253
5.6332
5.91625
6.05256
5.79067
5.67729
6.00984
6.0419
5.68396
5.18637
5.02786
5.10597
1.39997
1.39997
1.39997
1.39997
1.39997
1.39997
1.39997
1.39997
1.39997
1.39997
1.39997
1.39997
1.39997
1.39997
1.39997
1.39997
1.39997
1.39997
1.39997
1.39997
1.39997
1.65
4.64071
5.63615
5.58197
5.51799
5.30723
5.33426
5.47014
5.81461
5.89014
5.71606
5.25998
5.41008
5.76474
6.00373
5.84818
5.3728
5.21541
5.40479
1.39997
1.39997
1.39997
1.39997
1.39997
1.39997
1.39997
1.39997
1.39997
1.39997
1.39997
1.39997
1.39997
1.39997
1.39997
1.39997
1.39997
1.39997
1.39997
1.39997
1.39997
1.55718
4.53048
5.62151
5.509
5.27235
5.15506
5.33482
5.79902
5.88798
5.78582
5.2044
5.20199
5.26699
5.40047
5.69458
5.97542
6.12857
6.28849
6.3812
1.39997
1.39997
1.39997
1.39997
1.39997
1.39997
1.39997
1.39997
1.39997
1.39997
1.39997
1.39997
1.39997
1.39997
1.39997
1.39997
1.39997
1.39997
1.39997
1.39997
1.39997
1.50177
4.32371
5.48264
5.31257
5.20501
5.25025
5.66352
5.82706
5.81592
5.42603
5.19967
5.30385
5.40789
5.41886
5.54578
5.96131
6.39182
6.56601
6.59098
1.39997
1.39997
1.39997
1.39997
1.39997
1.39997
1.39997
1.39997
1.39997
1.39997
1.39997
1.39997
1.39997
1.39997
1.39997
1.39997
1.39997
1.39997
1.39997
1.39997
1.39997
1.4617
4.15985
5.32962
5.2679
5.2814
5.63924
5.74549
5.76802
5.6669
5.24847
5.15447
5.32575
5.62309
5.75874
5.7912
5.74895
6.14116
6.42983
6.48
1.39997
1.39997
1.39997
1.39997
1.39997
1.39997
1.39997
1.39997
1.39997
1.39997
1.39997
1.39997
1.39997
1.39997
1.39997
1.39997
1.39997
1.39997
1.39997
1.39997
1.39997
1.42189
4.04047
5.27701
5.25616
5.59613
5.73456
5.77833
5.77998
5.45422
5.28726
5.50702
6.06309
6.30475
6.30894
5.93739
5.42365
5.26534
5.15261
5.07866
1.39997
1.39997
1.39997
1.39997
1.39997
1.39997
1.39997
1.39997
1.39997
1.39997
1.39997
1.39997
1.39997
1.39997
1.39997
1.39997
1.39997
1.39997
1.39997
1.39997
1.39997
1.4047
3.91092
5.25562
5.46413
5.61197
5.69792
5.74978
5.55026
5.37008
5.58505
6.0724
6.27741
6.32777
6.22365
5.81061
5.38413
5.07735
4.85803
4.77966
1.39997
1.39997
1.39997
1.39997
1.39997
1.39997
1.39997
1.39997
1.39997
1.39997
1.39997
1.39997
1.39997
1.39997
1.39997
1.39997
1.39997
1.39997
1.39997
1.39997
1.39997
1.40019
3.8357
5.36492
5.51624
5.57496
5.59052
5.54237
5.16769
5.2985
5.65463
6.09485
6.25991
6.37545
5.96709
5.49141
5.33025
5.0858
4.85702
4.72223
1.39997
1.39997
1.39997
1.39997
1.39997
1.39997
1.39997
1.39997
1.39997
1.39997
1.39997
1.39997
1.39997
1.39997
1.39997
1.39997
1.39997
1.39997
1.39997
1.39997
1.39997
1.39996
3.69908
5.38502
5.4992
5.54284
5.5391
5.1572
5.07009
5.2065
5.62092
5.98548
6.04156
5.21975
5.23059
5.31839
5.21091
4.95106
4.81415
4.79156
1.39997
1.39997
1.39997
1.39997
1.39997
1.39997
1.39997
1.39997
1.39997
1.39997
1.39997
1.39997
1.39997
1.39997
1.39997
1.39997
1.39997
1.39997
1.39997
1.39997
1.39997
1.39996
3.50652
5.33215
5.473
5.50944
5.23812
5.06146
5.09604
5.26919
5.59582
5.67698
5.03796
4.94874
5.0267
5.24594
5.20274
4.8863
5.02753
5.52862
1.39997
1.39997
1.39997
1.39997
1.39997
1.39997
1.39997
1.39997
1.39997
1.39997
1.39997
1.39997
1.39997
1.39997
1.39997
1.39997
1.39997
1.39997
1.39997
1.39997
1.39997
1.39997
3.309
5.28051
5.35288
5.22191
5.15777
5.13235
5.40735
5.71672
5.59293
5.25202
4.90441
4.84612
4.86038
5.14666
5.44259
6.16128
6.35345
6.36109
1.39997
1.39997
1.39997
1.39997
1.39997
1.39997
1.39997
1.39997
1.39997
1.39997
1.39997
1.39997
1.39997
1.39997
1.39997
1.39997
1.39997
1.39997
1.39997
1.39997
1.39997
1.39997
3.1193
5.19371
5.19391
5.1235
5.12799
5.45673
5.75123
5.753
5.58435
5.14891
4.86161
4.7842
4.80608
5.03206
6.28105
6.71394
6.59777
6.33392
1.39997
1.39997
1.39997
1.39997
1.39997
1.39997
1.39997
1.39997
1.39997
1.39997
1.39997
1.39997
1.39997
1.39997
1.39997
1.39997
1.39997
1.39997
1.39997
1.39997
1.39997
1.39997
2.9352
5.10061
5.14762
5.11644
5.30472
5.65985
5.7462
5.74594
5.54592
5.07913
4.86003
4.88312
5.0562
5.90242
6.19847
6.73958
6.40413
6.07358
1.39997
1.39997
1.39997
1.39997
1.39997
1.39997
1.39997
1.39997
1.39997
1.39997
1.39997
1.39997
1.39997
1.39997
1.39997
1.39997
1.39997
1.39997
1.39997
1.39997
1.39997
1.39997
2.74932
5.03518
5.13958
5.28546
5.53359
5.61677
5.69583
5.72702
5.44448
5.01799
5.07843
5.83362
6.26866
6.03147
6.08526
4.91164
4.63556
4.74915
1.39997
1.39997
1.39997
1.39997
1.39997
1.39997
1.39997
1.39997
1.39997
1.39997
1.39997
1.39997
1.39997
1.39997
1.39997
1.39997
1.39997
1.39997
1.39997
1.39997
1.39997
1.39997
2.59689
4.95484
5.37416
5.51592
5.54759
5.5818
5.64079
5.5011
5.22338
5.29753
5.99961
6.28321
6.28025
5.96026
4.66413
4.39999
4.42845
4.51391
1.39997
1.39997
1.39997
1.39997
1.39997
1.39997
1.39997
1.39997
1.39997
1.39997
1.39997
1.39997
1.39997
1.39997
1.39997
1.39997
1.39997
1.39997
1.39997
1.39997
1.39997
1.39997
2.45374
5.03018
5.46983
5.50072
5.51883
5.55517
5.3249
5.0386
5.15135
5.58314
6.08536
6.23313
6.24514
5.30505
4.42781
4.32853
4.35721
4.37527
1.39997
1.39997
1.39997
1.39997
1.39997
1.39997
1.39997
1.39997
1.39997
1.39997
1.39997
1.39997
1.39997
1.39997
1.39997
1.39997
1.39997
1.39997
1.39997
1.39997
1.39997
1.39997
2.24448
4.99656
5.48751
5.49858
5.47835
5.33365
4.9863
5.00952
5.12231
5.65525
5.99509
6.2457
5.19314
4.5544
4.32648
4.20153
4.23406
4.2446
1.39997
1.39997
1.39997
1.39997
1.39997
1.39997
1.39997
1.39997
1.39997
1.39997
1.39997
1.39997
1.39997
1.39997
1.39997
1.39997
1.39997
1.39997
1.39997
1.39997
1.39997
1.39997
1.9887
4.90388
5.50235
5.46379
5.40894
5.07713
4.94273
5.03601
5.46087
5.64675
5.66405
4.61535
4.44397
4.536
4.3172
4.13981
4.09801
4.08227
1.39997
1.39997
1.39997
1.39997
1.39997
1.39997
1.39997
1.39997
1.39997
1.39997
1.39997
1.39997
1.39997
1.39997
1.39997
1.39997
1.39997
1.39997
1.39997
1.39997
1.39997
1.39997
1.55422
4.45332
5.4056
5.30666
5.26108
5.32691
5.4565
5.53121
5.53393
5.40932
5.06398
4.85642
4.87109
5.0744
5.29997
5.27246
4.90829
4.02099
1.39997
1.39997
1.39997
1.39997
1.39997
1.39997
1.39997
1.39997
1.39997
1.39997
1.39997
1.39997
1.39997
1.39997
1.39997
1.39997
1.39997
1.39997
1.39997
1.39997
1.39997
1.39997
1.40317
3.55608
5.22696
5.29175
5.36404
5.40178
5.41753
5.40112
5.32685
5.2362
5.23605
5.3097
5.25392
5.1239
4.9776
4.72487
4.27778
3.51063
1.39997
1.39997
1.39997
1.39997
1.39997
1.39997
1.39997
1.39997
1.39997
1.39997
1.39997
1.39997
1.39997
1.39997
1.39997
1.39997
1.39997
1.39997
1.39997
1.39997
1.39997
1.39997
1.39997
2.44346
4.98379
5.31502
5.318
5.30119
5.27516
5.25709
5.25741
5.27288
5.25266
5.17551
5.05485
4.88452
4.65478
4.35603
3.93032
3.33703
1.39997
1.39997
1.39997
1.39997
1.39997
1.39997
1.39997
1.39997
1.39997
1.39997
1.39997
1.39997
1.39997
1.39997
1.39997
1.39997
1.39997
1.39997
1.39997
1.39997
1.39997
1.39997
1.39997
1.54544
4.35819
5.32997
5.2721
5.23166
5.21374
5.21017
5.20646
5.18528
5.12882
5.0311
4.90559
4.76672
4.59865
4.3615
3.91692
3.41676
1.39997
1.39997
1.39997
1.39997
1.39997
1.39997
1.39997
1.39997
1.39997
1.39997
1.39997
1.39997
1.39997
1.39997
1.39997
1.39997
1.39997
1.39997
1.39997
1.39997
1.39997
1.39997
1.39997
1.40169
3.19503
5.14473
5.21101
5.20256
5.18518
5.14
5.08719
5.04593
5.00903
4.95311
4.8593
4.72972
4.54966
4.27587
3.8891
3.48667
1.39997
1.39997
1.39997
1.39997
1.39997
1.39997
1.39997
1.39997
1.39997
1.39997
1.39997
1.39997
1.39997
1.39997
1.39997
1.39997
1.39997
1.39997
1.39997
1.39997
1.39997
1.39997
1.39997
1.39996
1.9155
4.75765
5.25552
5.20207
5.14891
5.07842
5.00856
4.95331
4.89719
4.8349
4.75335
4.63182
4.4613
4.2083
3.88818
3.56483
1.39997
1.39997
1.39997
1.39997
1.39997
1.39997
1.39997
1.39997
1.39997
1.39997
1.39997
1.39997
1.39997
1.39997
1.39997
1.39997
1.39997
1.39997
1.39997
1.39997
1.39997
1.39997
1.39997
1.39997
1.42833
3.63608
5.16299
5.15398
5.11072
5.04719
4.97331
4.89585
4.80477
4.71626
4.62601
4.51621
4.37162
4.15729
3.89345
3.62137
1.39997
1.39997
1.39997
1.39997
1.39997
1.39997
1.39997
1.39997
1.39997
1.39997
1.39997
1.39997
1.39997
1.39997
1.39997
1.39997
1.39997
1.39997
1.39997
1.39997
1.39997
1.39997
1.39997
1.39997
1.40001
2.12057
4.80871
5.15475
5.09409
5.04008
4.96337
4.87215
4.76739
4.65964
4.54085
4.41786
4.27953
4.0996
3.87847
3.64294
1.39997
1.39997
1.39997
1.39997
1.39997
1.39997
1.39997
1.39997
1.39997
1.39997
1.39997
1.39997
1.39997
1.39997
1.39997
1.39997
1.39997
1.39997
1.39997
1.39997
1.39997
1.39997
1.39997
1.39997
1.39997
1.45304
3.62717
5.0589
5.04227
5.01249
4.95195
4.86311
4.75225
4.63118
4.49761
4.35821
4.21091
4.04934
3.8592
3.64675
1.39997
1.39997
1.39997
1.39997
1.39997
1.39997
1.39997
1.39997
1.39997
1.39997
1.39997
1.39997
1.39997
1.39997
1.39997
1.39997
1.39997
1.39997
1.39997
1.39997
1.39997
1.39997
1.39997
1.39997
1.39997
1.40014
1.97979
4.66744
5.05654
4.98085
4.93266
4.85149
4.74827
4.62734
4.49178
4.34812
4.19432
4.03478
3.85473
3.66166
1.39997
1.39997
1.39997
1.39997
1.39997
1.39997
1.39997
1.39997
1.39997
1.39997
1.39997
1.39997
1.39997
1.39997
1.39997
1.39997
1.39997
1.39997
1.39997
1.39997
1.39997
1.39997
1.39997
1.39997
1.39997
1.39997
1.43195
3.3234
4.92847
4.92216
4.86952
4.8095
4.728
4.6284
4.50343
4.36085
4.20634
4.04848
3.8764
3.69901
1.39997
1.39997
1.39997
1.39997
1.39997
1.39997
1.39997
1.39997
1.39997
1.39997
1.39997
1.39997
1.39997
1.39997
1.39997
1.39997
1.39997
1.39997
1.39997
1.39997
1.39997
1.39997
1.39997
1.39997
1.39997
1.39997
1.40005
1.76738
4.26528
4.94089
4.86235
4.78986
4.71001
4.62107
4.51402
4.38833
4.24812
4.09751
3.93098
3.7585
1.39997
1.39997
1.39997
1.39997
1.39997
1.39997
1.39997
1.39997
1.39997
1.39997
1.39997
1.39997
1.39997
1.39997
1.39997
1.39997
1.39997
1.39997
1.39997
1.39997
1.39997
1.39997
1.39997
1.39997
1.39997
1.39997
1.39997
1.41193
2.59073
4.71873
4.83751
4.75599
4.68038
4.59118
4.49548
4.38725
4.26453
4.13045
3.98364
3.82808
1.39997
1.39997
1.39997
1.39997
1.39997
1.39997
1.39997
1.39997
1.39997
1.39997
1.39997
1.39997
1.39997
1.39997
1.39997
1.39997
1.39997
1.39997
1.39997
1.39997
1.39997
1.39997
1.39997
1.39997
1.39997
1.39997
1.39997
1.40001
1.5364
3.55466
4.80443
4.76689
4.6801
4.58081
4.48384
4.37968
4.26341
4.13735
4.00678
3.87164
1.39997
1.39997
1.39997
1.39997
1.39997
1.39997
1.39997
1.39997
1.39997
1.39997
1.39997
1.39997
1.39997
1.39997
1.39997
1.39997
1.39997
1.39997
1.39997
1.39997
1.39997
1.39997
1.39997
1.39997
1.39997
1.39997
1.39997
1.39997
1.40165
1.89534
4.11914
4.79049
4.69204
4.59226
4.48872
4.37717
4.25921
4.1359
4.01253
3.88491
1.39997
1.39997
1.39997
1.39997
1.39997
1.39997
1.39997
1.39997
1.39997
1.39997
1.39997
1.39997
1.39997
1.39997
1.39997
1.39997
1.39997
1.39997
1.39997
1.39997
1.39997
1.39997
1.39997
1.39997
1.39997
1.39997
1.39997
1.39997
1.39997
1.42183
2.36264
4.46804
4.73427
4.627
4.52026
4.39804
4.2747
4.14893
4.02578
3.89837
1.39997
1.39997
1.39997
1.39997
1.39997
1.39997
1.39997
1.39997
1.39997
1.39997
1.39997
1.39997
1.39997
1.39997
1.39997
1.39997
1.39997
1.39997
1.39997
1.39997
1.39997
1.39997
1.39997
1.39997
1.39997
1.39997
1.39997
1.39997
1.39997
1.4001
1.48515
2.92006
4.60825
4.67957
4.56061
4.44757
4.32251
4.19218
4.06405
3.93405
1.39997
1.39997
1.39997
1.39997
1.39997
1.39997
1.39997
1.39997
1.39997
1.39997
1.39997
1.39997
1.39997
1.39997
1.39997
1.39997
1.39997
1.39997
1.39997
1.39997
1.39997
1.39997
1.39997
1.39997
1.39997
1.39997
1.39997
1.39997
1.39997
1.39997
1.40092
1.62481
3.44117
4.62777
4.59737
4.49056
4.37632
4.25162
4.12188
3.98782
1.39997
1.39997
1.39997
1.39997
1.39997
1.39997
1.39997
1.39997
1.39997
1.39997
1.39997
1.39997
1.39997
1.39997
1.39997
1.39997
1.39997
1.39997
1.39997
1.39997
1.39997
1.39997
1.39997
1.39997
1.39997
1.39997
1.39997
1.39997
1.39997
1.39997
1.39997
1.40479
1.84744
3.76096
4.59431
4.54504
4.42669
4.31101
4.19082
4.06275
1.39997
1.39997
1.39997
1.39997
1.39997
1.39997
1.39997
1.39997
1.39997
1.39997
1.39997
1.39997
1.39997
1.39997
1.39997
1.39997
1.39997
1.39997
1.39997
1.39997
1.39997
1.39997
1.39997
1.39997
1.39997
1.39997
1.39997
1.39997
1.39997
1.39997
1.39997
1.39999
1.41781
2.0737
3.96475
4.53631
4.47688
4.35897
4.24831
4.1338
1.39997
1.39997
1.39997
1.39997
1.39997
1.39997
1.39997
1.39997
1.39997
1.39997
1.39997
1.39997
1.39997
1.39997
1.39997
1.39997
1.39997
1.39997
1.39997
1.39997
1.39997
1.39997
1.39997
1.39997
1.39997
1.39997
1.39997
1.39997
1.39997
1.39997
1.39997
1.39997
1.40008
1.44032
2.28661
4.06315
4.48261
4.41753
4.30237
4.19268
1.39997
1.39997
1.39997
1.39997
1.39997
1.39997
1.39997
1.39997
1.39997
1.39997
1.39997
1.39997
1.39997
1.39997
1.39997
1.39997
1.39997
1.39997
1.39997
1.39997
1.39997
1.39997
1.39997
1.39997
1.39997
1.39997
1.39997
1.39997
1.39997
1.39997
1.39997
1.39997
1.39997
1.40033
1.4715
2.45009
4.10836
4.42699
4.36156
4.24929
1.39997
1.39997
1.39997
1.39997
1.39997
1.39997
1.39997
1.39997
1.39997
1.39997
1.39997
1.39997
1.39997
1.39997
1.39997
1.39997
1.39997
1.39997
1.39997
1.39997
1.39997
1.39997
1.39997
1.39997
1.39997
1.39997
1.39997
1.39997
1.39997
1.39997
1.39997
1.39997
1.39997
1.39997
1.40083
1.50337
2.56522
4.10495
4.37219
4.31692
1.39997
1.39997
1.39997
1.39997
1.39997
1.39997
1.39997
1.39997
1.39997
1.39997
1.39997
1.39997
1.39997
1.39997
1.39997
1.39997
1.39997
1.39997
1.39997
1.39997
1.39997
1.39997
1.39997
1.39997
1.39997
1.39997
1.39997
1.39997
1.39997
1.39997
1.39997
1.39997
1.39997
1.39997
1.39997
1.40151
1.53064
2.61882
4.06778
4.32663
1.39997
1.39997
1.39997
1.39997
1.39997
1.39997
1.39997
1.39997
1.39997
1.39997
1.39997
1.39997
1.39997
1.39997
1.39997
1.39997
1.39997
1.39997
1.39997
1.39997
1.39997
1.39997
1.39997
1.39997
1.39997
1.39997
1.39997
1.39997
1.39997
1.39997
1.39997
1.39997
1.39997
1.39997
1.39997
1.39997
1.40222
1.54638
2.6185
4.02961
1.39997
1.39997
1.39997
1.39997
1.39997
1.39997
1.39997
1.39997
1.39997
1.39997
1.39997
1.39997
1.39997
1.39997
1.39997
1.39997
1.39997
1.39997
1.39997
1.39997
1.39997
1.39997
1.39997
1.39997
1.39997
1.39997
1.39997
1.39997
1.39997
1.39997
1.39997
1.39997
1.39997
1.39997
1.39997
1.39997
1.39998
1.40289
1.54445
2.71458
1.39997
1.39997
1.39997
1.39997
1.39997
1.39997
1.39997
1.39997
1.39997
1.39997
1.39997
1.39997
1.39997
1.39997
1.39997
1.39997
1.39997
1.39997
1.39997
1.39997
1.39997
1.39997
1.39997
1.39997
1.39997
1.39997
1.39997
1.39997
1.39997
1.39997
1.39997
1.39997
1.39997
1.39997
1.39997
1.39997
1.39997
1.39998
1.40245
1.59146
1.39997
1.39997
1.39997
1.39997
1.39997
1.39997
1.39997
1.39997
1.39997
1.39997
1.39997
1.39997
1.39997
1.39997
1.39997
1.39997
1.39997
1.39997
1.39997
1.39997
1.39997
1.39997
1.39997
1.39997
1.39997
1.39997
1.39997
1.39997
1.39997
1.39997
1.39997
1.39997
1.39997
1.39997
1.39997
1.39997
1.39997
1.39997
1.39998
1.40375
1.39997
1.39997
1.39997
1.39997
1.39997
1.39997
1.39997
1.39997
1.39997
1.39997
1.39997
1.39997
1.39997
1.39997
1.39997
1.39997
1.39997
1.39997
1.39997
1.39997
1.39997
1.39997
1.39997
1.39997
1.39997
1.39997
1.39997
1.39997
1.39997
1.39997
1.39997
1.39997
1.39997
1.39997
1.39997
1.39997
1.39997
1.39997
1.39997
1.39997
1.39997
1.39997
1.39997
1.39997
1.39997
1.39997
1.39997
1.39997
1.39997
1.39997
1.39997
1.39997
1.39997
1.39997
1.39997
1.39997
1.39997
1.39997
1.39997
1.39997
1.39997
1.39997
1.39997
1.39997
1.39997
1.39997
1.39997
1.39997
1.39997
1.39997
1.39997
1.39997
1.39997
1.39997
1.39997
1.39997
1.39997
1.39997
1.39997
1.39997
1.39997
1.39997
1.39997
1.39997
1.39997
1.39997
1.39997
1.39997
1.39997
1.39997
1.39997
1.39997
1.39997
1.39997
1.39997
1.39997
1.39997
1.39997
1.39997
1.39997
1.39997
1.39997
1.39997
1.39997
1.39997
1.39997
1.39997
1.39997
1.39997
1.39997
1.39997
1.39997
1.39997
1.39997
1.39997
1.39997
1.39997
1.39997
1.39997
1.39997
1.39997
1.39997
1.39997
1.39997
1.39997
1.39997
1.39997
1.39997
1.39997
1.39997
1.39997
1.39997
1.39997
1.39997
1.39997
1.39997
1.39997
1.39997
1.39997
1.39997
1.39997
1.39997
1.39997
1.39997
1.39997
1.39997
1.39997
1.39997
1.39997
1.39997
1.39997
1.39997
1.39997
1.39997
1.39997
1.39997
1.39997
1.39997
1.39997
1.39997
1.39997
1.39997
1.39997
1.39997
1.39997
1.39997
1.39997
1.39997
1.39997
1.39997
1.39997
1.39997
1.39997
1.39997
1.39997
1.39997
1.39997
1.39997
1.39997
1.39997
1.39997
1.39997
1.39997
1.39997
1.39997
1.39997
1.39997
1.39997
1.39997
1.39997
1.39997
1.39997
1.39997
1.39997
1.39997
1.39997
1.39997
1.39997
1.39997
1.39997
1.39997
1.39997
1.39997
1.39997
1.39997
1.39997
1.39997
1.39997
1.39997
1.39997
1.39997
1.39997
1.39997
1.39997
1.39997
1.39997
1.39997
1.39997
1.39997
1.39997
1.39997
1.39997
1.39997
1.39997
1.39997
1.39997
1.39997
1.39997
1.39997
1.39997
1.39997
1.39997
1.39997
1.39997
1.39997
1.39997
1.39997
1.39997
1.39997
1.39997
1.39997
1.39997
1.39997
1.39997
1.39997
1.39997
1.39997
1.39997
1.39997
1.39997
1.39997
1.39997
1.39997
1.39997
1.39997
1.39997
1.39997
1.39997
1.39997
1.39997
1.39997
1.39997
1.39997
1.39997
1.39997
1.39997
1.39997
1.39997
1.39997
1.39997
1.39997
1.39997
1.39997
1.39997
1.39997
1.39997
1.39997
1.39997
1.39997
1.39997
1.39997
1.39997
1.39997
1.39997
1.39997
1.39997
1.39997
1.39997
1.39997
1.39997
1.39997
1.39997
1.39997
1.39997
1.39997
1.39997
1.39997
1.39997
1.39997
1.39997
1.39997
1.39997
1.39997
1.39997
1.39997
1.39997
1.39997
1.39997
1.39997
1.39997
1.39997
1.39997
1.39997
1.39997
1.39997
1.39997
1.39997
1.39997
1.39997
1.39997
1.39997
1.39997
1.39997
1.39997
1.39997
1.39997
1.39997
1.39997
1.39997
1.39997
1.39997
1.39997
1.39997
1.39997
1.39997
1.39997
1.39997
1.39997
1.39997
1.39997
1.39997
1.39997
1.39997
1.39997
1.39997
1.39997
1.39997
1.39997
1.39997
1.39997
1.39997
1.39997
1.39997
1.39997
1.39997
1.39997
1.39997
1.39997
1.39997
1.39997
1.39997
1.39997
1.39997
1.39997
1.39997
1.39997
1.39997
1.39997
1.39997
1.39997
1.39997
1.39997
1.39997
1.39997
1.39997
1.39997
1.39997
1.39997
1.39997
1.39997
1.39997
1.39997
1.39997
1.39997
1.39997
1.39997
1.39997
1.39997
1.39997
1.39997
1.39997
1.39997
1.39997
1.39997
1.39997
1.39997
1.39997
1.39997
1.39997
1.39997
1.39997
1.39997
1.39997
1.39997
1.39997
1.39997
1.39997
1.39997
1.39997
1.39997
1.39997
1.39997
1.39997
1.39997
1.39997
1.39997
1.39997
1.39997
1.39997
1.39997
1.39997
1.39997
1.39997
1.39997
1.39997
1.39997
1.39997
1.39997
1.39997
1.39997
1.39997
1.39997
1.39997
1.39997
1.39997
1.39997
1.39997
1.39997
1.39997
1.39997
1.39997
1.39997
1.39997
1.39997
1.39997
1.39997
1.39997
1.39997
1.39997
1.39997
1.39997
1.39997
1.39997
1.39997
1.39997
1.39997
1.39997
1.39997
1.39997
1.39997
1.39997
1.39997
1.39997
1.39997
1.39997
1.39997
1.39997
1.39997
1.39997
1.39997
1.39997
1.39997
1.39997
1.39997
1.39997
1.39997
1.39997
1.39997
1.39997
1.39997
0.852214
0.375132
0.481053
0.60762
0.709921
0.752915
0.806408
0.867618
0.894014
0.907781
0.914974
0.922299
0.937251
0.950702
0.951034
0.94292
0.925641
0.90271
0.881911
0.863784
0.855764
0.923114
1.38334
2.07623
2.41647
2.3639
2.27116
2.1924
2.11222
2.04197
1.96959
1.90864
1.85795
1.81148
1.76089
1.7059
1.65041
1.59274
1.54305
1.46696
1.56453
0.678441
0.569769
0.620029
0.724895
0.801881
0.844092
0.885557
0.903818
0.912266
0.92042
0.930661
0.94221
0.951241
0.950098
0.941115
0.924872
0.907008
0.886449
0.865879
0.875821
1.06131
1.41716
1.84521
2.22231
2.34131
2.33369
2.25644
2.16882
2.08964
2.01699
1.9457
1.88269
1.83226
1.78337
1.73032
1.67383
1.61382
1.56201
1.48411
1.96937
1.03224
0.645444
0.678671
0.778687
0.882751
0.939838
0.970506
0.979152
0.97563
0.978397
0.986212
0.995827
1.00197
0.999243
0.986173
0.964715
0.943672
0.919071
0.909451
0.984606
1.30821
1.55195
1.65684
2.03841
2.3694
2.46896
2.41552
2.31789
2.1989
2.10056
2.01943
1.95649
1.90825
1.85369
1.79081
1.72388
1.6564
1.59862
1.51714
2.27108
1.37814
0.895531
0.780756
0.824933
0.908324
0.980189
1.02035
1.04337
1.02782
1.02323
1.03466
1.05101
1.05676
1.05119
1.03438
1.01429
0.993128
0.972432
0.984735
1.20239
1.54075
1.71174
1.70531
1.7818
2.13054
2.40452
2.46496
2.4503
2.34943
2.2234
2.12868
2.05118
1.98953
1.93577
1.87657
1.81351
1.74436
1.68126
1.58985
2.56061
1.67122
1.17412
0.883434
0.878632
0.903535
0.962895
1.01215
1.04894
1.05611
1.05798
1.06943
1.08857
1.09436
1.08766
1.07112
1.05094
1.03175
1.02472
1.10668
1.48162
1.75194
1.77124
1.7357
1.69809
1.76758
2.07214
2.37307
2.45105
2.39848
2.33434
2.24677
2.14066
2.04711
1.98766
1.94191
1.89268
1.83203
1.76822
1.66816
2.80992
1.93653
1.41151
1.06502
0.957726
0.908319
0.928002
0.972268
1.02459
1.05743
1.08215
1.10932
1.13133
1.13596
1.12765
1.11327
1.09133
1.07002
1.08558
1.33635
1.71874
1.85831
1.82929
1.77317
1.70594
1.65932
1.71966
2.00251
2.2912
2.38117
2.34955
2.30614
2.21609
2.10937
2.02782
1.97646
1.93286
1.88281
1.828
1.72977
2.97492
2.17055
1.59826
1.25475
1.04596
0.953255
0.925006
0.934903
0.972006
1.03451
1.08325
1.13766
1.16325
1.16237
1.14989
1.12734
1.10342
1.10013
1.20317
1.64514
1.88465
1.88282
1.84783
1.77746
1.70794
1.64176
1.60365
1.65131
1.88834
2.19463
2.31281
2.28878
2.24767
2.1705
2.07975
1.99778
1.93668
1.89274
1.85147
1.76668
3.03988
2.34763
1.74859
1.41869
1.17835
1.06217
0.946646
0.941181
0.946997
0.998952
1.06881
1.13632
1.16438
1.16279
1.15075
1.12457
1.10352
1.12676
1.44097
1.85825
1.93404
1.90221
1.84215
1.77091
1.70014
1.6355
1.58549
1.5505
1.57665
1.78739
2.08537
2.22603
2.22052
2.19016
2.12851
2.03595
1.95127
1.89552
1.85172
1.77906
3.0932
2.45841
1.91145
1.56218
1.31498
1.14933
0.997158
0.957711
0.955506
0.979462
1.04259
1.12267
1.15151
1.14884
1.13944
1.11118
1.09547
1.21731
1.71662
1.95808
1.9476
1.90686
1.83898
1.76636
1.69312
1.63212
1.57833
1.53607
1.50894
1.5231
1.68624
1.96769
2.14205
2.16132
2.13198
2.07088
1.98093
1.91089
1.85931
1.78539
3.15
2.5515
2.06349
1.69823
1.44633
1.26278
1.09228
1.00082
0.964255
0.970687
1.00754
1.07844
1.12996
1.12977
1.11939
1.08931
1.10624
1.45105
1.88968
1.99424
1.96788
1.91017
1.8384
1.76633
1.69274
1.6331
1.58267
1.53681
1.49831
1.47682
1.47885
1.59181
1.85479
2.04701
2.09342
2.06754
2.01152
1.93897
1.87948
1.79811
3.21415
2.64955
2.20228
1.82285
1.56892
1.36218
1.18694
1.06075
0.986994
0.988324
0.987724
1.01021
1.06362
1.0973
1.08828
1.07406
1.19695
1.74546
1.9826
2.0147
1.97824
1.91494
1.84282
1.77095
1.69907
1.63946
1.5917
1.54789
1.50489
1.46967
1.44455
1.42643
1.49468
1.71909
1.95451
2.03802
1.99344
1.95756
1.90207
1.81406
3.30268
2.75547
2.32547
1.94361
1.68772
1.45471
1.27606
1.1424
1.05199
1.01394
0.977159
0.967591
0.989176
1.03755
1.04833
1.07846
1.433
1.94688
2.04907
2.02878
1.97753
1.91576
1.8469
1.77623
1.70761
1.65015
1.6029
1.55536
1.51299
1.47583
1.43433
1.40037
1.37575
1.41749