/*--------------------------------*- C++ -*----------------------------------*\
  =========                 |
  \\      /  F ield         | OpenFOAM: The Open Source CFD Toolbox
   \\    /   O peration     | Website:  https://openfoam.org
    \\  /    A nd           | Version:  6.0
     \\/     M anipulation  |
\*---------------------------------------------------------------------------*/
FoamFile
{
    version     2.0;
    format      ascii;
    class       volScalarField;
    location    "1.50049";
    object      T;
}
// * * * * * * * * * * * * * * * * * * * * * * * * * * * * * * * * * * * * * //

dimensions      [0 0 0 1 0 0 0];

internalField   nonuniform List<scalar> 
4800
(
1
1
1
1
1
1
1
1
1
1
1
1
1
1
1
1
1
1
1
1
1
1.86306
2.66015
2.74194
2.78047
2.79481
2.77885
2.74035
2.71663
2.74992
2.82012
2.85838
2.83749
2.76863
2.73005
2.79524
2.93605
3.0005
2.9686
2.91926
1
1
1
1
1
1
1
1
1
1
1
1
1
1
1
1
1
1
1
1
1
1.87378
2.67535
2.74393
2.75393
2.77369
2.77905
2.77892
2.78125
2.77934
2.77868
2.77853
2.79072
2.80646
2.81945
2.8357
2.8482
2.85725
2.85955
2.86911
1
1
1
1
1
1
1
1
1
1
1
1
1
1
1
1
1
1
1
1
1
1.88167
2.68895
2.74697
2.74113
2.74217
2.76827
2.80962
2.83654
2.81402
2.75323
2.71526
2.73353
2.81336
2.88434
2.88105
2.79111
2.73682
2.77925
2.83725
1
1
1
1
1
1
1
1
1
1
1
1
1
1
1
1
1
1
1
1
1
1.87544
2.68929
2.75118
2.74118
2.73432
2.76122
2.81576
2.8366
2.8189
2.75861
2.71771
2.74087
2.82066
2.88416
2.87802
2.78657
2.72264
2.77079
2.8595
1
1
1
1
1
1
1
1
1
1
1
1
1
1
1
1
1
1
1
1
1
1.86181
2.67981
2.74613
2.74655
2.75187
2.77359
2.78892
2.79984
2.78866
2.78437
2.78441
2.80509
2.8273
2.83531
2.83073
2.83704
2.83797
2.86258
2.8874
1
1
1
1
1
1
1
1
1
1
1
1
1
1
1
1
1
1
1
1
1
1.84232
2.66516
2.73373
2.75722
2.78221
2.77941
2.76186
2.73876
2.75478
2.80601
2.85832
2.85968
2.82089
2.76913
2.78026
2.87517
2.95749
2.9474
2.90495
1
1
1
1
1
1
1
1
1
1
1
1
1
1
1
1
1
1
1
1
1
1.82229
2.65534
2.73015
2.77311
2.79059
2.78044
2.74343
2.71106
2.73577
2.80661
2.86657
2.87284
2.80526
2.7469
2.77465
2.88411
2.961
2.95007
2.87896
1
1
1
1
1
1
1
1
1
1
1
1
1
1
1
1
1
1
1
1
1
1.80737
2.65397
2.74172
2.76686
2.78211
2.77199
2.74158
2.73439
2.76743
2.8031
2.80788
2.78301
2.78632
2.80117
2.82313
2.8711
2.87782
2.85735
2.86978
1
1
1
1
1
1
1
1
1
1
1
1
1
1
1
1
1
1
1
1
1
1.80483
2.66412
2.75206
2.75525
2.75246
2.75208
2.76079
2.78007
2.78859
2.77527
2.72475
2.70143
2.76085
2.86129
2.88956
2.84503
2.80073
2.80568
2.87711
1
1
1
1
1
1
1
1
1
1
1
1
1
1
1
1
1
1
1
1
1
1.79687
2.67139
2.75164
2.7406
2.73006
2.73589
2.77874
2.81622
2.81217
2.74846
2.69193
2.70457
2.76931
2.86167
2.90561
2.84724
2.77647
2.81609
2.87061
1
1
1
1
1
1
1
1
1
1
1
1
1
1
1
1
1
1
1
1
1
1.77615
2.66237
2.73712
2.72127
2.72145
2.75016
2.80517
2.82811
2.79821
2.73491
2.73194
2.76737
2.81875
2.82769
2.83992
2.81994
2.83994
2.88049
2.92939
1
1
1
1
1
1
1
1
1
1
1
1
1
1
1
1
1
1
1
1
1
1.73754
2.64503
2.71467
2.71826
2.74383
2.79132
2.81213
2.80497
2.75974
2.75377
2.79199
2.847
2.85452
2.81763
2.73092
2.81256
2.90357
2.90872
2.89661
1
1
1
1
1
1
1
1
1
1
1
1
1
1
1
1
1
1
1
1
1
1.69535
2.61735
2.70155
2.73236
2.77774
2.79697
2.79596
2.7642
2.7383
2.76614
2.8274
2.86794
2.85892
2.74968
2.72458
2.78618
2.87865
2.88416
2.84417
1
1
1
1
1
1
1
1
1
1
1
1
1
1
1
1
1
1
1
1
1
1.65302
2.59602
2.71204
2.76198
2.78213
2.77802
2.75249
2.73155
2.7546
2.81111
2.82955
2.82209
2.76523
2.75501
2.75491
2.78846
2.82703
2.8208
2.77538
1
1
1
1
1
1
1
1
1
1
1
1
1
1
1
1
1
1
1
1
1
1.6213
2.59281
2.74357
2.76622
2.77176
2.75445
2.71057
2.71715
2.78478
2.82101
2.82107
2.73915
2.70583
2.7433
2.83204
2.85313
2.82114
2.77813
2.76855
1
1
1
1
1
1
1
1
1
1
1
1
1
1
1
1
1
1
1
1
1
1.61352
2.60783
2.74829
2.7609
2.76146
2.72158
2.7093
2.72631
2.78544
2.81813
2.78353
2.70056
2.71293
2.8242
2.88271
2.88762
2.8224
2.76473
2.76371
1
1
1
1
1
1
1
1
1
1
1
1
1
1
1
1
1
1
1
1
1
1.58592
2.61054
2.74435
2.74239
2.72243
2.72746
2.73945
2.78156
2.7835
2.77271
2.71184
2.7279
2.75928
2.85244
2.8766
2.87127
2.8157
2.79869
2.83217
1
1
1
1
1
1
1
1
1
1
1
1
1
1
1
1
1
1
1
1
1
1.55306
2.59292
2.73844
2.70848
2.70188
2.72361
2.7948
2.81975
2.79447
2.70249
2.67971
2.71858
2.82335
2.86163
2.88381
2.83785
2.85069
2.9188
2.94169
1
1
1
1
1
1
1
1
1
1
1
1
1
1
1
1
1
1
1
1
1
1.4998
2.5679
2.70787
2.694
2.69828
2.7573
2.80599
2.82032
2.77421
2.68831
2.67821
2.74174
2.83021
2.84028
2.7697
2.80095
2.86195
2.91987
2.95638
1
1
1
1
1
1
1
1
1
1
1
1
1
1
1
1
1
1
1
1
1
1.43034
2.52612
2.69632
2.69944
2.745
2.77265
2.77761
2.7807
2.73684
2.71867
2.74666
2.81911
2.81046
2.75896
2.72128
2.77385
2.87128
2.89385
2.86406
1
1
1
1
1
1
1
1
1
1
1
1
1
1
1
1
1
1
1
1
1
1.3616
2.48787
2.68123
2.7326
2.77347
2.76844
2.75271
2.70215
2.70746
2.7796
2.84923
2.84995
2.80169
2.68674
2.6765
2.74969
2.7986
2.75334
2.70279
1
1
1
1
1
1
1
1
1
1
1
1
1
1
1
1
1
1
1
1
1
1.30143
2.45983
2.70382
2.74552
2.77136
2.77389
2.71714
2.67282
2.70584
2.81223
2.85344
2.85613
2.77568
2.76342
2.77362
2.76949
2.74603
2.71439
2.68407
1
1
1
1
1
1
1
1
1
1
1
1
1
1
1
1
1
1
1
1
1
1.25764
2.45796
2.72158
2.7347
2.75152
2.73391
2.68496
2.6892
2.74812
2.79661
2.81618
2.76497
2.74836
2.82363
2.84508
2.78848
2.69381
2.65949
2.67498
1
1
1
1
1
1
1
1
1
1
1
1
1
1
1
1
1
1
1
1
1
1.20038
2.43197
2.71818
2.7129
2.71005
2.67665
2.68504
2.71167
2.78135
2.79219
2.75192
2.66182
2.69407
2.77298
2.83452
2.81803
2.72672
2.6919
2.73159
1
1
1
1
1
1
1
1
1
1
1
1
1
1
1
1
1
1
1
1
1
1.13962
2.41114
2.71415
2.69773
2.66019
2.64077
2.68073
2.7759
2.79393
2.77168
2.65345
2.65007
2.66428
2.70006
2.77227
2.83784
2.87444
2.91085
2.93016
1
1
1
1
1
1
1
1
1
1
1
1
1
1
1
1
1
1
1
1
1
1.09492
2.37172
2.69535
2.66366
2.64535
2.65769
2.74641
2.78032
2.77972
2.70399
2.65172
2.67025
2.69104
2.70196
2.74105
2.83191
2.915
2.95043
2.96097
1
1
1
1
1
1
1
1
1
1
1
1
1
1
1
1
1
1
1
1
1
1.05318
2.33289
2.67512
2.65916
2.6612
2.73806
2.76224
2.76795
2.75056
2.66847
2.64315
2.66901
2.73207
2.76751
2.78765
2.78427
2.85912
2.91366
2.92246
1
1
1
1
1
1
1
1
1
1
1
1
1
1
1
1
1
1
1
1
1
1.01034
2.29995
2.67167
2.66333
2.73206
2.76059
2.76938
2.77067
2.71116
2.67704
2.71549
2.82332
2.86574
2.87025
2.81286
2.71836
2.6874
2.67007
2.66013
1
1
1
1
1
1
1
1
1
1
1
1
1
1
1
1
1
1
1
1
1
1.00149
2.27227
2.67546
2.71404
2.74059
2.75703
2.76702
2.72969
2.69637
2.73972
2.82861
2.86167
2.86906
2.85286
2.78644
2.7083
2.64312
2.60308
2.59105
1
1
1
1
1
1
1
1
1
1
1
1
1
1
1
1
1
1
1
1
1
1.00005
2.25311
2.70679
2.72951
2.73796
2.74094
2.73051
2.65653
2.68348
2.75574
2.8331
2.85805
2.86748
2.80209
2.72427
2.69464
2.64021
2.59785
2.57314
1
1
1
1
1
1
1
1
1
1
1
1
1
1
1
1
1
1
1
1
1
0.999999
2.20991
2.71452
2.73165
2.73851
2.7356
2.6588
2.6386
2.66681
2.7503
2.81464
2.81428
2.66028
2.66362
2.68935
2.66659
2.60591
2.57903
2.57743
1
1
1
1
1
1
1
1
1
1
1
1
1
1
1
1
1
1
1
1
1
0.999999
2.14791
2.70648
2.73158
2.73709
2.68038
2.64141
2.6462
2.67971
2.74768
2.75748
2.62487
2.60216
2.6217
2.67328
2.66344
2.56584
2.60331
2.74069
1
1
1
1
1
1
1
1
1
1
1
1
1
1
1
1
1
1
1
1
1
0.999999
2.08276
2.69022
2.70699
2.68067
2.66582
2.65865
2.71381
2.77361
2.74843
2.67625
2.59592
2.57901
2.5803
2.65383
2.70453
2.8446
2.88951
2.89557
1
1
1
1
1
1
1
1
1
1
1
1
1
1
1
1
1
1
1
1
1
1
2.00987
2.66142
2.67241
2.66081
2.6621
2.72823
2.78358
2.78226
2.7473
2.6556
2.58676
2.56411
2.56713
2.617
2.86512
2.93047
2.91526
2.88038
1
1
1
1
1
1
1
1
1
1
1
1
1
1
1
1
1
1
1
1
1
1
1.93179
2.62961
2.66034
2.65938
2.69906
2.76844
2.78309
2.7814
2.74055
2.6407
2.58463
2.57622
2.61526
2.80151
2.8445
2.90097
2.84626
2.80251
1
1
1
1
1
1
1
1
1
1
1
1
1
1
1
1
1
1
1
1
1
1
1.83825
2.60127
2.65403
2.69198
2.74344
2.76048
2.77374
2.7778
2.71984
2.62719
2.62335
2.78254
2.8659
2.82499
2.78719
2.56668
2.51431
2.55039
1
1
1
1
1
1
1
1
1
1
1
1
1
1
1
1
1
1
1
1
1
1
1.75956
2.57162
2.69691
2.73445
2.7444
2.75224
2.7618
2.73244
2.67443
2.68439
2.81841
2.8649
2.86585
2.80827
2.52871
2.44188
2.45609
2.48899
1
1
1
1
1
1
1
1
1
1
1
1
1
1
1
1
1
1
1
1
1
1
1.69427
2.57106
2.70889
2.72565
2.73313
2.74337
2.69695
2.63581
2.65778
2.74264
2.83186
2.85246
2.85095
2.67385
2.4665
2.41797
2.42877
2.44326
1
1
1
1
1
1
1
1
1
1
1
1
1
1
1
1
1
1
1
1
1
1
1.57622
2.53876
2.69623
2.70847
2.71215
2.68922
2.62182
2.62557
2.64714
2.75425
2.8152
2.83674
2.65969
2.52062
2.44522
2.38606
2.39445
2.39937
1
1
1
1
1
1
1
1
1
1
1
1
1
1
1
1
1
1
1
1
1
1
1.41025
2.48824
2.68062
2.68087
2.68225
2.62282
2.60213
2.6248
2.71301
2.75192
2.75644
2.55465
2.51933
2.53125
2.46297
2.39907
2.39087
2.39774
1
1
1
1
1
1
1
1
1
1
1
1
1
1
1
1
1
1
1
1
1
1
1.09745
2.34873
2.64659
2.63703
2.63805
2.66167
2.69358
2.71319
2.71671
2.69702
2.63981
2.61912
2.63804
2.67791
2.72829
2.74643
2.69011
2.59746
1
1
1
1
1
1
1
1
1
1
1
1
1
1
1
1
1
1
1
1
1
1
1.00152
2.12037
2.60939
2.62939
2.64907
2.66288
2.67056
2.67178
2.66343
2.6516
2.66334
2.69519
2.69622
2.68044
2.66463
2.64222
2.58518
2.4828
1
1
1
1
1
1
1
1
1
1
1
1
1
1
1
1
1
1
1
1
1
1
1
1.66346
2.51335
2.6208
2.6353
2.63678
2.6361
2.63579
2.6409
2.65063
2.65451
2.65233
2.63998
2.61442
2.57823
2.53377
2.46412
2.35539
1
1
1
1
1
1
1
1
1
1
1
1
1
1
1
1
1
1
1
1
1
1
1
1.0852
2.31157
2.60579
2.61937
2.62184
2.62147
2.62291
2.62404
2.62404
2.61863
2.6075
2.59178
2.57314
2.55056
2.51748
2.43633
2.34015
1
1
1
1
1
1
1
1
1
1
1
1
1
1
1
1
1
1
1
1
1
1
1
1.00093
1.96556
2.5405
2.59687
2.60821
2.60906
2.60419
2.59528
2.58949
2.5861
2.58048
2.56911
2.55137
2.52403
2.47671
2.40041
2.31757
1
1
1
1
1
1
1
1
1
1
1
1
1
1
1
1
1
1
1
1
1
1
1
0.999998
1.33469
2.37452
2.56639
2.58201
2.58608
2.58012
2.57021
2.56245
2.55485
2.54685
2.53623
2.51856
2.49103
2.44411
2.37829
2.30992
1
1
1
1
1
1
1
1
1
1
1
1
1
1
1
1
1
1
1
1
1
1
1
1
1.01562
2.09475
2.5131
2.5538
2.55707
2.55366
2.54642
2.53661
2.52319
2.51061
2.49835
2.4826
2.45961
2.41995
2.36617
2.30686
1
1
1
1
1
1
1
1
1
1
1
1
1
1
1
1
1
1
1
1
1
1
1
1
1.00003
1.4412
2.35415
2.52099
2.52433
2.52759
2.52214
2.5116
2.49751
2.48276
2.46558
2.44754
2.42623
2.39463
2.35062
2.30062
1
1
1
1
1
1
1
1
1
1
1
1
1
1
1
1
1
1
1
1
1
1
1
1
1
1.02878
2.06792
2.47026
2.49798
2.50116
2.49686
2.4879
2.47481
2.45868
2.43857
2.41683
2.39348
2.36642
2.33078
2.28808
1
1
1
1
1
1
1
1
1
1
1
1
1
1
1
1
1
1
1
1
1
1
1
1
1
1.00009
1.35246
2.29268
2.47095
2.467
2.47007
2.465
2.45449
2.43841
2.4175
2.39409
2.36827
2.3411
2.30877
2.27429
1
1
1
1
1
1
1
1
1
1
1
1
1
1
1
1
1
1
1
1
1
1
1
1
1
1
1.01703
1.94188
2.40574
2.44364
2.43941
2.43691
2.43008
2.41854
2.40051
2.37764
2.35138
2.32421
2.29379
2.26288
1
1
1
1
1
1
1
1
1
1
1
1
1
1
1
1
1
1
1
1
1
1
1
1
1
1
1.00004
1.21959
2.18189
2.41534
2.40968
2.40785
2.40307
2.39461
2.38148
2.36295
2.34034
2.31481
2.28519
2.2546
1
1
1
1
1
1
1
1
1
1
1
1
1
1
1
1
1
1
1
1
1
1
1
1
1
1
1
1.00608
1.6243
2.28293
2.38069
2.37277
2.36973
2.36296
2.35338
2.34053
2.32331
2.30191
2.2766
2.2493
1
1
1
1
1
1
1
1
1
1
1
1
1
1
1
1
1
1
1
1
1
1
1
1
1
1
1
1.00001
1.07478
1.97204
2.33894
2.35033
2.34377
2.33479
2.32561
2.31442
2.29986
2.28212
2.26204
2.24014
1
1
1
1
1
1
1
1
1
1
1
1
1
1
1
1
1
1
1
1
1
1
1
1
1
1
1
1
1.00076
1.28397
2.10274
2.32358
2.31494
2.30846
2.30004
2.28859
2.27489
2.25933
2.24277
2.22434
1
1
1
1
1
1
1
1
1
1
1
1
1
1
1
1
1
1
1
1
1
1
1
1
1
1
1
1
1
1.01085
1.49744
2.16461
2.2924
2.28128
2.27493
2.26473
2.25261
2.23881
2.22416
2.20741
1
1
1
1
1
1
1
1
1
1
1
1
1
1
1
1
1
1
1
1
1
1
1
1
1
1
1
1
1
1.00005
1.044
1.7103
2.19388
2.26767
2.25189
2.24334
2.23278
2.22058
2.2075
2.1927
1
1
1
1
1
1
1
1
1
1
1
1
1
1
1
1
1
1
1
1
1
1
1
1
1
1
1
1
1
1
1.00037
1.12303
1.8731
2.20845
2.2353
2.2252
2.21539
2.20422
2.19156
2.17714
1
1
1
1
1
1
1
1
1
1
1
1
1
1
1
1
1
1
1
1
1
1
1
1
1
1
1
1
1
1
1
1.00214
1.24592
1.94498
2.20261
2.20462
2.19562
2.18701
2.17668
2.16386
1
1
1
1
1
1
1
1
1
1
1
1
1
1
1
1
1
1
1
1
1
1
1
1
1
1
1
1
1
1
1
1.00001
1.00844
1.34965
1.99044
2.17648
2.17406
2.16456
2.15693
2.14773
1
1
1
1
1
1
1
1
1
1
1
1
1
1
1
1
1
1
1
1
1
1
1
1
1
1
1
1
1
1
1
1
1.00004
1.01948
1.43912
2.00476
2.14989
2.14546
2.13488
2.12689
1
1
1
1
1
1
1
1
1
1
1
1
1
1
1
1
1
1
1
1
1
1
1
1
1
1
1
1
1
1
1
1
1
1.00012
1.03529
1.49859
2.00439
2.12281
2.1171
2.10577
1
1
1
1
1
1
1
1
1
1
1
1
1
1
1
1
1
1
1
1
1
1
1
1
1
1
1
1
1
1
1
1
1
1
1.00031
1.05166
1.5343
1.9924
2.09571
2.09091
1
1
1
1
1
1
1
1
1
1
1
1
1
1
1
1
1
1
1
1
1
1
1
1
1
1
1
1
1
1
1
1
1
1
1
1.00058
1.06556
1.54673
1.97196
2.07067
1
1
1
1
1
1
1
1
1
1
1
1
1
1
1
1
1
1
1
1
1
1
1
1
1
1
1
1
1
1
1
1
1
1
1
1
1.00087
1.07341
1.53466
1.96333
1
1
1
1
1
1
1
1
1
1
1
1
1
1
1
1
1
1
1
1
1
1
1
1
1
1
1
1
1
1
1
1
1
1
1
1
1
1.00113
1.07085
1.6119
1
1
1
1
1
1
1
1
1
1
1
1
1
1
1
1
1
1
1
1
1
1
1
1
1
1
1
1
1
1
1
1
1
1
1
1
1
1
1.00098
1.10396
1
1
1
1
1
1
1
1
1
1
1
1
1
1
1
1
1
1
1
1
1
1
1
1
1
1
1
1
1
1
1
1
1
1
1
1
1
1
1
1.00168
1
1
1
1
1
1
1
1
1
1
1
1
1
1
1
1
1
1
1
1
1
1
1
1
1
1
1
1
1
1
1
1
1
1
1
1
1
1
1
1
1
1
1
1
1
1
1
1
1
1
1
1
1
1
1
1
1
1
1
1
1
1
1
1
1
1
1
1
1
1
1
1
1
1
1
1
1
1
1
1
1
1
1
1
1
1
1
1
1
1
1
1
1
1
1
1
1
1
1
1
1
1
1
1
1
1
1
1
1
1
1
1
1
1
1
1
1
1
1
1
1
1
1
1
1
1
1
1
1
1
1
1
1
1
1
1
1
1
1
1
1
1
1
1
1
1
1
1
1
1
1
1
1
1
1
1
1
1
1
1
1
1
1
1
1
1
1
1
1
1
1
1
1
1
1
1
1
1
1
1
1
1
1
1
1
1
1
1
1
1
1
1
1
1
1
1
1
1
1
1
1
1
1
1
1
1
1
1
1
1
1
1
1
1
1
1
1
1
1
1
1
1
1
1
1
1
1
1
1
1
1
1
1
1
1
1
1
1
1
1
1
1
1
1
1
1
1
1
1
1
1
1
1
1
1
1
1
1
1
1
1
1
1
1
1
1
1
1
1
1
1
1
1
1
1
1
1
1
1
1
1
1
1
1
1
1
1
1
1
1
1
1
1
1
1
1
1
1
1
1
1
1
1
1
1
1
1
1
1
1
1
1
1
1
1
1
1
1
1
1
1
1
1
1
1
1
1
1
1
1
1
1
1
1
1
1
1
1
1
1
1
1
1
1
1
1
1
1
1
1
1
1
1
1
1
1
1
1
1
1
1
1
1
1
1
1
1
1
1
1
1
1
1
1
1
1
1
1
1
1
1
1
1
1
1
1
1
1
1
1
1
1
1
1
1
1
1
1
1
1
1
1
1
1
1
1
1
1
1
1
1
1
1
1
1
1
1
1
1
1
1
1
1
1
1
1
1
1
1
1
1
1
1
1
1
1
1
1
1
1
1
1
1
1
1
1
1
1
1
1
1
1
1
1
1
1
1
1
1
1
1
1
1
1
1
1
1
1
1
1
1
1
1
1
1
1
1
1
1
1
1.71618
1.52528
1.6284
1.70722
1.7873
1.84012
1.88599
1.89797
1.89279
1.88113
1.8643
1.86013
1.86583
1.87344
1.87314
1.86663
1.85712
1.84766
1.84211
1.83773
1.83552
1.89791
2.23284
2.59464
2.7054
2.65814
2.58622
2.53873
2.49236
2.45011
2.40915
2.37673
2.35086
2.32847
2.30552
2.28064
2.25469
2.22736
2.20274
2.17133
2.01286
1.70951
1.58334
1.6167
1.69972
1.78344
1.83552
1.84021
1.83399
1.82336
1.8158
1.81761
1.8245
1.83247
1.83183
1.8262
1.81968
1.81627
1.81235
1.81086
1.82141
1.97063
2.14506
2.31685
2.46412
2.51613
2.50411
2.47161
2.43613
2.40062
2.36923
2.33936
2.31275
2.29157
2.27194
2.25112
2.22851
2.20369
2.18062
2.15097
2.01477
1.72156
1.50672
1.51653
1.5716
1.65914
1.7346
1.74004
1.73288
1.72673
1.72899
1.73643
1.74657
1.75722
1.75734
1.75333
1.74845
1.74706
1.74556
1.75245
1.81476
2.02198
2.01707
2.00286
2.14798
2.28352
2.34252
2.3486
2.3255
2.28831
2.26088
2.23893
2.22125
2.20648
2.18849
2.16893
2.14912
2.12847
2.10816
2.08257
2.02513
1.74261
1.55405
1.45974
1.47124
1.52314
1.58827
1.61005
1.61665
1.61118
1.61527
1.62878
1.6411
1.6511
1.65075
1.64885
1.64955
1.65085
1.65506
1.67238
1.81727
1.96552
1.94309
1.89367
1.90148
2.02971
2.13951
2.19116
2.21127
2.18694
2.15387
2.13199
2.11222
2.09433
2.07929
2.06484
2.05163
2.03603
2.01855
1.99407
2.05428
1.77851
1.59985
1.44769
1.42827
1.43691
1.47444
1.50245
1.52106
1.53416
1.54388
1.55316
1.56065
1.56626
1.56507
1.56484
1.56552
1.56701
1.57332
1.63269
1.84577
1.91369
1.89162
1.85041
1.81485
1.83689
1.95149
2.06172
2.10448
2.10073
2.09158
2.06868
2.03577
2.00466
1.98619
1.97607
1.96674
1.95385
1.93684
1.90976
2.09859
1.83376
1.6504
1.48872
1.42639
1.40028
1.40902
1.433
1.46064
1.48614
1.51001
1.52271
1.52761
1.52978
1.52732
1.52894
1.52757
1.52368
1.53812
1.68256
1.8705
1.89063
1.87081
1.84012
1.80267
1.77291
1.79657
1.90783
2.00614
2.04271
2.04115
2.03065
2.00114
1.96435
1.93539
1.91966
1.90875
1.89553
1.87885
1.84913
2.13314
1.89449
1.69807
1.55344
1.44797
1.39872
1.38524
1.39133
1.41276
1.45024
1.48271
1.50932
1.51437
1.51325
1.50825
1.50444
1.50224
1.5032
1.56201
1.7919
1.88854
1.87883
1.85772
1.82385
1.78904
1.75629
1.73549
1.75531
1.85196
1.96291
2.00054
1.99365
1.98022
1.95366
1.91951
1.89104
1.87054
1.85538
1.84064
1.81122
2.14402
1.94344
1.74151
1.61126
1.50136
1.44166
1.38129
1.38332
1.38955
1.41991
1.45776
1.48954
1.49611
1.49471
1.49093
1.48507
1.48269
1.49732
1.66576
1.86422
1.88816
1.87474
1.84764
1.81241
1.77641
1.7445
1.71873
1.69802
1.70566
1.79575
1.90814
1.95416
1.95051
1.93979
1.9173
1.88302
1.85287
1.83096
1.81283
1.78405
2.15226
1.97475
1.79456
1.66279
1.55847
1.4827
1.40041
1.38661
1.38853
1.40036
1.43281
1.46878
1.4769
1.47579
1.47549
1.47069
1.46849
1.5367
1.79342
1.89228
1.88532
1.86825
1.83931
1.80345
1.76484
1.73235
1.70379
1.67912
1.66068
1.65809
1.72921
1.84139
1.90326
1.9078
1.89954
1.87738
1.8445
1.81686
1.79458
1.76353
2.15899
1.99986
1.84431
1.71157
1.61151
1.53402
1.44937
1.40362
1.38748
1.3898
1.40473
1.43714
1.45915
1.46125
1.46167
1.45642
1.46842
1.66036
1.85921
1.89449
1.88488
1.863
1.8315
1.79453
1.75486
1.72118
1.69206
1.66477
1.64011
1.62169
1.60967
1.65924
1.76911
1.83702
1.85715
1.852
1.83278
1.80512
1.78016
1.74615
2.16191
2.02201
1.8869
1.75515
1.65913
1.57479
1.49409
1.43105
1.39443
1.39137
1.38235
1.39323
1.42105
1.43918
1.44405
1.44331
1.51268
1.80108
1.88742
1.89389
1.8822
1.85693
1.82268
1.78425
1.7444
1.70946
1.67979
1.6518
1.6238
1.59915
1.57686
1.55595
1.58477
1.67902
1.77011
1.80563
1.79382
1.7822
1.76185
1.72588
2.16581
2.04097
1.92027
1.79451
1.702
1.60999
1.53093
1.46727
1.41994
1.39623
1.36907
1.36307
1.37658
1.40506
1.4184
1.43926
1.63718
1.87601
1.9013
1.89452
1.87225
1.84331
1.80879
1.77055
1.73139
1.69668
1.66623
1.63538
1.60663
1.58008
1.55159
1.52572
1.50362
1.51808
1.59837
1.69962
1.73508
1.73461
1.73024
1.70655
2.1716
2.05715
1.94617
1.82801
1.73506
1.64036
1.56287
1.49673
1.44773
1.40702
1.36661
1.35555
1.35604
1.37089
1.39251
1.48064
1.77952
1.90365
1.90215
1.88287
1.85183
1.81932
1.78514
1.74987
1.71569
1.68366
1.65269
1.62016
1.58654
1.55454
1.52764
1.5025
1.48206
1.46621
1.46795
1.52036
1.61551
1.67015
1.68551
1.67548
2.1737
2.06886
1.96598
1.85315
1.76116
1.66686
1.59227
1.52317
1.47929
1.4295
1.37806
1.35568
1.35041
1.35505
1.38761
1.59131
1.8782
1.91097
1.89266
1.85783
1.82455
1.79034
1.75722
1.72668
1.69553
1.66544
1.63586
1.60421
1.56664
1.5309
1.50618
1.48414
1.46377
1.44716
1.43148
1.41661
1.44856
1.52199
1.59439
1.63521
2.16815
2.072
1.97601
1.87154
1.77747
1.68916
1.62006
1.55245
1.50625
1.44592
1.39728
1.36272
1.34849
1.35189
1.41667
1.71713
1.90518
1.89498
1.86395
1.82361
1.79085
1.75663
1.72746
1.70335
1.67661
1.6487
1.61999
1.58776
1.54751
1.51052
1.4892
1.47175
1.45267
1.43452
1.41247
1.39077
1.37519
1.3864
1.43766
1.55267
2.15582
2.06972
1.97659
1.88268
1.78918
1.71097
1.64166
1.58002
1.52979
1.46667
1.4258
1.37376
1.35248
1.36038
1.51182
1.78857
1.86184
1.85609
1.8237
1.78522
1.75819
1.72822
1.70076
1.68274
1.66358
1.63424
1.60155
1.56753
1.52916
1.49728
1.47612
1.45395
1.43207
1.41364
1.39391
1.37287
1.35654
1.34134
1.33649
1.41316
2.14248
2.06321
1.97439
1.88879
1.79931
1.73185
1.66076
1.6034
1.5484
1.48873
1.44657
1.39014
1.36143
1.38796
1.65276
1.82079
1.81535
1.8024
1.77595
1.74729
1.72898
1.70347
1.68079
1.66298
1.64101
1.60922
1.5766
1.54467
1.51189
1.48723
1.46483
1.43911
1.41629
1.39758
1.37725
1.35799
1.34214
1.32485
1.30957
1.30394
2.12876
2.0545
1.97079
1.89246
1.81198
1.74929
1.67788
1.62321
1.56217
1.51206
1.46575
1.41078
1.37896
1.46937
1.77062
1.81121
1.78813
1.75948
1.73275
1.71067
1.69973
1.68236
1.66089
1.63789
1.60907
1.5768
1.547
1.52082
1.49529
1.47531
1.45343
1.42667
1.40276
1.38326
1.36231
1.34411
1.32831
1.311
1.29468
1.2721
2.11862
2.04644
1.9696
1.89615
1.82823
1.7642
1.69485
1.63913
1.57384
1.53317
1.47985
1.43108
1.41183
1.62303
1.83013
1.81204
1.77379
1.73461
1.70171
1.67651
1.66446
1.6504
1.62817
1.60524
1.57825
1.54383
1.51713
1.49903
1.48057
1.46294
1.44175
1.41578
1.39233
1.37156
1.34877
1.3318
1.31532
1.29839
1.28218
1.25599
2.10912
2.04045
1.97103
1.90288
1.84458
1.77606
1.70991
1.65003
1.58979
1.55079
1.48841
1.44997
1.4886
1.77762
1.84953
1.81609
1.76555
1.71872
1.67843
1.6415
1.6194
1.60445
1.58588
1.57066
1.54659
1.51341
1.49119
1.47948
1.46864
1.45247
1.43042
1.40583
1.38448
1.3631
1.33731
1.31582
1.29611
1.27964
1.26631
1.24012
2.09661
2.0354
1.9746
1.91196
1.8573
1.78509
1.72273
1.65515
1.608
1.56183
1.49999
1.47623
1.63412
1.87479
1.85606
1.81174
1.75696
1.70376
1.6571
1.61846
1.58999
1.56148
1.53866
1.52819
1.51329
1.48794
1.47336
1.46458
1.45179
1.43634
1.41827
1.39663
1.37555
1.34871
1.32234
1.2995
1.27768
1.26183
1.24978
1.22405
2.08025
2.03014
1.97774
1.91985
1.86007
1.78857
1.72879
1.66155
1.62464
1.5666
1.51686
1.52882
1.81116
1.91159
1.87137
1.81242
1.75212
1.69364
1.64085
1.5994
1.56809
1.54006
1.51086
1.49276
1.48385
1.46633
1.45892
1.45548
1.4388
1.41691
1.39736
1.38044
1.35868
1.33109
1.306
1.28239
1.25919
1.24378
1.23235
1.20687
2.06303
2.02381
1.97713
1.92232
1.85709
1.79186
1.72859
1.67227
1.63388
1.5705
1.53784
1.65359
1.93004
1.91811
1.8751
1.81292
1.7483
1.68902
1.63442
1.59036
1.55532
1.52421
1.4956
1.4729
1.45779
1.44336
1.43795
1.43409
1.41615
1.39615
1.3775
1.35818
1.33513
1.31123
1.28916
1.26516
1.24211
1.22794
1.21539
1.18797
2.05207
2.01623
1.97082
1.91653
1.84808
1.79144
1.72687
1.68461
1.63568
1.58007
1.57444
1.83762
1.97939
1.93564
1.87288
1.80667
1.74139
1.68154
1.62905
1.58626
1.54889
1.5139
1.48431
1.45993
1.43724
1.4162
1.40662
1.39931
1.38188
1.36809
1.35303
1.33464
1.31071
1.29032
1.27208
1.24875
1.22806
1.21518
1.20107
1.17101
2.04205
2.00571
1.95602
1.901
1.83651
1.78678
1.72931
1.69348
1.6323
1.5957
1.67763
1.97429
1.9876
1.94116
1.87263
1.80482
1.74208
1.68374
1.63079
1.58561
1.54594
1.50841
1.47599
1.45017
1.42262
1.39543
1.37221
1.35733
1.34281
1.33133
1.32386
1.30796
1.28802
1.27191
1.25612
1.23362
1.21372
1.19769
1.17957
1.14873
2.02831
1.99922
1.9343
1.87722
1.82701
1.77924
1.73485
1.69412
1.635
1.61974
1.86063
2.04275
1.99249
1.92771
1.86063
1.79662
1.73738
1.68258
1.63289
1.58812
1.54717
1.50871
1.47384
1.44215
1.41038
1.37946
1.35306
1.33014
1.30971
1.29477
1.29085
1.27857
1.26684
1.25808
1.24418
1.22105
1.19878
1.17988
1.16017
1.13016
2.00158
1.97732
1.91676
1.85723
1.82233
1.77328
1.74077
1.68747
1.646
1.70084
2.01733
2.0485
1.99244
1.92085
1.85549
1.79511
1.73845
1.68549
1.63703
1.59083
1.54649
1.50474
1.46868
1.4356
1.4009
1.36595
1.33606
1.3108
1.28777
1.26761
1.25709
1.24682
1.23911
1.2348
1.22064
1.1957
1.1739
1.15647
1.13954
1.11246
1.87069
1.9804
1.9275
1.86469
1.82065
1.77227
1.73891
1.67942
1.66571
1.87961
2.09939
2.04816
1.98029
1.91283
1.85037
1.7916
1.73645
1.68557
1.63873
1.59379
1.54958
1.5069
1.46714
1.4302
1.39311
1.35639
1.32537
1.29584
1.26809
1.24568
1.22788
1.21502
1.20713
1.20534
1.19324
1.16822
1.14955
1.13534
1.12
1.09572
1.68357
1.9801
1.94912
1.88473
1.82441
1.77677
1.73063
1.68668
1.7224
2.05948
2.10838
2.0463
1.97512
1.90948
1.84725
1.78849
1.73393
1.68359
1.63677
1.59183
1.54776
1.50487
1.46397
1.4237
1.38355
1.34655
1.31462
1.28305
1.25236
1.22728
1.20593
1.18523
1.17104
1.16727
1.15581
1.13465
1.12376
1.1148
1.10174
1.08101
1.32269
1.92243
1.9532
1.90599
1.83215
1.78522
1.72308
1.70187
1.88928
2.15599
2.1115
2.04008
1.97134
1.90788
1.84542
1.78486
1.73029
1.68248
1.63789
1.59361
1.54861
1.50343
1.46017
1.41791
1.3765
1.33843
1.30302
1.26796
1.23567
1.20999
1.18731
1.16396
1.14302
1.13198
1.12056
1.10425
1.09893
1.09435
1.08429
1.0679
1.08041
1.78521
1.94586
1.90627
1.84475
1.79499
1.73048
1.74319
2.09344
2.17851
2.11367
2.04028
1.97173
1.90595
1.84163
1.78021
1.7238
1.67273
1.62592
1.582
1.53858
1.4944
1.45042
1.4066
1.3653
1.32913
1.29515
1.25961
1.22552
1.1956
1.16993
1.14605
1.12558
1.1098
1.09571
1.08158
1.07816
1.07257
1.06603
1.0556
1.00502
1.65316
1.91624
1.90023
1.85904
1.7959
1.74453
1.9001
2.21965
2.1848
2.11215
2.04011
1.97135
1.90228
1.83478
1.77276
1.71728
1.66541
1.6153
1.56746
1.52276
1.48013
1.43743
1.39403
1.35183
1.31311
1.2784
1.24629
1.21613
1.18608
1.15709
1.1316
1.11279
1.09636
1.08007
1.06479
1.05972
1.05071
1.04693
1.04159
0.99992
1.43842
1.85262
1.89899
1.86543
1.79926
1.77283
2.13415
2.2591
2.18715
2.1118
2.03821
1.96452
1.89253
1.82484
1.76206
1.70413
1.64979
1.59799
1.54915
1.50434
1.46256
1.42071
1.37975
1.34072
1.30369
1.26917
1.23704
1.20571
1.17673
1.1493
1.12401
1.10504
1.08801
1.07064
1.05468
1.04438
1.03273
1.02809
1.0253
0.999969
1.18932
1.72424
1.8839
1.85539
1.80398
1.90575
2.28948
2.26932
2.18609
2.10624
2.02779
1.94881
1.87494
1.80917
1.74887
1.69036
1.63254
1.57784
1.52902
1.48586
1.44584
1.4039
1.36109
1.32366
1.29223
1.26352
1.23291
1.20218
1.17406
1.1474
1.12295
1.103
1.08288
1.06372
1.04854
1.03493
1.01799
1.01181
1.00699
0.999988
1.04403
1.59342
1.84356
1.83557
1.81158
2.14685
2.33761
2.2591
2.17359
2.08717
2.00214
1.92123
1.84791
1.78278
1.72365
1.66698
1.6102
1.55619
1.50842
1.4674
1.43079
1.39324
1.35241
1.31595
1.28431
1.25355
1.22565
1.20461
1.17872
1.14783
1.12203
1.10205
1.08146
1.06121
1.045
1.02921
1.01273
0.999709
0.987003
0.999997
1.00489
1.41438
1.78
1.81039
1.87388
2.34636
2.33164
2.23764
2.14547
2.05376
1.96701
1.88867
1.81895
1.75519
1.69669
1.64207
1.58825
1.5377
1.49261
1.45256
1.41482
1.38327
1.35672
1.32253
1.28476
1.25031
1.22516
1.20133
1.17399
1.1522
1.13107
1.11035
1.08622
1.0614
1.04269
1.02586
1.00931
0.993727
0.97568
0.999999
1.00035
1.19339
1.67025
1.756
2.07427
2.37691
2.29725
2.19631
2.0975
2.00567
1.92416
1.85224
1.78766
1.72663
1.66989
1.61959
1.57208
1.52694
1.4856
1.44673
1.41035
1.37781
1.34482
1.31069
1.27638
1.24956
1.22549
1.1978
1.17248
1.14804
1.12547
1.10291
1.0793
1.05715
1.03832
1.01965
1.00259
0.987584
0.967531
1
1.00002
1.04788
1.53367
1.69323
2.27931
2.35902
2.25088
2.14256
2.04538
1.96054
1.88755
1.82361
1.76436
1.70691
1.65242
1.60359
1.55892
1.51711
1.47823
1.44099
1.40648
1.37302
1.33875
1.30517
1.27623
1.25085
1.2237
1.19604
1.17094
1.14625
1.12379
1.10066
1.07784
1.05653
1.03707
1.01742
1.00031
0.985103
0.964245
1
1
1.00521
1.35323
1.78627
2.31474
2.30886
2.20831
2.10241
2.01099
1.93396
1.86792
1.80907
1.75217
1.70264
1.65635
1.60697
1.56238
1.52283
1.48596
1.45021
1.41471
1.37884
1.3448
1.31416
1.28685
1.25863
1.22998
1.20315
1.17822
1.15412
1.13038
1.1058
1.0837
1.06316
1.0432
1.02294
1.00484
0.988513
0.965383
1
1
1.00026
1.24373
1.88822
2.41574
2.30507
2.18837
2.08467
1.99719
1.9241
1.86087
1.80299
1.74962
1.69733
1.6451
1.59374
1.54876
1.51037
1.47517
1.44076
1.4049
1.36769
1.3337
1.30463
1.2776
1.24898
1.22103
1.19441
1.17007
1.14616
1.12217
1.09639
1.07524
1.05552
1.03587
1.01512
0.997313
0.980751
0.957692
)
;

boundaryField
{
    inlet
    {
        type            fixedValue;
        value           uniform 1;
    }
    outlet
    {
        type            inletOutlet;
        inletValue      uniform 1;
        value           nonuniform List<scalar> 
40
(
2.17203
2.15194
2.08344
1.9941
1.90953
1.84879
1.81098
1.78394
1.76305
1.74586
1.72615
1.70742
1.67394
1.63337
1.54789
1.40616
1.30133
1.27184
1.25577
1.23983
1.22376
1.20658
1.18757
1.17047
1.14826
1.12964
1.11201
1.09548
1.08099
1.06791
1.05568
1.04169
1.02535
1.00685
0.98676
0.975464
0.967343
0.964055
0.965192
0.957476
)
;
    }
    top
    {
        type            symmetryPlane;
    }
    bottom
    {
        type            symmetryPlane;
    }
    step
    {
        type            zeroGradient;
    }
    defaultFaces
    {
        type            empty;
    }
}


// ************************************************************************* //
