/*--------------------------------*- C++ -*----------------------------------*\
  =========                 |
  \\      /  F ield         | OpenFOAM: The Open Source CFD Toolbox
   \\    /   O peration     | Website:  https://openfoam.org
    \\  /    A nd           | Version:  6.0
     \\/     M anipulation  |
\*---------------------------------------------------------------------------*/
FoamFile
{
    version     2.0;
    format      ascii;
    class       volVectorField;
    location    "1.50049";
    object      U;
}
// * * * * * * * * * * * * * * * * * * * * * * * * * * * * * * * * * * * * * //

dimensions      [0 1 -1 0 0 0 0];

internalField   nonuniform List<vector> 
4800
(
(3 1.58335e-16 0)
(3 3.34776e-16 0)
(3 3.88995e-16 0)
(3 3.27009e-16 0)
(3 -3.6139e-16 0)
(3 -1.53417e-16 0)
(3 2.63978e-16 0)
(3 2.23731e-16 0)
(3 3.24422e-16 0)
(3 3.31729e-16 0)
(3 1.03847e-16 0)
(3 2.22962e-16 0)
(3 1.85201e-17 0)
(3 7.32967e-18 0)
(3 8.60981e-17 0)
(3 1.08894e-15 0)
(3 1.21879e-15 0)
(3 4.62251e-16 0)
(3 -6.93858e-16 0)
(3 -3.19992e-16 0)
(3 -2.00103e-15 0)
(1.81377 0.00731607 0)
(0.762338 0.0127684 0)
(0.689992 0.0241298 0)
(0.661228 0.00361678 0)
(0.621323 -0.0101323 0)
(0.580229 -0.0100111 0)
(0.518191 0.0180308 0)
(0.46243 0.0495019 0)
(0.425684 0.0584552 0)
(0.416873 0.0432553 0)
(0.401746 -0.0237209 0)
(0.372243 -0.0514128 0)
(0.294686 -0.0440707 0)
(0.223183 0.0170687 0)
(0.164452 0.0316832 0)
(0.144212 0.00405918 0)
(0.100117 -0.0263427 0)
(0.0571053 -0.0313754 0)
(0.0234532 -0.000402603 0)
(3 1.20464e-16 0)
(3 4.15175e-16 0)
(3 2.47971e-16 0)
(3 3.04048e-16 0)
(3 -8.41533e-17 0)
(3 -1.1462e-16 0)
(3 2.84199e-16 0)
(3 1.1687e-16 0)
(3 6.29389e-16 0)
(3 7.06016e-16 0)
(3 -1.79534e-16 0)
(3 -1.44197e-16 0)
(3 1.97551e-16 0)
(3 5.03995e-16 0)
(3 8.07627e-16 0)
(3 2.23502e-15 0)
(3 3.25091e-15 0)
(3 1.74224e-15 0)
(3 -8.36179e-16 0)
(3 -1.00021e-15 0)
(3 -1.81826e-15 0)
(1.81026 0.0147482 0)
(0.779326 0.00752272 0)
(0.687725 0.0509034 0)
(0.652121 0.0453592 0)
(0.61131 0.0102968 0)
(0.569821 -0.0238574 0)
(0.531674 -0.0273609 0)
(0.491983 0.0428332 0)
(0.446089 0.12614 0)
(0.408961 0.133232 0)
(0.371872 0.0729755 0)
(0.33116 -0.0632547 0)
(0.289518 -0.123997 0)
(0.251649 -0.084333 0)
(0.204476 0.0435287 0)
(0.15439 0.118505 0)
(0.091478 0.136798 0)
(0.0376242 0.0888125 0)
(0.0285379 0.0631315 0)
(3 1.81047e-16 0)
(3 6.57044e-16 0)
(3 5.01124e-16 0)
(3 -1.42455e-16 0)
(3 1.82985e-16 0)
(3 2.95231e-16 0)
(3 -1.45096e-17 0)
(3 -9.35846e-17 0)
(3 8.04724e-16 0)
(3 7.49685e-16 0)
(3 5.79701e-16 0)
(3 2.087e-16 0)
(3 7.91588e-16 0)
(3 1.00438e-15 0)
(3 8.38415e-16 0)
(3 1.2828e-15 0)
(3 1.92864e-15 0)
(3 1.2337e-15 0)
(3 -8.69969e-17 0)
(3 -2.5179e-16 0)
(3 7.75445e-17 0)
(1.81014 0.0256826 0)
(0.78764 0.0290079 0)
(0.690154 0.0436622 0)
(0.642526 0.0448319 0)
(0.595824 0.0281649 0)
(0.561335 -0.00284153 0)
(0.543571 0.0131909 0)
(0.510067 0.047293 0)
(0.464173 0.085402 0)
(0.397959 0.0872673 0)
(0.329835 0.043645 0)
(0.293044 -0.00646302 0)
(0.289862 -0.0214904 0)
(0.273589 0.010568 0)
(0.236078 0.0360131 0)
(0.160736 0.0464262 0)
(0.0936386 0.0513069 0)
(0.0330249 0.0663014 0)
(0.0295335 0.0853685 0)
(3 2.11673e-16 0)
(3 1.95945e-16 0)
(3 4.66449e-16 0)
(3 3.45725e-18 0)
(3 5.50556e-16 0)
(3 4.83944e-16 0)
(3 -7.40165e-18 0)
(3 6.82393e-17 0)
(3 5.17231e-16 0)
(3 7.55057e-16 0)
(3 9.06671e-16 0)
(3 8.79321e-16 0)
(3 6.39656e-16 0)
(3 5.35775e-16 0)
(3 4.19306e-16 0)
(3 7.68595e-16 0)
(3 1.17959e-15 0)
(3 1.39901e-15 0)
(3 5.95351e-16 0)
(3 -2.13604e-17 0)
(3 1.4168e-15 0)
(1.82159 0.0373768 0)
(0.788364 0.0357593 0)
(0.691037 0.03332 0)
(0.643001 0.0392785 0)
(0.592564 0.0424878 0)
(0.560652 0.0458209 0)
(0.54482 0.0376596 0)
(0.514189 0.0182203 0)
(0.47131 0.00293943 0)
(0.399634 0.0209074 0)
(0.330106 0.0585149 0)
(0.290047 0.0909266 0)
(0.288193 0.0961647 0)
(0.267086 0.0598328 0)
(0.22956 0.00874435 0)
(0.166371 0.00582762 0)
(0.0985915 0.034534 0)
(0.039856 0.0887116 0)
(0.029296 0.104717 0)
(3 3.74797e-18 0)
(3 -1.42326e-16 0)
(3 -2.63246e-16 0)
(3 4.62909e-16 0)
(3 8.98288e-16 0)
(3 -4.81446e-17 0)
(3 -8.68626e-16 0)
(3 -1.84762e-17 0)
(3 2.49121e-16 0)
(3 1.13093e-15 0)
(3 4.62844e-16 0)
(3 9.02481e-16 0)
(3 4.20421e-16 0)
(3 2.68155e-16 0)
(3 3.40458e-16 0)
(3 2.75817e-16 0)
(3 1.46333e-16 0)
(3 -9.71545e-17 0)
(3 -7.08785e-17 0)
(3 9.23997e-16 0)
(3 1.32135e-15 0)
(1.84152 0.0525981 0)
(0.783746 0.0533574 0)
(0.687748 0.0274532 0)
(0.647084 0.0240688 0)
(0.603688 0.0482006 0)
(0.565844 0.0888429 0)
(0.539865 0.0842017 0)
(0.497269 0.0314363 0)
(0.451553 -0.0360921 0)
(0.407186 -0.0516992 0)
(0.363181 0.0121694 0)
(0.324829 0.12752 0)
(0.28854 0.183723 0)
(0.245814 0.132685 0)
(0.197359 0.0327995 0)
(0.157605 -0.0455987 0)
(0.130938 -0.0538419 0)
(0.0830166 0.03163 0)
(0.0366373 0.105946 0)
(3 -1.29995e-16 0)
(3 -1.55028e-16 0)
(3 9.36538e-17 0)
(3 5.32487e-16 0)
(3 1.68603e-16 0)
(3 -8.23502e-16 0)
(3 -6.22146e-16 0)
(3 5.93092e-16 0)
(3 5.16608e-16 0)
(3 4.80329e-16 0)
(3 6.25271e-16 0)
(3 3.6131e-16 0)
(3 -3.06391e-16 0)
(3 -3.23795e-16 0)
(3 2.23373e-16 0)
(3 2.68312e-16 0)
(3 -4.35713e-16 0)
(3 -1.41167e-15 0)
(3 -7.58484e-16 0)
(3 2.87982e-16 0)
(3 -2.99129e-16 0)
(1.86842 0.0615244 0)
(0.773914 0.0632401 0)
(0.679986 0.0376073 0)
(0.651827 0.0419031 0)
(0.616879 0.0759626 0)
(0.573275 0.102107 0)
(0.526841 0.104579 0)
(0.479174 0.0562856 0)
(0.434332 0.000455414 0)
(0.417929 -0.00542705 0)
(0.397653 0.0578826 0)
(0.356507 0.126507 0)
(0.292317 0.154889 0)
(0.223336 0.0932695 0)
(0.167307 0.0394556 0)
(0.150783 0.0369686 0)
(0.136543 0.0844894 0)
(0.0999467 0.0987231 0)
(0.0407879 0.0975984 0)
(3 -3.18589e-16 0)
(3 -3.37686e-16 0)
(3 -2.24306e-16 0)
(3 -1.00665e-16 0)
(3 -4.06749e-16 0)
(3 -5.9701e-16 0)
(3 9.79842e-16 0)
(3 8.79812e-16 0)
(3 7.8062e-16 0)
(3 5.12557e-16 0)
(3 2.00657e-16 0)
(3 2.99552e-17 0)
(3 9.75187e-17 0)
(3 -6.16885e-16 0)
(3 -2.46053e-16 0)
(3 9.18655e-16 0)
(3 3.54989e-16 0)
(3 9.78847e-17 0)
(3 5.06157e-17 0)
(3 -5.76755e-16 0)
(3 -3.20265e-16 0)
(1.8966 0.0661557 0)
(0.768308 0.0589373 0)
(0.686425 0.0696168 0)
(0.660409 0.0824548 0)
(0.622609 0.0846168 0)
(0.58193 0.0953628 0)
(0.519966 0.0833105 0)
(0.46522 0.0824881 0)
(0.426434 0.0884 0)
(0.421501 0.0999665 0)
(0.400252 0.0838743 0)
(0.361473 0.0530475 0)
(0.280483 0.0232437 0)
(0.210468 0.0540996 0)
(0.166073 0.0947074 0)
(0.163026 0.133701 0)
(0.137531 0.12855 0)
(0.102936 0.105421 0)
(0.0318178 0.0732083 0)
(3 -1.77747e-16 0)
(3 -3.45423e-16 0)
(3 -6.05412e-16 0)
(3 -5.52098e-16 0)
(3 -6.13394e-16 0)
(3 2.63547e-16 0)
(3 9.86589e-16 0)
(3 7.39401e-16 0)
(3 5.12383e-16 0)
(3 -1.27908e-16 0)
(3 -6.44901e-17 0)
(3 2.33778e-16 0)
(3 5.94854e-16 0)
(3 4.79914e-16 0)
(3 -2.06948e-16 0)
(3 6.16626e-17 0)
(3 6.67893e-16 0)
(3 1.3157e-15 0)
(3 8.38305e-16 0)
(3 7.43415e-17 0)
(3 -1.85995e-16 0)
(1.92296 0.0721159 0)
(0.77506 0.0634522 0)
(0.686629 0.114179 0)
(0.658704 0.112297 0)
(0.622634 0.0923641 0)
(0.580145 0.0703317 0)
(0.522274 0.0804296 0)
(0.470141 0.110547 0)
(0.447293 0.166481 0)
(0.426001 0.195527 0)
(0.381046 0.15742 0)
(0.324918 0.0410044 0)
(0.275662 -0.0393542 0)
(0.244534 -0.000293691 0)
(0.209902 0.135545 0)
(0.179582 0.222276 0)
(0.128237 0.219599 0)
(0.0709653 0.0962721 0)
(0.0382356 0.0232059 0)
(3 -1.4498e-16 0)
(3 -3.61837e-16 0)
(3 1.21105e-16 0)
(3 -3.74601e-16 0)
(3 -7.88021e-16 0)
(3 -1.2125e-16 0)
(3 3.77306e-16 0)
(3 -2.18483e-16 0)
(3 -1.4625e-16 0)
(3 4.33483e-17 0)
(3 3.30576e-16 0)
(3 -1.85687e-16 0)
(3 -4.83613e-16 0)
(3 6.2872e-16 0)
(3 6.80341e-16 0)
(3 1.36063e-16 0)
(3 9.06394e-16 0)
(3 1.60446e-15 0)
(3 1.78651e-15 0)
(3 1.40413e-15 0)
(3 1.1344e-16 0)
(1.94457 0.0876667 0)
(0.794405 0.0932648 0)
(0.693394 0.133638 0)
(0.654096 0.127079 0)
(0.612552 0.103158 0)
(0.571808 0.0570173 0)
(0.534211 0.0546986 0)
(0.502782 0.118696 0)
(0.460804 0.187747 0)
(0.421716 0.196161 0)
(0.350591 0.114489 0)
(0.299926 0.0367667 0)
(0.274462 0.0501201 0)
(0.277529 0.121224 0)
(0.23881 0.184985 0)
(0.180355 0.224937 0)
(0.108621 0.137253 0)
(0.0193052 0.0500933 0)
(0.0286435 -0.0220344 0)
(3 5.94108e-17 0)
(3 6.46232e-16 0)
(3 9.38293e-16 0)
(3 1.73766e-16 0)
(3 -6.62246e-16 0)
(3 -9.2591e-16 0)
(3 -1.0055e-15 0)
(3 -9.08156e-16 0)
(3 2.16252e-16 0)
(3 5.13198e-16 0)
(3 1.15499e-16 0)
(3 -4.14389e-17 0)
(3 8.32602e-17 0)
(3 1.45105e-16 0)
(3 8.7905e-16 0)
(3 2.52739e-16 0)
(3 5.28746e-16 0)
(3 1.06404e-15 0)
(3 2.63367e-15 0)
(3 2.47371e-15 0)
(3 1.2113e-15 0)
(1.97608 0.109258 0)
(0.808944 0.119099 0)
(0.695913 0.134129 0)
(0.654988 0.116803 0)
(0.603389 0.085261 0)
(0.561691 0.0766148 0)
(0.543065 0.0849701 0)
(0.517859 0.1392 0)
(0.476664 0.153673 0)
(0.401455 0.109861 0)
(0.336099 0.087678 0)
(0.295218 0.113934 0)
(0.291263 0.166835 0)
(0.285963 0.207613 0)
(0.24545 0.201372 0)
(0.169179 0.147448 0)
(0.0805448 0.097022 0)
(0.00751124 0.0681169 0)
(0.0296806 0.100919 0)
(3 4.99478e-17 0)
(3 2.90822e-16 0)
(3 4.00258e-16 0)
(3 -1.88904e-17 0)
(3 -9.73569e-17 0)
(3 -7.22562e-16 0)
(3 -1.42047e-15 0)
(3 -1.04546e-15 0)
(3 -1.6031e-16 0)
(3 -2.04616e-16 0)
(3 1.12996e-16 0)
(3 9.36455e-17 0)
(3 1.27913e-15 0)
(3 1.41067e-15 0)
(3 9.9305e-16 0)
(3 4.37213e-16 0)
(3 3.53461e-17 0)
(3 2.00648e-15 0)
(3 2.05343e-15 0)
(3 2.12083e-15 0)
(3 3.01549e-15 0)
(2.02087 0.120694 0)
(0.818508 0.134479 0)
(0.692883 0.12299 0)
(0.645479 0.095511 0)
(0.599774 0.0905645 0)
(0.567903 0.10191 0)
(0.554425 0.146309 0)
(0.521308 0.138998 0)
(0.464766 0.103586 0)
(0.390724 0.0486957 0)
(0.347558 0.0517113 0)
(0.33557 0.139175 0)
(0.320647 0.219334 0)
(0.293686 0.253283 0)
(0.219953 0.21775 0)
(0.131994 0.0882656 0)
(0.0899813 0.0719875 0)
(0.0463971 0.212605 0)
(0.0358166 0.275233 0)
(3 1.88462e-17 0)
(3 5.12543e-18 0)
(3 -7.85265e-18 0)
(3 -1.11466e-16 0)
(3 -3.24577e-16 0)
(3 -3.86474e-16 0)
(3 -1.11882e-15 0)
(3 -1.82431e-16 0)
(3 -7.0843e-16 0)
(3 -3.55716e-16 0)
(3 4.78402e-16 0)
(3 1.21285e-15 0)
(3 1.71826e-15 0)
(3 2.17553e-15 0)
(3 2.23667e-15 0)
(3 1.38068e-15 0)
(3 9.76943e-16 0)
(3 1.0678e-15 0)
(3 1.08873e-15 0)
(3 1.15152e-15 0)
(3 -5.98233e-16 0)
(2.08386 0.121657 0)
(0.818735 0.136461 0)
(0.68474 0.101677 0)
(0.646905 0.0908543 0)
(0.609801 0.109887 0)
(0.585959 0.168876 0)
(0.55316 0.174722 0)
(0.505887 0.151115 0)
(0.445072 0.0658343 0)
(0.398418 0.0456862 0)
(0.378482 0.0906928 0)
(0.367371 0.178549 0)
(0.334231 0.212004 0)
(0.28552 0.171195 0)
(0.194554 0.0662628 0)
(0.12195 0.0933529 0)
(0.132295 0.183483 0)
(0.100067 0.30207 0)
(0.0355581 0.401586 0)
(3 8.96382e-17 0)
(3 3.21507e-16 0)
(3 -9.23223e-17 0)
(3 -4.75632e-16 0)
(3 -7.20262e-16 0)
(3 -3.03304e-16 0)
(3 6.44246e-16 0)
(3 6.36563e-17 0)
(3 -2.75977e-16 0)
(3 3.86546e-16 0)
(3 1.08092e-15 0)
(3 2.2344e-15 0)
(3 1.66932e-15 0)
(3 1.9614e-15 0)
(3 1.73711e-15 0)
(3 1.70653e-15 0)
(3 1.05749e-15 0)
(3 3.88534e-16 0)
(3 3.8748e-16 0)
(3 5.75336e-16 0)
(3 -1.03294e-15 0)
(2.14488 0.121008 0)
(0.817029 0.124486 0)
(0.680136 0.108712 0)
(0.653427 0.119034 0)
(0.629257 0.176423 0)
(0.594319 0.186516 0)
(0.548931 0.191474 0)
(0.488733 0.131677 0)
(0.431457 0.0972864 0)
(0.399516 0.124803 0)
(0.39975 0.205012 0)
(0.371533 0.206238 0)
(0.332184 0.173579 0)
(0.239735 0.0570838 0)
(0.193607 0.0396428 0)
(0.155808 0.115183 0)
(0.164033 0.235957 0)
(0.128222 0.293146 0)
(0.042097 0.288075 0)
(3 9.26105e-17 0)
(3 9.38594e-17 0)
(3 5.30487e-18 0)
(3 -3.88343e-16 0)
(3 -2.01613e-16 0)
(3 5.80456e-16 0)
(3 8.31683e-16 0)
(3 2.27152e-16 0)
(3 3.09603e-16 0)
(3 1.27098e-15 0)
(3 1.37461e-15 0)
(3 1.20535e-15 0)
(3 1.66205e-15 0)
(3 1.25967e-15 0)
(3 1.82428e-15 0)
(3 1.52793e-15 0)
(3 8.70641e-16 0)
(3 8.81925e-16 0)
(3 3.08493e-16 0)
(3 5.74574e-16 0)
(3 2.00982e-16 0)
(2.20649 0.120502 0)
(0.807236 0.120571 0)
(0.691978 0.129397 0)
(0.671875 0.183447 0)
(0.63717 0.199383 0)
(0.593049 0.213325 0)
(0.537911 0.184813 0)
(0.474625 0.130839 0)
(0.442804 0.137365 0)
(0.446252 0.221411 0)
(0.412406 0.274659 0)
(0.361037 0.281909 0)
(0.274261 0.138799 0)
(0.222973 0.028506 0)
(0.215403 0.0374239 0)
(0.198222 0.144819 0)
(0.179726 0.209336 0)
(0.127549 0.138569 0)
(0.033574 0.0666727 0)
(3 -3.37775e-17 0)
(3 -2.1173e-16 0)
(3 -8.09886e-17 0)
(3 -1.30312e-16 0)
(3 2.02169e-16 0)
(3 1.02478e-15 0)
(3 7.4956e-16 0)
(3 1.6004e-16 0)
(3 6.55811e-16 0)
(3 1.35434e-15 0)
(3 7.34789e-16 0)
(3 3.53813e-16 0)
(3 1.11862e-15 0)
(3 9.1648e-16 0)
(3 1.26254e-15 0)
(3 1.2821e-15 0)
(3 9.17324e-16 0)
(3 4.93452e-16 0)
(3 3.35947e-16 0)
(3 5.86576e-16 0)
(3 4.69718e-17 0)
(2.25902 0.129462 0)
(0.816662 0.141394 0)
(0.705435 0.199207 0)
(0.676369 0.201315 0)
(0.637786 0.204202 0)
(0.594549 0.183404 0)
(0.524819 0.142537 0)
(0.47706 0.160964 0)
(0.473378 0.211024 0)
(0.455804 0.249815 0)
(0.427004 0.255737 0)
(0.342465 0.167496 0)
(0.245309 0.124799 0)
(0.21655 0.152414 0)
(0.23101 0.217065 0)
(0.222315 0.237198 0)
(0.176303 0.186571 0)
(0.0721234 0.0537561 0)
(0.0302677 -0.0292255 0)
(3 -5.74141e-18 0)
(3 4.07575e-16 0)
(3 1.51326e-16 0)
(3 5.12197e-16 0)
(3 5.58817e-16 0)
(3 1.00003e-15 0)
(3 9.43712e-16 0)
(3 6.75122e-16 0)
(3 3.75363e-16 0)
(3 4.74701e-16 0)
(3 1.76391e-16 0)
(3 6.80387e-16 0)
(3 1.28714e-15 0)
(3 2.1801e-15 0)
(3 5.9659e-16 0)
(3 5.67458e-18 0)
(3 5.65208e-16 0)
(3 3.60728e-16 0)
(3 -2.01876e-16 0)
(3 6.1987e-16 0)
(3 -8.12873e-16 0)
(2.30145 0.147446 0)
(0.842232 0.189376 0)
(0.703422 0.226555 0)
(0.675975 0.204878 0)
(0.638437 0.169283 0)
(0.58095 0.123054 0)
(0.529732 0.139378 0)
(0.49751 0.190792 0)
(0.491015 0.258361 0)
(0.465434 0.24556 0)
(0.412669 0.164723 0)
(0.322666 0.0995708 0)
(0.267271 0.158803 0)
(0.247008 0.307523 0)
(0.240447 0.363158 0)
(0.190935 0.31978 0)
(0.128141 0.183628 0)
(0.044606 0.0910599 0)
(0.0252666 0.0488898 0)
(3 1.87264e-16 0)
(3 3.26146e-16 0)
(3 3.06417e-16 0)
(3 2.09538e-16 0)
(3 6.27704e-16 0)
(3 7.80911e-17 0)
(3 6.18732e-16 0)
(3 3.8035e-16 0)
(3 -1.98989e-16 0)
(3 -3.9365e-16 0)
(3 1.0877e-15 0)
(3 1.42484e-15 0)
(3 1.48425e-15 0)
(3 1.9028e-15 0)
(3 1.22134e-15 0)
(3 -1.46802e-16 0)
(3 1.51024e-16 0)
(3 -6.51184e-16 0)
(3 -8.40862e-16 0)
(3 4.46758e-17 0)
(3 -7.05518e-16 0)
(2.36212 0.155504 0)
(0.863942 0.217798 0)
(0.698675 0.238226 0)
(0.66695 0.202768 0)
(0.614973 0.130805 0)
(0.58112 0.0954665 0)
(0.558294 0.119445 0)
(0.536796 0.225661 0)
(0.504954 0.27815 0)
(0.449176 0.250582 0)
(0.369367 0.10802 0)
(0.327135 0.0655526 0)
(0.33094 0.139096 0)
(0.312556 0.321538 0)
(0.236412 0.427832 0)
(0.157029 0.381946 0)
(0.0997162 0.261384 0)
(0.0401777 0.248035 0)
(0.03026 0.312692 0)
(3 -1.81046e-16 0)
(3 1.17206e-16 0)
(3 1.81417e-16 0)
(3 -1.28436e-16 0)
(3 -4.88988e-17 0)
(3 -3.30582e-16 0)
(3 -3.80431e-16 0)
(3 -3.46946e-16 0)
(3 -4.12401e-16 0)
(3 3.14352e-16 0)
(3 1.18952e-15 0)
(3 1.91713e-15 0)
(3 1.62225e-15 0)
(3 3.40404e-16 0)
(3 -1.40569e-16 0)
(3 5.04752e-16 0)
(3 9.79977e-16 0)
(3 7.78236e-16 0)
(3 6.88684e-16 0)
(3 -7.21618e-17 0)
(3 1.08865e-16 0)
(2.42662 0.160486 0)
(0.882406 0.231214 0)
(0.696095 0.22191 0)
(0.650635 0.162612 0)
(0.603122 0.14308 0)
(0.578287 0.138162 0)
(0.584689 0.213383 0)
(0.561796 0.252626 0)
(0.519857 0.252074 0)
(0.421658 0.155602 0)
(0.349954 0.127262 0)
(0.34253 0.145593 0)
(0.358643 0.251902 0)
(0.348447 0.285608 0)
(0.264071 0.354937 0)
(0.14055 0.355258 0)
(0.104659 0.364342 0)
(0.0827406 0.455704 0)
(0.0372901 0.517655 0)
(3 -9.38217e-18 0)
(3 9.27529e-18 0)
(3 1.37851e-16 0)
(3 -4.22968e-16 0)
(3 -1.3809e-16 0)
(3 -5.18233e-16 0)
(3 -7.00367e-16 0)
(3 -4.82687e-17 0)
(3 3.07961e-16 0)
(3 6.62538e-16 0)
(3 4.9745e-16 0)
(3 5.01552e-16 0)
(3 6.88238e-16 0)
(3 1.20653e-16 0)
(3 -1.81377e-16 0)
(3 8.68809e-16 0)
(3 1.44315e-15 0)
(3 1.47436e-15 0)
(3 1.15878e-15 0)
(3 8.7227e-16 0)
(3 -1.19566e-15 0)
(2.50236 0.159533 0)
(0.890219 0.23194 0)
(0.683286 0.178915 0)
(0.649671 0.162392 0)
(0.614722 0.175189 0)
(0.607886 0.24879 0)
(0.597788 0.265675 0)
(0.568163 0.247412 0)
(0.505127 0.189243 0)
(0.411306 0.139172 0)
(0.369983 0.177522 0)
(0.369547 0.266989 0)
(0.370097 0.31011 0)
(0.34355 0.285576 0)
(0.250464 0.192275 0)
(0.171714 0.241657 0)
(0.144088 0.397449 0)
(0.110186 0.490231 0)
(0.0436413 0.543645 0)
(3 1.40197e-16 0)
(3 -3.82642e-16 0)
(3 -6.74728e-16 0)
(3 -3.77271e-16 0)
(3 -6.06113e-16 0)
(3 -4.47882e-16 0)
(3 -7.68113e-16 0)
(3 -3.27936e-17 0)
(3 1.27349e-15 0)
(3 4.89891e-16 0)
(3 -3.68125e-16 0)
(3 2.37991e-17 0)
(3 -1.75333e-16 0)
(3 -5.93732e-16 0)
(3 1.8127e-15 0)
(3 1.34428e-15 0)
(3 6.91141e-16 0)
(3 6.39713e-16 0)
(3 6.37022e-16 0)
(3 9.61127e-16 0)
(3 -5.87757e-16 0)
(2.59189 0.153799 0)
(0.899681 0.223589 0)
(0.683204 0.169292 0)
(0.669729 0.164684 0)
(0.649617 0.248902 0)
(0.630536 0.315364 0)
(0.598625 0.323818 0)
(0.551661 0.283139 0)
(0.473085 0.16316 0)
(0.428718 0.12234 0)
(0.413555 0.222584 0)
(0.404138 0.351899 0)
(0.368483 0.368676 0)
(0.303311 0.258756 0)
(0.241062 0.141751 0)
(0.2129 0.194041 0)
(0.187013 0.330915 0)
(0.136335 0.400076 0)
(0.0413206 0.348055 0)
(3 -2.06718e-16 0)
(3 -3.70101e-16 0)
(3 -2.1229e-16 0)
(3 -3.76923e-16 0)
(3 -4.85049e-16 0)
(3 -5.27729e-17 0)
(3 -9.55368e-16 0)
(3 -9.76965e-16 0)
(3 2.72224e-16 0)
(3 2.64889e-16 0)
(3 6.38182e-17 0)
(3 1.35463e-16 0)
(3 -2.40864e-16 0)
(3 2.8224e-16 0)
(3 1.33562e-15 0)
(3 4.34643e-16 0)
(3 -9.90939e-16 0)
(3 -3.62555e-16 0)
(3 3.68508e-16 0)
(3 5.39954e-16 0)
(3 6.14234e-16 0)
(2.69404 0.150166 0)
(0.919171 0.217278 0)
(0.701636 0.18882 0)
(0.705574 0.234691 0)
(0.690566 0.281469 0)
(0.653523 0.307871 0)
(0.60481 0.324886 0)
(0.529157 0.247417 0)
(0.456105 0.20886 0)
(0.457927 0.264836 0)
(0.458652 0.358467 0)
(0.417769 0.366778 0)
(0.361226 0.340542 0)
(0.260944 0.249444 0)
(0.229372 0.216234 0)
(0.23229 0.216291 0)
(0.204264 0.226657 0)
(0.106689 0.165351 0)
(0.0270687 0.105531 0)
(3 -4.82937e-18 0)
(3 -1.149e-18 0)
(3 -1.16388e-16 0)
(3 1.93957e-16 0)
(3 5.14816e-16 0)
(3 5.89773e-16 0)
(3 1.87955e-16 0)
(3 -7.88257e-16 0)
(3 -8.47283e-16 0)
(3 -4.78851e-16 0)
(3 3.13754e-16 0)
(3 5.25563e-16 0)
(3 -2.21507e-16 0)
(3 3.08321e-16 0)
(3 2.81586e-16 0)
(3 1.1799e-16 0)
(3 -1.09464e-15 0)
(3 -1.45425e-15 0)
(3 -2.56024e-16 0)
(3 9.13586e-16 0)
(3 1.52818e-16 0)
(2.79453 0.144152 0)
(0.955744 0.233097 0)
(0.747597 0.253592 0)
(0.741047 0.274236 0)
(0.708304 0.274387 0)
(0.672106 0.267587 0)
(0.599472 0.222124 0)
(0.529011 0.223544 0)
(0.484071 0.261802 0)
(0.493901 0.363068 0)
(0.467424 0.364253 0)
(0.419222 0.359055 0)
(0.323658 0.274864 0)
(0.256134 0.257574 0)
(0.23675 0.318352 0)
(0.21987 0.321029 0)
(0.185311 0.235795 0)
(0.0983428 0.140622 0)
(0.0290065 0.115347 0)
(3 2.85947e-16 0)
(3 2.1329e-16 0)
(3 -4.8358e-16 0)
(3 1.08405e-15 0)
(3 1.46379e-15 0)
(3 8.07605e-16 0)
(3 9.37542e-16 0)
(3 5.87731e-16 0)
(3 -1.41317e-15 0)
(3 -1.37372e-15 0)
(3 -3.5074e-16 0)
(3 2.67239e-16 0)
(3 -3.5237e-16 0)
(3 -2.10382e-16 0)
(3 -1.02644e-15 0)
(3 -2.45362e-16 0)
(3 -1.44253e-16 0)
(3 -1.22742e-15 0)
(3 -6.61927e-17 0)
(3 7.37491e-16 0)
(3 6.76393e-16 0)
(2.88442 0.115457 0)
(1.01154 0.279176 0)
(0.771688 0.294957 0)
(0.753717 0.291978 0)
(0.711847 0.280336 0)
(0.661624 0.225545 0)
(0.592491 0.156369 0)
(0.553146 0.185926 0)
(0.53331 0.316195 0)
(0.513775 0.397129 0)
(0.462161 0.414187 0)
(0.395717 0.3246 0)
(0.312922 0.250581 0)
(0.283242 0.333753 0)
(0.25079 0.410869 0)
(0.204741 0.397468 0)
(0.148835 0.299433 0)
(0.0660088 0.208713 0)
(0.0247155 0.158274 0)
(3 -3.23097e-16 0)
(3 -2.49798e-16 0)
(3 -1.69425e-16 0)
(3 7.13454e-16 0)
(3 8.29891e-16 0)
(3 4.6161e-16 0)
(3 5.31335e-16 0)
(3 7.36714e-16 0)
(3 -9.17342e-16 0)
(3 -3.62899e-16 0)
(3 -5.34804e-16 0)
(3 -1.23449e-16 0)
(3 1.05407e-15 0)
(3 -1.73134e-16 0)
(3 -1.6753e-15 0)
(3 -5.29645e-16 0)
(3 5.73431e-17 0)
(3 -4.26286e-16 0)
(3 2.57465e-16 0)
(3 1.63824e-16 0)
(3 4.06857e-16 0)
(2.9358 0.0724985 0)
(1.03792 0.297093 0)
(0.778679 0.29551 0)
(0.760585 0.299492 0)
(0.709429 0.287571 0)
(0.641879 0.190528 0)
(0.595634 0.16473 0)
(0.57779 0.206701 0)
(0.578593 0.327583 0)
(0.537915 0.368921 0)
(0.461294 0.341829 0)
(0.360627 0.236863 0)
(0.333864 0.294643 0)
(0.307741 0.38814 0)
(0.260609 0.433706 0)
(0.178394 0.415976 0)
(0.122355 0.335054 0)
(0.0562809 0.312383 0)
(0.0298838 0.353982 0)
(3 1.7041e-16 0)
(3 -6.08603e-17 0)
(3 -2.69623e-16 0)
(3 9.05883e-17 0)
(3 6.54863e-16 0)
(3 -6.87158e-17 0)
(3 -5.89978e-16 0)
(3 -1.60007e-16 0)
(3 1.02556e-17 0)
(3 4.71576e-16 0)
(3 7.88131e-16 0)
(3 5.71157e-16 0)
(3 5.72927e-16 0)
(3 2.12296e-16 0)
(3 -8.27589e-16 0)
(3 -1.07604e-15 0)
(3 -1.3587e-15 0)
(3 -2.90483e-16 0)
(3 3.00066e-16 0)
(3 2.16205e-16 0)
(3 -1.18767e-17 0)
(2.94513 0.0354403 0)
(1.05899 0.29061 0)
(0.774711 0.293143 0)
(0.76365 0.283181 0)
(0.69166 0.230665 0)
(0.628852 0.221918 0)
(0.608185 0.242844 0)
(0.615405 0.334566 0)
(0.593615 0.332072 0)
(0.539638 0.304326 0)
(0.426027 0.183764 0)
(0.379636 0.212156 0)
(0.360325 0.270684 0)
(0.315703 0.32055 0)
(0.269419 0.390532 0)
(0.185987 0.451287 0)
(0.144583 0.504847 0)
(0.0959895 0.606 0)
(0.0374688 0.670033 0)
(3 3.00025e-16 0)
(3 1.58108e-16 0)
(3 2.02686e-16 0)
(3 -5.19247e-17 0)
(3 -1.25944e-16 0)
(3 -6.41474e-16 0)
(3 -6.07662e-16 0)
(3 6.7517e-16 0)
(3 9.06097e-16 0)
(3 9.83377e-16 0)
(3 6.21277e-16 0)
(3 7.18296e-17 0)
(3 -1.81192e-16 0)
(3 6.34843e-16 0)
(3 5.10242e-16 0)
(3 -5.04401e-16 0)
(3 -4.1378e-16 0)
(3 3.03745e-16 0)
(3 4.97078e-16 0)
(3 3.93065e-16 0)
(3 -2.16735e-17 0)
(2.96167 0.0258494 0)
(1.07856 0.263617 0)
(0.761378 0.270763 0)
(0.737823 0.235026 0)
(0.685276 0.231604 0)
(0.643973 0.260323 0)
(0.639666 0.382811 0)
(0.616067 0.401371 0)
(0.584199 0.366376 0)
(0.499944 0.242176 0)
(0.429423 0.151012 0)
(0.394945 0.165239 0)
(0.381571 0.206842 0)
(0.347682 0.271371 0)
(0.302308 0.391252 0)
(0.212377 0.489026 0)
(0.167922 0.569272 0)
(0.1196 0.641425 0)
(0.044553 0.67825 0)
(3 -1.76706e-16 0)
(3 -3.84744e-17 0)
(3 2.35067e-16 0)
(3 -2.29654e-16 0)
(3 -1.3423e-15 0)
(3 -9.92113e-16 0)
(3 1.38495e-16 0)
(3 4.39024e-16 0)
(3 1.58701e-15 0)
(3 9.86958e-16 0)
(3 3.66508e-16 0)
(3 1.81644e-16 0)
(3 2.03585e-16 0)
(3 8.52478e-16 0)
(3 7.94572e-16 0)
(3 7.05734e-16 0)
(3 1.02361e-15 0)
(3 8.90224e-16 0)
(3 -2.3384e-17 0)
(3 1.35688e-17 0)
(3 -1.5212e-17 0)
(2.98544 0.0265176 0)
(1.10145 0.253472 0)
(0.748524 0.241421 0)
(0.726115 0.231127 0)
(0.690248 0.238244 0)
(0.681847 0.359386 0)
(0.653486 0.409834 0)
(0.607901 0.430954 0)
(0.558013 0.378253 0)
(0.462342 0.243548 0)
(0.41601 0.200392 0)
(0.391664 0.225158 0)
(0.390879 0.307126 0)
(0.369039 0.360628 0)
(0.345138 0.424326 0)
(0.251881 0.502909 0)
(0.197644 0.610233 0)
(0.131708 0.638461 0)
(0.043739 0.607081 0)
(3 1.07663e-17 0)
(3 1.99781e-16 0)
(3 3.66044e-16 0)
(3 1.30116e-16 0)
(3 1.28063e-16 0)
(3 2.15026e-16 0)
(3 -2.31689e-16 0)
(3 -5.63084e-16 0)
(3 1.97194e-16 0)
(3 -1.66591e-16 0)
(3 3.37667e-16 0)
(3 8.41424e-16 0)
(3 3.89112e-16 0)
(3 9.43359e-17 0)
(3 5.54542e-16 0)
(3 -3.53327e-16 0)
(3 3.43416e-16 0)
(3 9.4432e-16 0)
(3 8.73734e-16 0)
(3 6.80618e-16 0)
(3 3.86985e-16 0)
(3.01027 0.012023 0)
(1.13476 0.25797 0)
(0.732786 0.247406 0)
(0.722001 0.242823 0)
(0.711266 0.33807 0)
(0.694661 0.373534 0)
(0.664966 0.396954 0)
(0.618088 0.416938 0)
(0.519731 0.341463 0)
(0.44313 0.28347 0)
(0.443624 0.336919 0)
(0.456367 0.495163 0)
(0.415894 0.559227 0)
(0.358191 0.555221 0)
(0.327323 0.479692 0)
(0.270423 0.409273 0)
(0.20274 0.400271 0)
(0.10605 0.368274 0)
(0.0404227 0.305947 0)
(3 2.86204e-17 0)
(3 7.62995e-16 0)
(3 1.07156e-15 0)
(3 8.65668e-16 0)
(3 1.257e-15 0)
(3 9.71102e-16 0)
(3 -5.238e-17 0)
(3 -5.18952e-16 0)
(3 -6.38619e-16 0)
(3 -3.06335e-16 0)
(3 1.09883e-16 0)
(3 -2.01228e-16 0)
(3 4.00286e-16 0)
(3 5.84428e-16 0)
(3 -9.71091e-18 0)
(3 6.64653e-16 0)
(3 1.01163e-15 0)
(3 1.50828e-15 0)
(3 2.01758e-15 0)
(3 1.74153e-15 0)
(3 4.97294e-16 0)
(3.00334 0.00223646 0)
(1.17058 0.275106 0)
(0.729738 0.262897 0)
(0.729174 0.333706 0)
(0.710348 0.368326 0)
(0.690527 0.371861 0)
(0.666533 0.375592 0)
(0.604382 0.333708 0)
(0.507087 0.308236 0)
(0.471474 0.387038 0)
(0.503582 0.507488 0)
(0.480836 0.596933 0)
(0.418952 0.674797 0)
(0.334934 0.66108 0)
(0.283095 0.535105 0)
(0.244572 0.399379 0)
(0.190628 0.323615 0)
(0.0913271 0.289463 0)
(0.0364111 0.259523 0)
(3 -1.2552e-16 0)
(3 7.90473e-17 0)
(3 6.54256e-17 0)
(3 5.1267e-16 0)
(3 9.24412e-16 0)
(3 1.00183e-15 0)
(3 5.06189e-16 0)
(3 -1.49828e-16 0)
(3 -1.13445e-16 0)
(3 9.38719e-16 0)
(3 8.72207e-16 0)
(3 -2.0479e-16 0)
(3 6.46645e-17 0)
(3 2.22734e-16 0)
(3 5.74662e-16 0)
(3 1.18683e-15 0)
(3 1.29567e-15 0)
(3 1.69544e-15 0)
(3 1.51802e-15 0)
(3 1.31102e-15 0)
(3 3.63544e-17 0)
(3.00013 0.000122805 0)
(1.22147 0.317813 0)
(0.746544 0.315589 0)
(0.730433 0.368573 0)
(0.707942 0.388617 0)
(0.682856 0.396709 0)
(0.647527 0.372212 0)
(0.574717 0.261419 0)
(0.527392 0.29538 0)
(0.522349 0.409533 0)
(0.529006 0.52161 0)
(0.507939 0.569992 0)
(0.450746 0.628845 0)
(0.305298 0.587693 0)
(0.240996 0.504577 0)
(0.20758 0.412492 0)
(0.188201 0.315255 0)
(0.0975478 0.285059 0)
(0.0433033 0.294934 0)
(3 4.80781e-17 0)
(3 -2.12713e-16 0)
(3 -3.74683e-16 0)
(3 -3.73741e-16 0)
(3 4.56718e-16 0)
(3 4.70813e-16 0)
(3 1.97222e-16 0)
(3 -2.40273e-16 0)
(3 -4.5354e-16 0)
(3 -3.90014e-16 0)
(3 -4.63395e-16 0)
(3 -1.26725e-16 0)
(3 -1.06524e-15 0)
(3 -9.1107e-16 0)
(3 1.44899e-16 0)
(3 7.16246e-16 0)
(3 1.15062e-15 0)
(3 1.93257e-15 0)
(3 8.34428e-16 0)
(3 1.71479e-16 0)
(3 -5.47337e-16 0)
(3 -2.38683e-06 0)
(1.30003 0.346024 0)
(0.758954 0.343163 0)
(0.72657 0.378053 0)
(0.698973 0.392114 0)
(0.681127 0.39219 0)
(0.605176 0.279775 0)
(0.56466 0.270519 0)
(0.548177 0.303942 0)
(0.564633 0.415862 0)
(0.557795 0.520267 0)
(0.519479 0.526535 0)
(0.397509 0.309611 0)
(0.331947 0.31998 0)
(0.246413 0.419681 0)
(0.182854 0.424378 0)
(0.168785 0.357639 0)
(0.0885578 0.32972 0)
(0.042168 0.317481 0)
(3 8.20263e-17 0)
(3 5.47971e-17 0)
(3 2.39352e-16 0)
(3 2.0449e-17 0)
(3 -1.49974e-17 0)
(3 5.2397e-16 0)
(3 3.76501e-16 0)
(3 -2.7065e-16 0)
(3 -1.21097e-15 0)
(3 -1.74304e-15 0)
(3 -2.41294e-15 0)
(3 -9.44116e-16 0)
(3 -1.07152e-15 0)
(3 -1.77516e-15 0)
(3 -8.02413e-16 0)
(3 -2.88332e-16 0)
(3 1.50433e-15 0)
(3 1.09904e-15 0)
(3 7.02903e-17 0)
(3 2.32355e-16 0)
(3 1.93294e-16 0)
(3 -2.99809e-06 0)
(1.38883 0.348773 0)
(0.773371 0.35293 0)
(0.72819 0.378151 0)
(0.698419 0.377737 0)
(0.641192 0.31074 0)
(0.589543 0.279675 0)
(0.567768 0.28409 0)
(0.570925 0.32704 0)
(0.602261 0.42359 0)
(0.571265 0.448051 0)
(0.442327 0.294399 0)
(0.39207 0.26191 0)
(0.355849 0.2832 0)
(0.27303 0.383463 0)
(0.187159 0.442627 0)
(0.150863 0.383396 0)
(0.104783 0.447785 0)
(0.0570367 0.6224 0)
(3 -3.55026e-17 0)
(3 -1.98253e-16 0)
(3 1.77521e-16 0)
(3 2.55784e-18 0)
(3 -8.51889e-16 0)
(3 -3.03628e-16 0)
(3 3.38908e-16 0)
(3 8.96942e-17 0)
(3 -3.25262e-16 0)
(3 -1.47852e-15 0)
(3 -1.89957e-15 0)
(3 -1.34873e-15 0)
(3 -1.26122e-16 0)
(3 -2.05562e-17 0)
(3 6.21584e-17 0)
(3 7.87408e-16 0)
(3 6.47632e-16 0)
(3 4.92473e-16 0)
(3 -4.77189e-17 0)
(3 4.1646e-16 0)
(3 4.51005e-16 0)
(3 -1.48817e-06 0)
(1.48125 0.349267 0)
(0.794656 0.349811 0)
(0.721145 0.355933 0)
(0.672404 0.318423 0)
(0.626264 0.293962 0)
(0.589656 0.285694 0)
(0.588497 0.381035 0)
(0.586039 0.468727 0)
(0.605857 0.431397 0)
(0.531331 0.338745 0)
(0.426866 0.269868 0)
(0.385378 0.276867 0)
(0.360947 0.308813 0)
(0.306339 0.408024 0)
(0.214316 0.541041 0)
(0.223299 0.793079 0)
(0.14092 0.895147 0)
(0.0643419 0.898338 0)
(3 1.41653e-16 0)
(3 -9.77977e-17 0)
(3 1.60796e-16 0)
(3 3.48386e-16 0)
(3 -7.13458e-16 0)
(3 -1.48155e-15 0)
(3 -1.06305e-15 0)
(3 8.54857e-18 0)
(3 -3.07735e-16 0)
(3 -8.39329e-16 0)
(3 -4.19986e-16 0)
(3 -2.1921e-16 0)
(3 2.34648e-16 0)
(3 -5.84156e-17 0)
(3 -1.5345e-16 0)
(3 6.90605e-16 0)
(3 5.77737e-16 0)
(3 -1.14385e-16 0)
(3 9.45513e-17 0)
(3 -4.70159e-16 0)
(3 -6.00056e-16 0)
(3 -1.38936e-07 0)
(1.58355 0.354939 0)
(0.803586 0.340264 0)
(0.710415 0.323831 0)
(0.665524 0.309585 0)
(0.620541 0.309453 0)
(0.618024 0.40385 0)
(0.622148 0.488695 0)
(0.582888 0.494965 0)
(0.576433 0.444059 0)
(0.498524 0.337562 0)
(0.428028 0.27212 0)
(0.405148 0.291336 0)
(0.386099 0.344124 0)
(0.354118 0.436335 0)
(0.358739 0.801176 0)
(0.259222 0.943746 0)
(0.14725 0.985334 0)
(0.0641787 0.957306 0)
(3 2.9976e-16 0)
(3 2.91847e-17 0)
(3 -2.96059e-16 0)
(3 2.06655e-16 0)
(3 -4.6086e-16 0)
(3 -1.03196e-15 0)
(3 -1.07481e-15 0)
(3 -3.21252e-16 0)
(3 -7.21878e-16 0)
(3 -1.00147e-15 0)
(3 -7.38617e-16 0)
(3 -9.5882e-16 0)
(3 -6.70936e-16 0)
(3 -6.79807e-16 0)
(3 1.72905e-16 0)
(3 6.72409e-16 0)
(3 7.2616e-16 0)
(3 3.25753e-16 0)
(3 -7.13213e-16 0)
(3 -1.81303e-15 0)
(3 -1.56064e-15 0)
(3 -8.43409e-08 0)
(1.70364 0.36837 0)
(0.813252 0.352251 0)
(0.705753 0.321857 0)
(0.66838 0.322498 0)
(0.644797 0.3895 0)
(0.650505 0.479893 0)
(0.624929 0.50313 0)
(0.580819 0.511168 0)
(0.54438 0.469717 0)
(0.462938 0.341596 0)
(0.426819 0.281359 0)
(0.405647 0.292424 0)
(0.418313 0.395182 0)
(0.470159 0.723415 0)
(0.409091 0.864717 0)
(0.299202 1.02454 0)
(0.129541 0.992706 0)
(0.0634065 0.93962 0)
(3 -3.50534e-16 0)
(3 -3.0418e-16 0)
(3 -3.95061e-16 0)
(3 -6.72363e-16 0)
(3 -9.74075e-16 0)
(3 -2.70524e-16 0)
(3 -7.59726e-16 0)
(3 -8.05475e-16 0)
(3 -8.64619e-16 0)
(3 -1.49691e-15 0)
(3 -2.90404e-15 0)
(3 -2.46036e-15 0)
(3 -1.46302e-15 0)
(3 -1.0334e-16 0)
(3 4.33189e-17 0)
(3 2.3508e-16 0)
(3 -4.69678e-17 0)
(3 4.74389e-17 0)
(3 -7.78375e-16 0)
(3 -1.28906e-15 0)
(3 -1.05321e-15 0)
(3 -8.95449e-08 0)
(1.86062 0.383927 0)
(0.808803 0.361351 0)
(0.701879 0.328064 0)
(0.687475 0.378249 0)
(0.677925 0.466054 0)
(0.654376 0.494865 0)
(0.628997 0.512227 0)
(0.582054 0.513203 0)
(0.519855 0.441465 0)
(0.440232 0.353121 0)
(0.424298 0.374846 0)
(0.487684 0.608703 0)
(0.474306 0.751214 0)
(0.509948 0.741265 0)
(0.44246 0.850386 0)
(0.248888 0.601673 0)
(0.124142 0.534911 0)
(0.0728856 0.621299 0)
(3 -7.87193e-17 0)
(3 -3.38495e-16 0)
(3 -5.69987e-16 0)
(3 -1.09446e-15 0)
(3 -9.28496e-16 0)
(3 -9.73457e-16 0)
(3 -4.96564e-16 0)
(3 -4.22141e-16 0)
(3 -7.17342e-16 0)
(3 -1.50915e-15 0)
(3 -2.80971e-15 0)
(3 -1.85253e-15 0)
(3 -1.66268e-15 0)
(3 -1.40127e-15 0)
(3 -1.14239e-15 0)
(3 -1.28155e-15 0)
(3 -1.34197e-15 0)
(3 -9.62388e-16 0)
(3 -5.26404e-16 0)
(3 -2.90777e-16 0)