/*--------------------------------*- C++ -*----------------------------------*\
  =========                 |
  \\      /  F ield         | OpenFOAM: The Open Source CFD Toolbox
   \\    /   O peration     | Website:  https://openfoam.org
    \\  /    A nd           | Version:  6.0
     \\/     M anipulation  |
\*---------------------------------------------------------------------------*/
FoamFile
{
    version     2.0;
    format      ascii;
    class       volVectorField;
    location    "1.000256";
    object      U;
}
// * * * * * * * * * * * * * * * * * * * * * * * * * * * * * * * * * * * * * //

dimensions      [0 1 -1 0 0 0 0];

internalField   nonuniform List<vector> 
24000
(
(3 -7.75786e-17 0)
(3 -8.64233e-16 0)
(3 1.37695e-15 0)
(3 -7.78076e-17 0)
(3 -3.59707e-16 0)
(3 -9.54534e-16 0)
(3 -2.66683e-15 0)
(3 -2.22254e-15 0)
(3 -1.56478e-15 0)
(3 -9.44392e-16 0)
(3 -3.68497e-16 0)
(1.3478 0.00713294 0)
(0.704753 0.00772554 0)
(0.622436 0.0130052 0)
(0.537768 0.0146771 0)
(0.447467 0.0144647 0)
(0.361929 0.0137215 0)
(0.26916 0.0143572 0)
(0.172566 0.0160903 0)
(0.0687009 0.0199171 0)
(3 -4.45507e-16 0)
(3 -1.71804e-15 0)
(3 -1.73696e-15 0)
(3 -1.73381e-15 0)
(3 -1.52502e-15 0)
(3 -1.29078e-16 0)
(3 5.09947e-16 0)
(3 -7.08847e-17 0)
(3 -3.20913e-15 0)
(3 -1.0434e-15 0)
(3 -5.81707e-16 0)
(1.34456 0.0253232 0)
(0.69668 0.0239782 0)
(0.611923 0.0363268 0)
(0.52696 0.0410219 0)
(0.437638 0.0413469 0)
(0.353872 0.04049 0)
(0.263666 0.0432302 0)
(0.169536 0.0485699 0)
(0.0682319 0.0598701 0)
(3 -4.95903e-16 0)
(3 -1.18456e-16 0)
(3 -2.46445e-15 0)
(3 -8.69332e-16 0)
(3 -2.33111e-15 0)
(3 -2.08848e-16 0)
(3 -1.22163e-16 0)
(3 3.59939e-16 0)
(3 -2.16427e-15 0)
(3 -2.48956e-15 0)
(3 -1.10931e-15 0)
(1.35108 0.0473938 0)
(0.691607 0.0421367 0)
(0.603538 0.0613745 0)
(0.517018 0.067723 0)
(0.427291 0.0671341 0)
(0.343821 0.0656762 0)
(0.255329 0.0709552 0)
(0.163537 0.0803169 0)
(0.0665369 0.0992707 0)
(3 1.18461e-16 0)
(3 1.17221e-16 0)
(3 -2.91793e-16 0)
(3 3.1992e-15 0)
(3 2.76553e-15 0)
(3 1.13896e-15 0)
(3 -9.96379e-16 0)
(3 -1.40289e-15 0)
(3 -1.20662e-15 0)
(3 -1.71306e-15 0)
(3 -9.77418e-16 0)
(1.36887 0.0713996 0)
(0.692083 0.0617345 0)
(0.602711 0.0876033 0)
(0.515415 0.0957249 0)
(0.424382 0.0940884 0)
(0.338529 0.0916431 0)
(0.248396 0.098678 0)
(0.157184 0.111597 0)
(0.0646045 0.137747 0)
(3 4.07203e-16 0)
(3 5.56795e-16 0)
(3 4.59779e-16 0)
(3 3.02858e-15 0)
(3 2.28537e-15 0)
(3 1.04285e-15 0)
(3 -1.09941e-15 0)
(3 -2.10943e-15 0)
(3 9.58091e-16 0)
(3 2.39668e-16 0)
(3 -8.01472e-16 0)
(1.39769 0.0942081 0)
(0.697988 0.0811276 0)
(0.609547 0.113333 0)
(0.523153 0.123479 0)
(0.431474 0.121176 0)
(0.342168 0.118775 0)
(0.247207 0.127918 0)
(0.152919 0.143169 0)
(0.0626883 0.175284 0)
(3 -7.18889e-17 0)
(3 -5.17677e-16 0)
(3 -6.25676e-16 0)
(3 -5.80787e-16 0)
(3 4.18509e-16 0)
(3 -2.60937e-16 0)
(3 -4.86998e-18 0)
(3 -1.21717e-15 0)
(3 -1.97115e-16 0)
(3 1.10862e-15 0)
(3 -1.19471e-15 0)
(1.43498 0.11417 0)
(0.706154 0.0991751 0)
(0.617063 0.138439 0)
(0.527729 0.152344 0)
(0.432235 0.15025 0)
(0.339739 0.147374 0)
(0.242656 0.157966 0)
(0.147653 0.174786 0)
(0.0605926 0.211777 0)
(3 2.79231e-16 0)
(3 8.20543e-16 0)
(3 8.24573e-16 0)
(3 2.80567e-16 0)
(3 -8.92015e-16 0)
(3 -1.11553e-15 0)
(3 -4.64308e-16 0)
(3 -5.96176e-16 0)
(3 -1.00103e-16 0)
(3 -3.02835e-15 0)
(3 -2.94993e-15 0)
(1.47745 0.132365 0)
(0.712936 0.117122 0)
(0.622076 0.163433 0)
(0.53121 0.181785 0)
(0.43443 0.18051 0)
(0.340468 0.17733 0)
(0.241404 0.188997 0)
(0.144861 0.206345 0)
(0.0596824 0.247181 0)
(3 1.03606e-16 0)
(3 6.9531e-16 0)
(3 -3.62343e-16 0)
(3 -1.1392e-15 0)
(3 -8.88215e-16 0)
(3 2.72958e-16 0)
(3 4.82974e-16 0)
(3 3.47966e-16 0)
(3 -4.55599e-16 0)
(3 -4.30362e-16 0)
(3 -1.72089e-15 0)
(1.52479 0.150529 0)
(0.718095 0.135936 0)
(0.624868 0.188333 0)
(0.533013 0.211223 0)
(0.435618 0.211141 0)
(0.341708 0.207979 0)
(0.242426 0.220882 0)
(0.144669 0.238225 0)
(0.0593119 0.282021 0)
(3 -2.97155e-16 0)
(3 3.59269e-16 0)
(3 3.43694e-16 0)
(3 -1.23327e-15 0)
(3 -3.66363e-16 0)
(3 6.04727e-17 0)
(3 7.2411e-16 0)
(3 -1.2919e-15 0)
(3 -1.49917e-15 0)
(3 1.53679e-16 0)
(3 -1.33266e-15 0)
(1.57852 0.169223 0)
(0.722563 0.156476 0)
(0.623232 0.214441 0)
(0.530194 0.240781 0)
(0.434686 0.241111 0)
(0.344098 0.238003 0)
(0.247123 0.252708 0)
(0.148659 0.270461 0)
(0.061985 0.317283 0)
(3 -7.28059e-17 0)
(3 1.0413e-15 0)
(3 4.23051e-16 0)
(3 -8.08475e-16 0)
(3 -1.08518e-15 0)
(3 5.8588e-16 0)
(3 7.31522e-16 0)
(3 -9.06382e-16 0)
(3 -6.62004e-16 0)
(3 -1.03842e-15 0)
(3 -4.66462e-16 0)
(1.64049 0.187132 0)
(0.72808 0.179763 0)
(0.618357 0.242362 0)
(0.525548 0.270508 0)
(0.434256 0.269854 0)
(0.348005 0.266614 0)
(0.25374 0.28417 0)
(0.154251 0.303813 0)
(0.0638275 0.354112 0)
(3 -2.12362e-17 0)
(3 -1.99083e-16 0)
(3 -7.40496e-16 0)
(3 -1.28546e-15 0)
(3 9.84559e-16 0)
(3 2.3554e-15 0)
(3 1.88916e-15 0)
(3 8.10057e-18 0)
(3 5.19527e-16 0)
(3 -3.28545e-16 0)
(3 -2.31523e-15 0)
(1.70846 0.203432 0)
(0.735556 0.20744 0)
(0.613314 0.273661 0)
(0.520109 0.300531 0)
(0.433966 0.297252 0)
(0.354814 0.293631 0)
(0.265326 0.314455 0)
(0.164861 0.337951 0)
(0.0695432 0.393143 0)
(3 -6.41197e-17 0)
(3 -1.55717e-15 0)
(3 -1.4539e-15 0)
(3 1.77298e-15 0)
(3 1.92448e-15 0)
(3 2.7628e-16 0)
(3 2.25712e-16 0)
(3 1.45224e-15 0)
(3 4.2209e-16 0)
(3 3.6361e-16 0)
(3 -3.56482e-15 0)
(1.77329 0.223467 0)
(0.734441 0.239419 0)
(0.599537 0.303812 0)
(0.511383 0.327824 0)
(0.436957 0.323011 0)
(0.366522 0.318709 0)
(0.279751 0.344897 0)
(0.175401 0.375213 0)
(0.0714095 0.435697 0)
(3 -1.39184e-16 0)
(3 -2.35112e-16 0)
(3 -3.10441e-16 0)
(3 -6.85717e-16 0)
(3 -4.09875e-16 0)
(3 -3.8138e-16 0)
(3 2.50568e-17 0)
(3 1.13104e-15 0)
(3 9.19696e-16 0)
(3 2.42022e-16 0)
(3 -1.02533e-15 0)
(1.84118 0.248065 0)
(0.72945 0.274956 0)
(0.58375 0.329889 0)
(0.510778 0.35317 0)
(0.44948 0.345472 0)
(0.384131 0.342496 0)
(0.2999 0.375542 0)
(0.192063 0.414471 0)
(0.079211 0.48137 0)
(3 -2.26615e-16 0)
(3 -1.60588e-15 0)
(3 -7.61188e-16 0)
(3 1.12509e-15 0)
(3 5.9424e-16 0)
(3 1.3885e-16 0)
(3 -8.34723e-16 0)
(3 -1.01974e-16 0)
(3 1.209e-15 0)
(3 5.38393e-16 0)
(3 -6.40185e-16 0)
(1.92816 0.287471 0)
(0.733619 0.319588 0)
(0.585155 0.358909 0)
(0.526761 0.372894 0)
(0.472079 0.364288 0)
(0.407458 0.365727 0)
(0.323322 0.408053 0)
(0.207954 0.459043 0)
(0.0816277 0.532625 0)
(3 -4.24196e-16 0)
(3 -3.3464e-16 0)
(3 2.76084e-16 0)
(3 -1.48886e-15 0)
(3 -1.30066e-15 0)
(3 -7.67542e-17 0)
(3 -1.22517e-15 0)
(3 -1.2179e-15 0)
(3 -8.35747e-16 0)
(3 -5.38544e-16 0)
(3 -8.72192e-16 0)
(2.06283 0.336329 0)
(0.766003 0.369622 0)
(0.612921 0.380041 0)
(0.56035 0.389367 0)
(0.506092 0.381639 0)
(0.437352 0.389145 0)
(0.351707 0.442432 0)
(0.229932 0.50726 0)
(0.0909686 0.588749 0)
(3 1.75208e-16 0)
(3 2.05033e-15 0)
(3 1.41783e-15 0)
(3 -3.26522e-16 0)
(3 6.18174e-17 0)
(3 -2.29617e-16 0)
(3 -4.0596e-16 0)
(3 1.47926e-16 0)
(3 -1.37704e-15 0)
(3 -4.08675e-16 0)
(3 2.67013e-16 0)
(2.27891 0.370677 0)
(0.84502 0.411018 0)
(0.674443 0.400833 0)
(0.617494 0.405336 0)
(0.553594 0.400511 0)
(0.474279 0.414637 0)
(0.385275 0.479084 0)
(0.254035 0.562458 0)
(0.094884 0.654007 0)
(3 -1.50491e-16 0)
(3 -2.1306e-16 0)
(3 3.25997e-16 0)
(3 5.39965e-16 0)
(3 1.34703e-15 0)
(3 1.80548e-15 0)
(3 2.01739e-15 0)
(3 2.56923e-15 0)
(3 6.02041e-16 0)
(3 -9.72664e-16 0)
(3 -1.49175e-15 0)
(2.57719 0.346741 0)
(0.964464 0.450095 0)
(0.764616 0.42127 0)
(0.692547 0.43028 0)
(0.611716 0.426301 0)
(0.517649 0.443326 0)
(0.423951 0.518292 0)
(0.287829 0.622398 0)
(0.10933 0.728678 0)
(3 4.34799e-16 0)
(3 5.26887e-17 0)
(3 2.73329e-17 0)
(3 1.85757e-15 0)
(3 1.05694e-16 0)
(3 1.31418e-17 0)
(3 1.30525e-15 0)
(3 1.69771e-15 0)
(3 5.12043e-16 0)
(3 1.31705e-15 0)
(3 -1.45214e-16 0)
(2.84405 0.236332 0)
(1.06868 0.453152 0)
(0.838201 0.438816 0)
(0.764576 0.447305 0)
(0.672135 0.453058 0)
(0.564201 0.476514 0)
(0.462494 0.562022 0)
(0.321094 0.692988 0)
(0.117656 0.822066 0)
(3 2.91698e-16 0)
(3 8.11789e-16 0)
(3 -3.10486e-16 0)
(3 -6.162e-16 0)
(3 5.14586e-16 0)
(3 -1.47823e-15 0)
(3 3.80418e-17 0)
(3 8.41541e-16 0)
(3 1.82995e-15 0)
(3 6.71632e-16 0)
(3 2.9833e-16 0)
(2.96959 0.131849 0)
(1.10548 0.446913 0)
(0.849985 0.470591 0)
(0.795287 0.478987 0)
(0.714854 0.484127 0)
(0.60769 0.512942 0)
(0.50157 0.611272 0)
(0.372645 0.767483 0)
(0.140272 0.930095 0)
(3 9.73259e-17 0)
(3 -2.11409e-16 0)
(3 -1.13477e-15 0)
(3 -9.31702e-16 0)
(3 -3.2095e-16 0)
(3 -3.80418e-16 0)
(3 1.47803e-15 0)
(3 1.7695e-15 0)
(3 1.14752e-15 0)
(3 -7.31418e-16 0)
(3 -1.50075e-15 0)
(2.98007 0.0713225 0)
(1.12997 0.450505 0)
(0.837643 0.486051 0)
(0.788913 0.502323 0)
(0.716209 0.517557 0)
(0.631533 0.550812 0)
(0.548903 0.652788 0)
(0.447742 0.843823 0)
(0.209944 1.10041 0)
(3 -1.10394e-17 0)
(3 -5.31716e-17 0)
(3 1.72093e-16 0)
(3 2.49111e-16 0)
(3 -4.59849e-17 0)
(3 -7.97958e-17 0)
(3 -2.68428e-16 0)
(3 -6.41673e-16 0)
(3 -3.95601e-16 0)
(3 -1.50303e-17 0)
(3 5.19437e-17 0)
(1.3478 0.00713294 0)
(0.704753 0.00772554 0)
(0.622436 0.0130052 0)
(0.537768 0.0146771 0)
(0.447467 0.0144647 0)
(0.361929 0.0137215 0)
(0.26916 0.0143572 0)
(0.172566 0.0160903 0)
(0.0687009 0.0199171 0)
(3 -2.67503e-16 0)
(3 -4.58476e-16 0)
(3 -7.39851e-16 0)
(3 -6.51286e-16 0)
(3 -4.64122e-16 0)
(3 -3.93391e-17 0)
(3 -9.3739e-17 0)
(3 -1.78864e-16 0)
(3 -8.42655e-17 0)
(3 -1.34314e-17 0)
(3 2.75644e-16 0)
(1.34456 0.0253232 0)
(0.69668 0.0239782 0)
(0.611923 0.0363268 0)
(0.52696 0.0410219 0)
(0.437638 0.0413469 0)
(0.353872 0.04049 0)
(0.263666 0.0432302 0)
(0.169536 0.0485699 0)
(0.0682319 0.0598701 0)
(3 -3.36162e-16 0)
(3 -1.34814e-16 0)
(3 -1.80021e-16 0)
(3 -2.60146e-16 0)
(3 -4.30092e-17 0)
(3 -2.00114e-16 0)
(3 6.89625e-16 0)
(3 4.21083e-16 0)
(3 -5.23372e-16 0)
(3 -5.01986e-16 0)
(3 -1.19646e-15 0)
(1.35108 0.0473938 0)
(0.691607 0.0421367 0)
(0.603538 0.0613745 0)
(0.517018 0.067723 0)
(0.427291 0.0671341 0)
(0.343821 0.0656762 0)
(0.255329 0.0709552 0)
(0.163537 0.0803169 0)
(0.0665369 0.0992707 0)
(3 -7.08115e-17 0)
(3 -6.16958e-17 0)
(3 -1.51487e-16 0)
(3 -1.58549e-16 0)
(3 -2.9671e-16 0)
(3 -3.86427e-16 0)
(3 1.26258e-16 0)
(3 -1.4818e-16 0)
(3 -5.35469e-16 0)
(3 -2.69736e-16 0)
(3 -3.06327e-17 0)
(1.36887 0.0713996 0)
(0.692083 0.0617345 0)
(0.602711 0.0876033 0)
(0.515415 0.0957249 0)
(0.424382 0.0940884 0)
(0.338529 0.0916431 0)
(0.248396 0.098678 0)
(0.157184 0.111597 0)
(0.0646045 0.137747 0)
(3 2.09335e-16 0)
(3 -2.89652e-16 0)
(3 -3.91402e-16 0)
(3 -5.06784e-16 0)
(3 1.45282e-16 0)
(3 -3.43089e-16 0)
(3 -7.02469e-16 0)
(3 -6.78525e-16 0)
(3 -5.8373e-16 0)
(3 -2.52057e-16 0)
(3 -1.61825e-16 0)
(1.39769 0.0942081 0)
(0.697988 0.0811276 0)
(0.609547 0.113333 0)
(0.523153 0.123479 0)
(0.431474 0.121176 0)
(0.342168 0.118775 0)
(0.247207 0.127918 0)
(0.152919 0.143169 0)
(0.0626883 0.175284 0)
(3 2.19273e-16 0)
(3 -8.62365e-17 0)
(3 6.74828e-17 0)
(3 -2.04518e-16 0)
(3 1.58693e-16 0)
(3 -5.92598e-17 0)
(3 -5.9557e-16 0)
(3 -2.59134e-16 0)
(3 -5.94581e-16 0)
(3 -9.64682e-16 0)
(3 -1.33162e-15 0)
(1.43498 0.11417 0)
(0.706154 0.0991751 0)
(0.617063 0.138439 0)
(0.527729 0.152344 0)
(0.432235 0.15025 0)
(0.339739 0.147374 0)
(0.242656 0.157966 0)
(0.147653 0.174786 0)
(0.0605926 0.211777 0)
(3 -1.33326e-16 0)
(3 -5.57178e-17 0)
(3 2.97793e-16 0)
(3 2.22375e-17 0)
(3 -5.32697e-16 0)
(3 -4.66944e-16 0)
(3 5.91018e-17 0)
(3 -2.86959e-16 0)
(3 -4.15521e-16 0)
(3 -1.1287e-15 0)
(3 -1.77244e-15 0)
(1.47745 0.132365 0)
(0.712936 0.117122 0)
(0.622076 0.163433 0)
(0.53121 0.181785 0)
(0.43443 0.18051 0)
(0.340468 0.17733 0)
(0.241404 0.188997 0)
(0.144861 0.206345 0)
(0.0596824 0.247181 0)
(3 -1.03396e-16 0)
(3 8.25653e-18 0)
(3 -1.26556e-16 0)
(3 -5.37876e-16 0)
(3 -6.56672e-16 0)
(3 -5.95019e-16 0)
(3 2.08344e-16 0)
(3 9.26386e-19 0)
(3 -7.43688e-17 0)
(3 8.07583e-17 0)
(3 -1.68205e-17 0)
(1.52479 0.150529 0)
(0.718095 0.135936 0)
(0.624868 0.188333 0)
(0.533013 0.211223 0)
(0.435618 0.211141 0)
(0.341708 0.207979 0)
(0.242426 0.220882 0)
(0.144669 0.238225 0)
(0.0593119 0.282021 0)
(3 -2.02731e-16 0)
(3 -8.22496e-17 0)
(3 1.34061e-16 0)
(3 -3.77067e-16 0)
(3 -2.48058e-16 0)
(3 -2.62367e-16 0)
(3 -1.36409e-16 0)
(3 3.09854e-16 0)
(3 3.43148e-16 0)
(3 4.87156e-16 0)
(3 -2.60351e-17 0)
(1.57852 0.169223 0)
(0.722563 0.156476 0)
(0.623232 0.214441 0)
(0.530194 0.240781 0)
(0.434686 0.241111 0)
(0.344098 0.238003 0)
(0.247123 0.252708 0)
(0.148659 0.270461 0)
(0.061985 0.317283 0)
(3 6.06231e-17 0)
(3 2.16331e-16 0)
(3 5.68093e-17 0)
(3 -2.59204e-16 0)
(3 -3.95692e-16 0)
(3 -1.94623e-16 0)
(3 -1.93319e-16 0)
(3 -1.96088e-16 0)
(3 -3.79864e-16 0)
(3 -3.39273e-16 0)
(3 -1.37938e-15 0)
(1.64049 0.187132 0)
(0.72808 0.179763 0)
(0.618357 0.242362 0)
(0.525548 0.270508 0)
(0.434256 0.269854 0)
(0.348005 0.266614 0)
(0.25374 0.28417 0)
(0.154251 0.303813 0)
(0.0638275 0.354112 0)
(3 1.97852e-16 0)
(3 4.07777e-16 0)
(3 -4.67723e-17 0)
(3 -5.51675e-16 0)
(3 2.67419e-16 0)
(3 1.97708e-16 0)
(3 -5.71552e-16 0)
(3 -7.05307e-16 0)
(3 -3.39663e-16 0)
(3 -2.64575e-16 0)
(3 -1.5761e-16 0)
(1.70846 0.203432 0)
(0.735556 0.20744 0)
(0.613314 0.273661 0)
(0.520109 0.300531 0)
(0.433966 0.297252 0)
(0.354814 0.293631 0)
(0.265326 0.314455 0)
(0.164861 0.337951 0)
(0.0695432 0.393143 0)
(3 -1.07089e-17 0)
(3 7.22405e-17 0)
(3 1.00295e-16 0)
(3 1.58712e-16 0)
(3 6.642e-16 0)
(3 2.5822e-16 0)
(3 1.73179e-16 0)
(3 3.6126e-16 0)
(3 1.00766e-15 0)
(3 7.8906e-16 0)
(3 1.43916e-15 0)
(1.77329 0.223467 0)
(0.734441 0.239419 0)
(0.599537 0.303812 0)
(0.511383 0.327824 0)
(0.436957 0.323011 0)
(0.366522 0.318709 0)
(0.279751 0.344897 0)
(0.175401 0.375213 0)
(0.0714095 0.435697 0)
(3 -2.83648e-16 0)
(3 -3.81673e-18 0)
(3 -4.33964e-16 0)
(3 -1.70053e-16 0)
(3 -2.23561e-16 0)
(3 -3.30351e-16 0)
(3 4.07482e-16 0)
(3 9.86854e-16 0)
(3 1.02401e-15 0)
(3 9.23704e-16 0)
(3 4.40918e-16 0)
(1.84118 0.248065 0)
(0.72945 0.274956 0)
(0.58375 0.329889 0)
(0.510778 0.35317 0)
(0.44948 0.345472 0)
(0.384131 0.342496 0)
(0.2999 0.375542 0)
(0.192063 0.414471 0)
(0.079211 0.48137 0)
(3 -3.40581e-16 0)
(3 -1.9978e-16 0)
(3 -6.76453e-16 0)
(3 -5.91192e-16 0)
(3 -5.76954e-18 0)
(3 2.50501e-16 0)
(3 3.39198e-16 0)
(3 4.5286e-16 0)
(3 -1.08627e-16 0)
(3 -2.70633e-16 0)
(3 -5.35317e-16 0)
(1.92816 0.287471 0)
(0.733619 0.319588 0)
(0.585155 0.358909 0)
(0.526761 0.372894 0)
(0.472079 0.364288 0)
(0.407458 0.365727 0)
(0.323322 0.408053 0)
(0.207954 0.459043 0)
(0.0816277 0.532625 0)
(3 -1.31797e-16 0)
(3 -2.4845e-16 0)
(3 -5.09004e-17 0)
(3 6.407e-16 0)
(3 6.80401e-16 0)
(3 5.9863e-16 0)
(3 1.1944e-16 0)
(3 6.97675e-17 0)
(3 -6.1812e-16 0)
(3 -3.58561e-16 0)
(3 -1.22857e-15 0)
(2.06283 0.336329 0)
(0.766003 0.369622 0)
(0.612921 0.380041 0)
(0.56035 0.389367 0)
(0.506092 0.381639 0)
(0.437352 0.389145 0)
(0.351707 0.442432 0)
(0.229932 0.50726 0)
(0.0909686 0.588749 0)
(3 -4.97178e-17 0)
(3 -2.17812e-17 0)
(3 2.19675e-16 0)
(3 2.07677e-16 0)
(3 2.9081e-17 0)
(3 1.31705e-16 0)
(3 9.22604e-17 0)
(3 -5.20385e-16 0)
(3 -3.08557e-16 0)
(3 -6.08979e-17 0)
(3 -8.08026e-16 0)
(2.27891 0.370677 0)
(0.84502 0.411018 0)
(0.674443 0.400833 0)
(0.617494 0.405336 0)
(0.553594 0.400511 0)
(0.474279 0.414637 0)
(0.385275 0.479084 0)
(0.254035 0.562458 0)
(0.094884 0.654007 0)
(3 1.44928e-16 0)
(3 3.27417e-16 0)
(3 1.86487e-16 0)
(3 -9.03207e-17 0)
(3 -1.86767e-16 0)
(3 -2.4056e-16 0)
(3 -6.9709e-16 0)
(3 -7.13203e-16 0)
(3 -5.00279e-16 0)
(3 -4.78389e-16 0)
(3 -1.81418e-15 0)
(2.57719 0.346741 0)
(0.964464 0.450095 0)
(0.764616 0.42127 0)
(0.692547 0.43028 0)
(0.611716 0.426301 0)
(0.517649 0.443326 0)
(0.423951 0.518292 0)
(0.287829 0.622398 0)
(0.10933 0.728678 0)
(3 -1.02394e-16 0)
(3 -5.87428e-17 0)
(3 -5.40853e-17 0)
(3 4.04731e-16 0)
(3 7.0702e-16 0)
(3 -6.963e-17 0)
(3 5.58628e-17 0)
(3 -1.48436e-16 0)
(3 -1.65571e-16 0)
(3 -5.92402e-17 0)
(3 -7.64584e-16 0)
(2.84405 0.236332 0)
(1.06868 0.453152 0)
(0.838201 0.438816 0)
(0.764576 0.447305 0)
(0.672135 0.453058 0)
(0.564201 0.476514 0)
(0.462494 0.562022 0)
(0.321094 0.692988 0)
(0.117656 0.822066 0)
(3 -1.52732e-16 0)
(3 -2.03082e-16 0)
(3 -1.13049e-16 0)
(3 1.26042e-16 0)
(3 4.53743e-16 0)
(3 -3.28747e-16 0)
(3 1.14428e-16 0)
(3 1.38989e-16 0)
(3 -1.30274e-16 0)
(3 -7.30581e-17 0)
(3 -5.75686e-16 0)
(2.96959 0.131849 0)
(1.10548 0.446913 0)
(0.849985 0.470591 0)
(0.795287 0.478987 0)
(0.714854 0.484127 0)
(0.60769 0.512942 0)
(0.50157 0.611272 0)
(0.372645 0.767483 0)
(0.140272 0.930095 0)
(3 2.35787e-16 0)
(3 -4.2631e-17 0)
(3 -4.08336e-16 0)
(3 -3.3079e-16 0)
(3 -2.85398e-16 0)
(3 -2.83581e-16 0)
(3 -5.40443e-16 0)
(3 -4.14484e-16 0)
(3 -2.69907e-17 0)
(3 -3.34886e-16 0)
(3 -5.93555e-16 0)
(2.98007 0.0713225 0)
(1.12997 0.450505 0)
(0.837643 0.486051 0)
(0.788913 0.502323 0)
(0.716209 0.517557 0)
(0.631533 0.550812 0)
(0.548903 0.652788 0)
(0.447742 0.843823 0)
(0.209944 1.10041 0)
(3 9.31837e-17 0)
(3 -3.47711e-17 0)
(3 6.19618e-17 0)
(3 3.11832e-16 0)
(3 8.4343e-18 0)
(3 -9.08852e-17 0)
(3 -1.96891e-16 0)
(3 -5.81237e-17 0)
(3 -3.37745e-16 0)
(3 6.72682e-17 0)
(3 3.72443e-16 0)
(1.3478 0.00713294 0)
(0.704753 0.00772554 0)
(0.622436 0.0130052 0)
(0.537768 0.0146771 0)
(0.447467 0.0144647 0)
(0.361929 0.0137215 0)
(0.26916 0.0143572 0)
(0.172566 0.0160903 0)
(0.0687009 0.0199171 0)
(3 -1.49781e-16 0)
(3 -3.56702e-16 0)
(3 -3.88047e-16 0)
(3 -2.27177e-16 0)
(3 -1.74005e-16 0)
(3 -1.67621e-17 0)
(3 8.20213e-17 0)
(3 2.06438e-16 0)
(3 3.75764e-18 0)
(3 7.84865e-17 0)
(3 3.33618e-16 0)
(1.34456 0.0253232 0)
(0.69668 0.0239782 0)
(0.611923 0.0363268 0)
(0.52696 0.0410219 0)
(0.437638 0.0413469 0)
(0.353872 0.04049 0)
(0.263666 0.0432302 0)
(0.169536 0.0485699 0)
(0.0682319 0.0598701 0)
(3 -5.54578e-17 0)
(3 -2.80923e-16 0)
(3 -2.65088e-16 0)
(3 -3.16577e-16 0)
(3 -3.37129e-16 0)
(3 -1.84002e-16 0)
(3 1.75181e-17 0)
(3 1.65584e-16 0)
(3 -3.19835e-16 0)
(3 -7.249e-16 0)
(3 -7.9764e-16 0)
(1.35108 0.0473938 0)
(0.691607 0.0421367 0)
(0.603538 0.0613745 0)
(0.517018 0.067723 0)
(0.427291 0.0671341 0)
(0.343821 0.0656762 0)
(0.255329 0.0709552 0)
(0.163537 0.0803169 0)
(0.0665369 0.0992707 0)
(3 -2.59495e-16 0)
(3 -3.18924e-16 0)
(3 -8.97968e-17 0)
(3 -1.98721e-16 0)
(3 -2.45255e-16 0)
(3 -5.39159e-16 0)
(3 -3.045e-16 0)
(3 -2.85986e-16 0)
(3 -6.36168e-16 0)
(3 -5.77421e-16 0)
(3 -8.44108e-16 0)
(1.36887 0.0713996 0)
(0.692083 0.0617345 0)
(0.602711 0.0876033 0)
(0.515415 0.0957249 0)
(0.424382 0.0940884 0)
(0.338529 0.0916431 0)
(0.248396 0.098678 0)
(0.157184 0.111597 0)
(0.0646045 0.137747 0)
(3 -1.48373e-16 0)
(3 -2.94312e-16 0)
(3 -4.81439e-16 0)
(3 -7.09953e-16 0)
(3 -4.22673e-16 0)
(3 -4.6356e-16 0)
(3 -4.77108e-16 0)
(3 -6.81004e-16 0)
(3 -9.16255e-16 0)
(3 -4.53993e-16 0)
(3 -2.68818e-16 0)
(1.39769 0.0942081 0)
(0.697988 0.0811276 0)
(0.609547 0.113333 0)
(0.523153 0.123479 0)
(0.431474 0.121176 0)
(0.342168 0.118775 0)
(0.247207 0.127918 0)
(0.152919 0.143169 0)
(0.0626883 0.175284 0)
(3 2.46894e-16 0)
(3 2.04277e-16 0)
(3 3.72878e-17 0)
(3 -1.03685e-16 0)
(3 -3.88576e-16 0)
(3 -3.15256e-16 0)
(3 -3.79603e-16 0)
(3 -5.13059e-16 0)
(3 -5.72563e-16 0)
(3 -4.14291e-16 0)
(3 -7.8749e-16 0)
(1.43498 0.11417 0)
(0.706154 0.0991751 0)
(0.617063 0.138439 0)
(0.527729 0.152344 0)
(0.432235 0.15025 0)
(0.339739 0.147374 0)
(0.242656 0.157966 0)
(0.147653 0.174786 0)
(0.0605926 0.211777 0)
(3 6.84819e-17 0)
(3 1.19171e-16 0)
(3 3.69417e-16 0)
(3 6.05596e-16 0)
(3 -4.50767e-16 0)
(3 -4.44175e-16 0)
(3 -1.25249e-16 0)
(3 -2.29188e-16 0)
(3 -1.73913e-16 0)
(3 -4.73324e-16 0)
(3 -1.92453e-15 0)
(1.47745 0.132365 0)
(0.712936 0.117122 0)
(0.622076 0.163433 0)
(0.53121 0.181785 0)
(0.43443 0.18051 0)
(0.340468 0.17733 0)
(0.241404 0.188997 0)
(0.144861 0.206345 0)
(0.0596824 0.247181 0)
(3 -9.13227e-17 0)
(3 1.39314e-16 0)
(3 3.16629e-16 0)
(3 -3.00109e-17 0)
(3 -5.14487e-16 0)
(3 -7.28535e-16 0)
(3 4.26002e-17 0)
(3 1.90701e-17 0)
(3 3.00385e-18 0)
(3 -1.76307e-16 0)
(3 -1.274e-15 0)
(1.52479 0.150529 0)
(0.718095 0.135936 0)
(0.624868 0.188333 0)
(0.533013 0.211223 0)
(0.435618 0.211141 0)
(0.341708 0.207979 0)
(0.242426 0.220882 0)
(0.144669 0.238225 0)
(0.0593119 0.282021 0)
(3 6.08802e-17 0)
(3 1.52943e-16 0)
(3 -1.73794e-16 0)
(3 -1.4734e-17 0)
(3 -1.24611e-16 0)
(3 -2.80326e-16 0)
(3 -2.46025e-16 0)
(3 -6.47524e-17 0)
(3 1.85911e-16 0)
(3 3.87787e-16 0)
(3 1.29586e-16 0)
(1.57852 0.169223 0)
(0.722563 0.156476 0)
(0.623232 0.214441 0)
(0.530194 0.240781 0)
(0.434686 0.241111 0)
(0.344098 0.238003 0)
(0.247123 0.252708 0)
(0.148659 0.270461 0)
(0.061985 0.317283 0)
(3 2.53327e-16 0)
(3 1.14606e-16 0)
(3 1.71782e-16 0)
(3 -8.3163e-17 0)
(3 -3.25676e-16 0)
(3 -8.42273e-17 0)
(3 -4.70574e-16 0)
(3 -4.58647e-16 0)
(3 -3.19481e-16 0)
(3 -1.96246e-16 0)
(3 -5.41482e-16 0)
(1.64049 0.187132 0)
(0.72808 0.179763 0)
(0.618357 0.242362 0)
(0.525548 0.270508 0)
(0.434256 0.269854 0)
(0.348005 0.266614 0)
(0.25374 0.28417 0)
(0.154251 0.303813 0)
(0.0638275 0.354112 0)
(3 6.20035e-17 0)
(3 3.34714e-16 0)
(3 4.41012e-16 0)
(3 -3.40898e-16 0)
(3 -2.04351e-16 0)
(3 1.65357e-16 0)
(3 -2.22953e-16 0)
(3 -5.79638e-16 0)
(3 -6.32232e-16 0)
(3 5.61569e-17 0)
(3 -8.31913e-16 0)
(1.70846 0.203432 0)
(0.735556 0.20744 0)
(0.613314 0.273661 0)
(0.520109 0.300531 0)
(0.433966 0.297252 0)
(0.354814 0.293631 0)
(0.265326 0.314455 0)
(0.164861 0.337951 0)
(0.0695432 0.393143 0)
(3 -1.64859e-16 0)
(3 2.34345e-16 0)
(3 -1.51447e-17 0)
(3 4.7442e-17 0)
(3 4.55013e-16 0)
(3 3.56735e-16 0)
(3 1.04491e-16 0)
(3 1.03547e-16 0)
(3 4.70609e-16 0)
(3 6.91303e-16 0)
(3 6.71133e-16 0)
(1.77329 0.223467 0)
(0.734441 0.239419 0)
(0.599537 0.303812 0)
(0.511383 0.327824 0)
(0.436957 0.323011 0)
(0.366522 0.318709 0)
(0.279751 0.344897 0)
(0.175401 0.375213 0)
(0.0714095 0.435697 0)
(3 3.22133e-17 0)
(3 -5.33018e-17 0)
(3 -1.43165e-16 0)
(3 -9.26392e-19 0)
(3 3.36801e-16 0)
(3 8.44599e-17 0)
(3 4.67044e-16 0)
(3 7.16181e-16 0)
(3 9.69915e-16 0)
(3 9.87854e-16 0)
(3 9.97273e-16 0)
(1.84118 0.248065 0)
(0.72945 0.274956 0)
(0.58375 0.329889 0)
(0.510778 0.35317 0)
(0.44948 0.345472 0)
(0.384131 0.342496 0)
(0.2999 0.375542 0)
(0.192063 0.414471 0)
(0.079211 0.48137 0)
(3 -2.88918e-16 0)
(3 -2.58674e-16 0)
(3 -4.22009e-16 0)
(3 -7.74404e-17 0)
(3 -3.17941e-17 0)
(3 2.32156e-16 0)
(3 4.55181e-16 0)
(3 8.1745e-16 0)
(3 3.19248e-16 0)
(3 -5.62041e-17 0)
(3 -1.55157e-16 0)
(1.92816 0.287471 0)
(0.733619 0.319588 0)
(0.585155 0.358909 0)
(0.526761 0.372894 0)
(0.472079 0.364288 0)
(0.407458 0.365727 0)
(0.323322 0.408053 0)
(0.207954 0.459043 0)
(0.0816277 0.532625 0)
(3 -2.54023e-16 0)
(3 2.04907e-17 0)
(3 -2.98645e-16 0)
(3 3.3138e-16 0)
(3 2.94873e-16 0)
(3 6.03692e-16 0)
(3 3.71553e-16 0)
(3 2.82908e-16 0)
(3 -2.77681e-16 0)
(3 -3.56917e-16 0)
(3 -1.36058e-15 0)
(2.06283 0.336329 0)
(0.766003 0.369622 0)
(0.612921 0.380041 0)
(0.56035 0.389367 0)
(0.506092 0.381639 0)
(0.437352 0.389145 0)
(0.351707 0.442432 0)
(0.229932 0.50726 0)
(0.0909686 0.588749 0)
(3 3.44582e-17 0)
(3 -2.07328e-16 0)
(3 1.67945e-16 0)
(3 -6.24198e-17 0)
(3 1.96646e-16 0)
(3 2.50205e-16 0)
(3 3.38475e-16 0)
(3 -5.02026e-16 0)
(3 -7.09056e-16 0)
(3 -6.28243e-17 0)
(3 -8.12114e-16 0)
(2.27891 0.370677 0)
(0.84502 0.411018 0)
(0.674443 0.400833 0)
(0.617494 0.405336 0)
(0.553594 0.400511 0)
(0.474279 0.414637 0)
(0.385275 0.479084 0)
(0.254035 0.562458 0)
(0.094884 0.654007 0)
(3 -1.16738e-16 0)
(3 -1.32802e-16 0)
(3 -6.81384e-18 0)
(3 -1.50195e-16 0)
(3 3.81419e-16 0)
(3 -1.6381e-16 0)
(3 -4.46171e-16 0)
(3 -4.90765e-16 0)
(3 -4.12311e-16 0)
(3 -3.55158e-16 0)
(3 -4.29424e-16 0)
(2.57719 0.346741 0)
(0.964464 0.450095 0)
(0.764616 0.42127 0)
(0.692547 0.43028 0)
(0.611716 0.426301 0)
(0.517649 0.443326 0)
(0.423951 0.518292 0)
(0.287829 0.622398 0)
(0.10933 0.728678 0)
(3 -1.13265e-16 0)
(3 -2.1107e-16 0)
(3 -2.51454e-16 0)
(3 3.79245e-16 0)
(3 5.13154e-16 0)
(3 2.15823e-16 0)
(3 -2.79805e-16 0)
(3 -1.095e-17 0)
(3 -1.254e-16 0)
(3 -1.9781e-16 0)
(3 -5.20728e-16 0)
(2.84405 0.236332 0)
(1.06868 0.453152 0)
(0.838201 0.438816 0)
(0.764576 0.447305 0)
(0.672135 0.453058 0)
(0.564201 0.476514 0)
(0.462494 0.562022 0)
(0.321094 0.692988 0)
(0.117656 0.822066 0)
(3 -1.75497e-16 0)
(3 -4.23101e-16 0)
(3 -1.99457e-16 0)
(3 1.33552e-16 0)
(3 7.59642e-17 0)
(3 -2.05781e-17 0)
(3 9.15786e-17 0)
(3 -7.50651e-17 0)
(3 -6.13989e-17 0)
(3 -7.28488e-17 0)
(3 -8.05366e-16 0)
(2.96959 0.131849 0)
(1.10548 0.446913 0)
(0.849985 0.470591 0)
(0.795287 0.478987 0)
(0.714854 0.484127 0)
(0.60769 0.512942 0)
(0.50157 0.611272 0)
(0.372645 0.767483 0)
(0.140272 0.930095 0)
(3 1.7425e-16 0)
(3 1.89005e-16 0)
(3 -1.81598e-16 0)
(3 -3.26917e-16 0)
(3 -3.26119e-16 0)
(3 -3.2775e-16 0)
(3 -4.02412e-16 0)
(3 -7.69912e-16 0)
(3 -6.06976e-16 0)
(3 -2.8651e-16 0)
(3 -3.99921e-16 0)
(2.98007 0.0713225 0)
(1.12997 0.450505 0)
(0.837643 0.486051 0)
(0.788913 0.502323 0)
(0.716209 0.517557 0)
(0.631533 0.550812 0)
(0.548903 0.652788 0)
(0.447742 0.843823 0)
(0.209944 1.10041 0)
(3 1.50613e-16 0)
(3 -5.00651e-17 0)
(3 3.91219e-17 0)
(3 -1.09252e-16 0)
(3 -6.90645e-17 0)
(3 -2.47143e-16 0)
(3 -2.87966e-16 0)
(3 -5.51534e-19 0)
(3 -1.16022e-17 0)
(3 -6.81576e-17 0)
(3 -3.50786e-16 0)
(1.3478 0.00713294 0)
(0.704753 0.00772554 0)
(0.622436 0.0130052 0)
(0.537768 0.0146771 0)
(0.447467 0.0144647 0)
(0.361929 0.0137215 0)
(0.26916 0.0143572 0)
(0.172566 0.0160903 0)
(0.0687009 0.0199171 0)
(3 1.03017e-16 0)
(3 -5.09601e-16 0)
(3 -3.95038e-16 0)
(3 -4.91291e-16 0)
(3 -6.38796e-16 0)
(3 -2.44443e-16 0)
(3 -1.38125e-16 0)
(3 2.81716e-16 0)
(3 1.21324e-16 0)
(3 -3.28705e-16 0)
(3 1.12811e-16 0)
(1.34456 0.0253232 0)
(0.69668 0.0239782 0)
(0.611923 0.0363268 0)
(0.52696 0.0410219 0)
(0.437638 0.0413469 0)
(0.353872 0.04049 0)
(0.263666 0.0432302 0)
(0.169536 0.0485699 0)
(0.0682319 0.0598701 0)
(3 -1.22337e-16 0)
(3 -4.37533e-16 0)
(3 -5.14935e-16 0)
(3 -8.76121e-16 0)
(3 -6.65432e-16 0)
(3 -3.6562e-16 0)
(3 -3.6406e-16 0)
(3 -1.0339e-16 0)
(3 -4.3291e-16 0)
(3 -4.82115e-16 0)
(3 -3.72451e-17 0)
(1.35108 0.0473938 0)
(0.691607 0.0421367 0)
(0.603538 0.0613745 0)
(0.517018 0.067723 0)
(0.427291 0.0671341 0)
(0.343821 0.0656762 0)
(0.255329 0.0709552 0)
(0.163537 0.0803169 0)
(0.0665369 0.0992707 0)
(3 -4.73952e-16 0)
(3 -2.89459e-16 0)
(3 -2.21342e-16 0)
(3 -3.46468e-16 0)
(3 -2.27577e-16 0)
(3 -7.03402e-16 0)
(3 -6.68991e-16 0)
(3 -4.53844e-16 0)
(3 -5.7058e-16 0)
(3 -2.48371e-16 0)
(3 -6.64103e-16 0)
(1.36887 0.0713996 0)
(0.692083 0.0617345 0)
(0.602711 0.0876033 0)
(0.515415 0.0957249 0)
(0.424382 0.0940884 0)
(0.338529 0.0916431 0)
(0.248396 0.098678 0)
(0.157184 0.111597 0)
(0.0646045 0.137747 0)
(3 -6.05201e-17 0)
(3 -2.77018e-16 0)
(3 -2.67858e-16 0)
(3 -9.82545e-18 0)
(3 -2.29843e-16 0)
(3 -6.55264e-16 0)
(3 -4.34235e-16 0)
(3 -4.79367e-16 0)
(3 -7.20638e-16 0)
(3 -5.62789e-16 0)
(3 -7.14887e-16 0)
(1.39769 0.0942081 0)
(0.697988 0.0811276 0)
(0.609547 0.113333 0)
(0.523153 0.123479 0)
(0.431474 0.121176 0)
(0.342168 0.118775 0)
(0.247207 0.127918 0)
(0.152919 0.143169 0)
(0.0626883 0.175284 0)
(3 3.73964e-16 0)
(3 1.48228e-16 0)
(3 -4.02194e-18 0)
(3 2.3058e-16 0)
(3 -1.15347e-16 0)
(3 -2.13255e-16 0)
(3 -5.84031e-16 0)
(3 -6.04508e-16 0)
(3 -6.0135e-16 0)
(3 -3.43462e-16 0)
(3 -1.08837e-15 0)
(1.43498 0.11417 0)
(0.706154 0.0991751 0)
(0.617063 0.138439 0)
(0.527729 0.152344 0)
(0.432235 0.15025 0)
(0.339739 0.147374 0)
(0.242656 0.157966 0)
(0.147653 0.174786 0)
(0.0605926 0.211777 0)
(3 2.34971e-16 0)
(3 5.36963e-16 0)
(3 5.69468e-16 0)
(3 1.96088e-16 0)
(3 -5.72133e-16 0)
(3 -3.27603e-16 0)
(3 -1.01637e-17 0)
(3 -2.61853e-16 0)
(3 -1.99928e-16 0)
(3 -4.64416e-16 0)
(3 -2.99753e-16 0)
(1.47745 0.132365 0)
(0.712936 0.117122 0)
(0.622076 0.163433 0)
(0.53121 0.181785 0)
(0.43443 0.18051 0)
(0.340468 0.17733 0)
(0.241404 0.188997 0)
(0.144861 0.206345 0)
(0.0596824 0.247181 0)
(3 -2.78353e-17 0)
(3 6.16305e-16 0)
(3 6.71067e-16 0)
(3 2.41722e-16 0)
(3 -5.48456e-16 0)
(3 -7.37469e-16 0)
(3 1.55811e-16 0)
(3 9.6489e-17 0)
(3 7.89819e-18 0)
(3 -5.8063e-16 0)
(3 -8.57118e-16 0)
(1.52479 0.150529 0)
(0.718095 0.135936 0)
(0.624868 0.188333 0)
(0.533013 0.211223 0)
(0.435618 0.211141 0)
(0.341708 0.207979 0)
(0.242426 0.220882 0)
(0.144669 0.238225 0)
(0.0593119 0.282021 0)
(3 2.60333e-17 0)
(3 -5.8761e-17 0)
(3 -2.28232e-16 0)
(3 -2.26636e-17 0)
(3 2.44918e-16 0)
(3 -3.43951e-17 0)
(3 -4.49745e-16 0)
(3 -4.29097e-16 0)
(3 -2.16133e-16 0)
(3 6.12491e-17 0)
(3 -1.31287e-15 0)
(1.57852 0.169223 0)
(0.722563 0.156476 0)
(0.623232 0.214441 0)
(0.530194 0.240781 0)
(0.434686 0.241111 0)
(0.344098 0.238003 0)
(0.247123 0.252708 0)
(0.148659 0.270461 0)
(0.061985 0.317283 0)
(3 9.10245e-17 0)
(3 8.44962e-17 0)
(3 4.94638e-17 0)
(3 -2.26387e-16 0)
(3 -2.24635e-16 0)
(3 -8.50498e-17 0)
(3 -7.69621e-16 0)
(3 -8.75272e-16 0)
(3 -3.08856e-16 0)
(3 -3.12752e-17 0)
(3 -3.27124e-16 0)
(1.64049 0.187132 0)
(0.72808 0.179763 0)
(0.618357 0.242362 0)
(0.525548 0.270508 0)
(0.434256 0.269854 0)
(0.348005 0.266614 0)
(0.25374 0.28417 0)
(0.154251 0.303813 0)
(0.0638275 0.354112 0)
(3 1.19316e-16 0)
(3 2.94311e-16 0)
(3 1.83905e-16 0)
(3 -4.5406e-16 0)
(3 -6.35898e-16 0)
(3 -3.21432e-16 0)
(3 -3.23642e-16 0)
(3 -3.47033e-16 0)
(3 -3.68925e-16 0)
(3 -8.71039e-17 0)
(3 -1.17412e-16 0)
(1.70846 0.203432 0)
(0.735556 0.20744 0)
(0.613314 0.273661 0)
(0.520109 0.300531 0)
(0.433966 0.297252 0)
(0.354814 0.293631 0)
(0.265326 0.314455 0)
(0.164861 0.337951 0)
(0.0695432 0.393143 0)
(3 1.52149e-17 0)
(3 1.13495e-16 0)
(3 1.15989e-17 0)
(3 1.35835e-16 0)
(3 3.15121e-16 0)
(3 2.89514e-16 0)
(3 1.27732e-16 0)
(3 2.46814e-16 0)
(3 1.98615e-16 0)
(3 6.80834e-16 0)
(3 -3.00356e-16 0)
(1.77329 0.223467 0)
(0.734441 0.239419 0)
(0.599537 0.303812 0)
(0.511383 0.327824 0)
(0.436957 0.323011 0)
(0.366522 0.318709 0)
(0.279751 0.344897 0)
(0.175401 0.375213 0)
(0.0714095 0.435697 0)
(3 -2.07625e-16 0)
(3 -1.90098e-16 0)
(3 1.47492e-17 0)
(3 3.31727e-16 0)
(3 6.4835e-16 0)
(3 5.70046e-16 0)
(3 5.5065e-16 0)
(3 6.07888e-16 0)
(3 7.44396e-16 0)
(3 6.07761e-16 0)
(3 1.24749e-16 0)
(1.84118 0.248065 0)
(0.72945 0.274956 0)
(0.58375 0.329889 0)
(0.510778 0.35317 0)
(0.44948 0.345472 0)
(0.384131 0.342496 0)
(0.2999 0.375542 0)