/*--------------------------------*- C++ -*----------------------------------*\
  =========                 |
  \\      /  F ield         | OpenFOAM: The Open Source CFD Toolbox
   \\    /   O peration     | Website:  https://openfoam.org
    \\  /    A nd           | Version:  6.0
     \\/     M anipulation  |
\*---------------------------------------------------------------------------*/
FoamFile
{
    version     2.0;
    format      ascii;
    class       volScalarField;
    location    "0.999675";
    object      p;
}
// * * * * * * * * * * * * * * * * * * * * * * * * * * * * * * * * * * * * * //

dimensions      [1 -1 -2 0 0 0 0];

internalField   nonuniform List<scalar> 
1200
(
1
1
1
1
1
1
1
1
1
1
1
5.45797
10.7636
10.9732
11.2368
11.4342
11.4937
11.5686
11.9489
12.3154
1
1
1
1
1
1
1
1
1
1
1
5.44318
10.7777
11.027
11.2366
11.4465
11.6157
11.7694
11.8851
12.0853
1
1
1
1
1
1
1
1
1
1
1
5.4001
10.7804
11.0465
11.2373
11.4604
11.7236
11.9386
11.8685
11.7455
1
1
1
1
1
1
1
1
1
1
1
5.32158
10.7571
11.0056
11.2113
11.4765
11.7673
11.9494
11.8439
11.6376
1
1
1
1
1
1
1
1
1
1
1
5.20818
10.7079
10.9365
11.171
11.4519
11.6907
11.8544
11.8548
11.8326
1
1
1
1
1
1
1
1
1
1
1
5.07706
10.6285
10.8793
11.1223
11.3898
11.5781
11.6991
11.8633
12.0896
1
1
1
1
1
1
1
1
1
1
1
4.9332
10.54
10.8721
11.0975
11.3622
11.5353
11.5787
11.8082
12.1368
1
1
1
1
1
1
1
1
1
1
1
4.76851
10.4447
10.8645
11.1206
11.4147
11.5599
11.5289
11.7028
11.9712
1
1
1
1
1
1
1
1
1
1
1
4.58198
10.3519
10.8457
11.1539
11.4505
11.528
11.522
11.5826
11.7016
1
1
1
1
1
1
1
1
1
1
1
4.37343
10.2849
10.847
11.08
11.2692
11.3881
11.4987
11.4853
11.4589
1
1
1
1
1
1
1
1
1
1
1
4.14849
10.2635
10.8527
10.9108
11.012
11.2066
11.4432
11.4858
11.4095
1
1
1
1
1
1
1
1
1
1
1
3.89806
10.1088
10.7654
10.7725
10.8139
11.0971
11.4015
11.5353
11.6193
1
1
1
1
1
1
1
1
1
1
1
3.61541
9.82256
10.6375
10.7036
10.8062
11.0414
11.3701
11.5764
11.8021
1
1
1
1
1
1
1
1
1
1
1
3.34214
9.4957
10.4964
10.8378
11.0262
11.0021
11.2477
11.4766
11.416
1
1
1
1
1
1
1
1
1
1
1
3.08976
9.20723
10.4388
10.8584
11.1027
11.0119
11.1654
11.1651
10.9461
1
1
1
1
1
1
1
1
1
1
1
2.82477
9.16801
10.545
10.6237
10.8264
11.0337
11.0498
10.8237
10.4845
1
1
1
1
1
1
1
1
1
1
1
2.4178
9.05167
10.6259
10.3076
10.4017
10.8609
10.8235
10.4643
10.3736
1
1
1
1
1
1
1
1
1
1
1
1.95498
8.56113
10.3935
10.0779
10.1867
10.6302
10.5912
10.1338
10.1152
1
1
1
1
1
1
1
1
1
1
1
1.62156
8.13069
10.1188
10.0794
10.3776
10.826
11.0253
10.0274
9.68538
1
1
1
1
1
1
1
1
1
1
1
1.31747
7.86086
10.3538
10.7655
10.8912
10.6408
10.8393
10.2465
9.26271
1
1
1
1
1
1
1
1
1
1
1
1.02286
6.44026
10.2693
10.3935
10.3524
9.91712
9.49283
9.19575
7.26382
1
1
1
1
1
1
1
1
1
1
1
1.00005
3.72018
9.19903
9.70073
9.64761
9.49908
8.99265
8.10928
6.47485
1
1
1
1
1
1
1
1
1
1
1
1
1.40921
7.38164
9.50441
9.36536
9.16418
8.55988
7.51153
6.18448
1
1
1
1
1
1
1
1
1
1
1
1
1.01015
4.18335
8.7288
8.98795
8.55964
8.00394
7.18659
6.17125
1
1
1
1
1
1
1
1
1
1
1
1
0.999995
1.42513
6.51086
8.73335
8.22231
7.72022
7.015
6.16301
1
1
1
1
1
1
1
1
1
1
1
1
0.999999
1.00902
2.5695
7.44819
8.11028
7.54598
6.92912
6.22446
1
1
1
1
1
1
1
1
1
1
1
1
1
1.00002
1.10397
4.07289
7.49356
7.49956
6.88498
6.28626
1
1
1
1
1
1
1
1
1
1
1
1
1
1
1.00079
1.41343
4.78411
7.28284
7.02341
6.38461
1
1
1
1
1
1
1
1
1
1
1
1
1
1
1
1.00882
1.70112
5.05322
6.84178
6.60781
1
1
1
1
1
1
1
1
1
1
1
1
1
1
1
1.00003
1.02344
1.90336
4.94837
6.3755
1
1
1
1
1
1
1
1
1
1
1
1
1
1
1
1
1.00011
1.03939
1.9337
4.82814
1
1
1
1
1
1
1
1
1
1
1
1
1
1
1
1
1
1.00027
1.04219
2.09596
1
1
1
1
1
1
1
1
1
1
1
1
1
1
1
1
1
1
1.00029
1.06262
1
1
1
1
1
1
1
1
1
1
1
1
1
1
1
1
1
1
1
1.00029
1
1
1
1
1
1
1
1
1
1
1
1
1
1
1
1
1
1
1
1
1
1
1
1
1
1
1
1
1
1
1
1
1
1
1
1
1
1
1
1
1
1
1
1
1
1
1
1
1
1
1
1
1
1
1
1
1
1
1
1
1
1
1
1
1
1
1
1
1
1
1
1
1
1
1
1
1
1
1
1
1
1
1
1
1
1
1
1
1
1
1
1
1
1
1
1
1
1
1
1
1
1
1
1
1
1
1
1
1
1
1
1
1
1
1
1
1
1
1
1
1.05779
0.927355
1.10363
1.20211
1.20073
1.15438
1.0878
1.00435
0.921816
0.859836
0.847691
0.847368
0.85091
0.847912
0.843313
0.832845
0.831902
0.84629
0.87394
0.920838
2.58391
1.21817
1.10486
1.12524
1.1242
1.11135
1.06549
0.991133
0.917246
0.864928
0.855995
0.85497
0.857283
0.853699
0.847839
0.8368
0.828498
0.840841
0.866091
0.910454
3.41281
1.48593
1.1103
1.09951
1.11424
1.10643
1.05896
0.983126
0.925715
0.881524
0.862961
0.858163
0.855091
0.851211
0.846244
0.84206
0.839722
0.849324
0.867999
0.905349
3.9425
1.95456
1.33028
1.07929
1.06471
1.08058
1.04333
0.970724
0.915341
0.882673
0.865277
0.859043
0.854193
0.848184
0.838484
0.824723
0.821972
0.834236
0.856069
0.899684
4.30535
2.40646
1.53363
1.14432
1.04955
1.06158
1.00598
0.948274
0.903593
0.875844
0.85886
0.852669
0.850463
0.847535
0.837557
0.816832
0.81706
0.830505
0.845383
0.886588
4.55366
2.81604
1.82125
1.37402
1.09917
1.04341
0.958781
0.908404
0.898597
0.882883
0.859748
0.842887
0.838398
0.842985
0.851402
0.87517
0.959046
1.02775
1.01973
0.979241
4.76916
3.12948
2.11686
1.57971
1.18697
1.04478
0.942613
0.897513
0.902755
0.905869
0.882254
0.854988
0.855892
0.894139
0.998001
1.14255
1.30209
1.41235
1.42875
1.29311
4.97407
3.43595
2.3843
1.77795
1.34419
1.11351
0.971151
0.91032
0.905605
0.907871
0.886915
0.888051
0.990059
1.21348
1.42001
1.53995
1.57789
1.61384
1.65968
1.57788
5.15052
3.69888
2.64469
1.9715
1.49883
1.19681
1.02505
0.935704
0.901547
0.884592
0.895815
1.05602
1.41142
1.66983
1.73506
1.69855
1.62307
1.58553
1.61452
1.62716
5.42121
3.95548
2.86162
2.15037
1.6496
1.32515
1.13013
0.998426
0.907198
0.883622
1.04539
1.47625
1.79329
1.83703
1.76741
1.65876
1.55056
1.48061
1.49653
1.56104
5.4415
4.25591
3.08841
2.30702
1.81704
1.48064
1.23987
1.03725
0.934273
1.04401
1.47888
1.8266
1.85965
1.79265
1.67667
1.54863
1.46054
1.37715
1.36495
1.50813
5.13571
4.45503
3.31714
2.4774
1.98964
1.62731
1.34951
1.12051
1.13473
1.51489
1.89786
1.89996
1.79003
1.68021
1.53884
1.46003
1.42893
1.34967
1.31874
1.34766
4.23043
4.25374
3.52906
2.69221
2.15412
1.7573
1.43176
1.32728
1.67272
2.09519
2.06885
1.8849
1.69238
1.55226
1.43851
1.41157
1.31458
1.2316
1.18951
1.20303
3.28282
4.2522
3.74155
2.94612
2.35785
1.84749
1.60199
1.88189
2.48141
2.47851
2.19
1.86946
1.63722
1.47608
1.40668
1.30567
1.2059
1.15696
1.11563
1.10771
2.10847
4.11022
3.907
3.21216
2.52895
1.9831
2.13914
2.89418
2.97954
2.65457
2.19835
1.81015
1.58859
1.4395
1.33541
1.21981
1.11996
1.06243
1.01574
0.994261
1.31522
3.5197
3.93181
3.41572
2.61717
2.51843
3.33973
3.83629
3.42263
2.78282
2.23984
1.8382
1.57487
1.45349
1.32092
1.17272
1.06719
0.997077
0.955096
0.935624
1.02507
2.78115
3.79061
3.54433
3.06817
3.77222
4.57005
4.20512
3.47979
2.81501
2.31753
1.92913
1.63762
1.4129
1.2526
1.13431
1.04616
0.979199
0.930934
0.90476
1.00064
1.88312
3.38089
3.64603
4.59145
5.85049
5.47457
4.51491
3.50625
2.82267
2.33059
1.93843
1.64605
1.40905
1.23701
1.1202
1.04038
0.973165
0.919219
0.885589
1.00001
1.24832
2.67726
4.27521
6.58627
6.55797
5.76076
4.64483
3.71882
3.05385
2.49282
2.05714
1.72838
1.47767
1.29138
1.16561
1.07878
1.00447
0.939312
0.889672
1
1.03183
2.52807
6.52769
8.8093
7.56639
5.93798
4.67794
3.71646
2.92943
2.34761
1.92398
1.61256
1.3747
1.19724
1.0849
1.00897
0.944795
0.884522
0.837428
)
;

boundaryField
{
    inlet
    {
        type            fixedValue;
        value           uniform 1;
    }
    outlet
    {
        type            zeroGradient;
    }
    top
    {
        type            symmetryPlane;
    }
    bottom
    {
        type            symmetryPlane;
    }
    step
    {
        type            zeroGradient;
    }
    defaultFaces
    {
        type            empty;
    }
}


// ************************************************************************* //
