/*--------------------------------*- C++ -*----------------------------------*\
  =========                 |
  \\      /  F ield         | OpenFOAM: The Open Source CFD Toolbox
   \\    /   O peration     | Website:  https://openfoam.org
    \\  /    A nd           | Version:  6.0
     \\/     M anipulation  |
\*---------------------------------------------------------------------------*/
FoamFile
{
    version     2.0;
    format      ascii;
    class       volScalarField;
    location    "0.999675";
    object      rho;
}
// * * * * * * * * * * * * * * * * * * * * * * * * * * * * * * * * * * * * * //

dimensions      [1 -3 0 0 0 0 0];

internalField   nonuniform List<scalar> 
1200
(
1.39997
1.39997
1.39997
1.39997
1.39997
1.39997
1.39997
1.39997
1.39997
1.39997
1.39997
3.52391
5.4046
5.461
5.55865
5.63413
5.64083
5.61326
5.66656
5.7456
1.39997
1.39997
1.39997
1.39997
1.39997
1.39997
1.39997
1.39997
1.39997
1.39997
1.39997
3.51478
5.40701
5.47943
5.55811
5.63866
5.68312
5.68202
5.64551
5.66819
1.39997
1.39997
1.39997
1.39997
1.39997
1.39997
1.39997
1.39997
1.39997
1.39997
1.39997
3.4918
5.40342
5.48457
5.55735
5.6427
5.71855
5.73964
5.64025
5.55306
1.39997
1.39997
1.39997
1.39997
1.39997
1.39997
1.39997
1.39997
1.39997
1.39997
1.39997
3.45629
5.39198
5.46806
5.54678
5.64616
5.7317
5.743
5.63124
5.51582
1.39997
1.39997
1.39997
1.39997
1.39997
1.39997
1.39997
1.39997
1.39997
1.39997
1.39997
3.41046
5.37643
5.44237
5.53081
5.6353
5.70363
5.70948
5.6334
5.58109
1.39997
1.39997
1.39997
1.39997
1.39997
1.39997
1.39997
1.39997
1.39997
1.39997
1.39997
3.35914
5.35576
5.42131
5.5116
5.61135
5.66244
5.65448
5.63466
5.66572
1.39997
1.39997
1.39997
1.39997
1.39997
1.39997
1.39997
1.39997
1.39997
1.39997
1.39997
3.30108
5.33183
5.41765
5.50043
5.5995
5.64578
5.61116
5.61505
5.67999
1.39997
1.39997
1.39997
1.39997
1.39997
1.39997
1.39997
1.39997
1.39997
1.39997
1.39997
3.23062
5.30186
5.41373
5.50707
5.61638
5.65326
5.59244
5.57693
5.62338
1.39997
1.39997
1.39997
1.39997
1.39997
1.39997
1.39997
1.39997
1.39997
1.39997
1.39997
3.14856
5.26765
5.40473
5.51758
5.62746
5.64187
5.58897
5.53372
5.53032
1.39997
1.39997
1.39997
1.39997
1.39997
1.39997
1.39997
1.39997
1.39997
1.39997
1.39997
3.05718
5.23808
5.40177
5.49033
5.56256
5.59355
5.58039
5.49927
5.44651
1.39997
1.39997
1.39997
1.39997
1.39997
1.39997
1.39997
1.39997
1.39997
1.39997
1.39997
2.9565
5.22108
5.3999
5.42994
5.47302
5.53138
5.56155
5.49826
5.42894
1.39997
1.39997
1.39997
1.39997
1.39997
1.39997
1.39997
1.39997
1.39997
1.39997
1.39997
2.83968
5.15019
5.36293
5.38136
5.40537
5.49439
5.54802
5.51413
5.49844
1.39997
1.39997
1.39997
1.39997
1.39997
1.39997
1.39997
1.39997
1.39997
1.39997
1.39997
2.70209
5.0288
5.31456
5.35988
5.40626
5.47741
5.53873
5.52903
5.56087
1.39997
1.39997
1.39997
1.39997
1.39997
1.39997
1.39997
1.39997
1.39997
1.39997
1.39997
2.56447
4.89997
5.26932
5.41275
5.49009
5.46852
5.50026
5.49756
5.43062
1.39997
1.39997
1.39997
1.39997
1.39997
1.39997
1.39997
1.39997
1.39997
1.39997
1.39997
2.43967
4.80569
5.26634
5.4342
5.53016
5.47851
5.47489
5.39323
5.27019
1.39997
1.39997
1.39997
1.39997
1.39997
1.39997
1.39997
1.39997
1.39997
1.39997
1.39997
2.32812
4.84202
5.34273
5.37888
5.45292
5.49748
5.44066
5.27888
5.11398
1.39997
1.39997
1.39997
1.39997
1.39997
1.39997
1.39997
1.39997
1.39997
1.39997
1.39997
2.17256
4.90471
5.42918
5.30377
5.32457
5.45229
5.36836
5.15928
5.0794
1.39997
1.39997
1.39997
1.39997
1.39997
1.39997
1.39997
1.39997
1.39997
1.39997
1.39997
1.97485
4.84044
5.40202
5.25324
5.26926
5.38517
5.29168
5.05114
4.99389
1.39997
1.39997
1.39997
1.39997
1.39997
1.39997
1.39997
1.39997
1.39997
1.39997
1.39997
1.7952
4.72509
5.33209
5.27644
5.35413
5.46871
5.46152
5.01485
4.83679
1.39997
1.39997
1.39997
1.39997
1.39997
1.39997
1.39997
1.39997
1.39997
1.39997
1.39997
1.6058
4.60154
5.42384
5.54647
5.54989
5.41023
5.40033
5.08425
4.63855
1.39997
1.39997
1.39997
1.39997
1.39997
1.39997
1.39997
1.39997
1.39997
1.39997
1.39997
1.41791
3.98124
5.38354
5.39193
5.33944
5.13114
4.91736
4.71864
3.75673
1.39997
1.39997
1.39997
1.39997
1.39997
1.39997
1.39997
1.39997
1.39997
1.39997
1.39997
1.40001
2.81533
5.02228
5.11259
5.05893
4.97058
4.74418
4.34598
3.563
1.39997
1.39997
1.39997
1.39997
1.39997
1.39997
1.39997
1.39997
1.39997
1.39997
1.39997
1.39997
1.67422
4.44856
5.08539
4.98831
4.87006
4.59963
4.15169
3.55834
1.39997
1.39997
1.39997
1.39997
1.39997
1.39997
1.39997
1.39997
1.39997
1.39997
1.39997
1.39997
1.40804
3.08592
4.90653
4.88501
4.68727
4.43415
4.07581
3.62237
1.39997
1.39997
1.39997
1.39997
1.39997
1.39997
1.39997
1.39997
1.39997
1.39997
1.39997
1.39997
1.39996
1.6915
4.15204
4.87884
4.64152
4.40152
4.08096
3.69143
1.39997
1.39997
1.39997
1.39997
1.39997
1.39997
1.39997
1.39997
1.39997
1.39997
1.39997
1.39997
1.39997
1.40732
2.34918
4.57244
4.67267
4.41791
4.12783
3.79399
1.39997
1.39997
1.39997
1.39997
1.39997
1.39997
1.39997
1.39997
1.39997
1.39997
1.39997
1.39997
1.39997
1.39999
1.48067
3.11314
4.5707
4.48253
4.18693
3.89822
1.39997
1.39997
1.39997
1.39997
1.39997
1.39997
1.39997
1.39997
1.39997
1.39997
1.39997
1.39997
1.39997
1.39997
1.40067
1.69056
3.4922
4.48747
4.3516
4.0355
1.39997
1.39997
1.39997
1.39997
1.39997
1.39997
1.39997
1.39997
1.39997
1.39997
1.39997
1.39997
1.39997
1.39997
1.39997
1.40742
1.8796
3.6352
4.35823
4.23616
1.39997
1.39997
1.39997
1.39997
1.39997
1.39997
1.39997
1.39997
1.39997
1.39997
1.39997
1.39997
1.39997
1.39997
1.39997
1.39999
1.41959
2.00823
3.62842
4.20769
1.39997
1.39997
1.39997
1.39997
1.39997
1.39997
1.39997
1.39997
1.39997
1.39997
1.39997
1.39997
1.39997
1.39997
1.39997
1.39997
1.40008
1.43281
2.0397
3.5805
1.39997
1.39997
1.39997
1.39997
1.39997
1.39997
1.39997
1.39997
1.39997
1.39997
1.39997
1.39997
1.39997
1.39997
1.39997
1.39997
1.39997
1.40023
1.4353
2.12503
1.39997
1.39997
1.39997
1.39997
1.39997
1.39997
1.39997
1.39997
1.39997
1.39997
1.39997
1.39997
1.39997
1.39997
1.39997
1.39997
1.39997
1.39997
1.40025
1.45121
1.39997
1.39997
1.39997
1.39997
1.39997
1.39997
1.39997
1.39997
1.39997
1.39997
1.39997
1.39997
1.39997
1.39997
1.39997
1.39997
1.39997
1.39997
1.39997
1.40022
1.39997
1.39997
1.39997
1.39997
1.39997
1.39997
1.39997
1.39997
1.39997
1.39997
1.39997
1.39997
1.39997
1.39997
1.39997
1.39997
1.39997
1.39997
1.39997
1.39997
1.39997
1.39997
1.39997
1.39997
1.39997
1.39997
1.39997
1.39997
1.39997
1.39997
1.39997
1.39997
1.39997
1.39997
1.39997
1.39997
1.39997
1.39997
1.39997
1.39997
1.39997
1.39997
1.39997
1.39997
1.39997
1.39997
1.39997
1.39997
1.39997
1.39997
1.39997
1.39997
1.39997
1.39997
1.39997
1.39997
1.39997
1.39997
1.39997
1.39997
1.39997
1.39997
1.39997
1.39997
1.39997
1.39997
1.39997
1.39997
1.39997
1.39997
1.39997
1.39997
1.39997
1.39997
1.39997
1.39997
1.39997
1.39997
1.39997
1.39997
1.39997
1.39997
1.39997
1.39997
1.39997
1.39997
1.39997
1.39997
1.39997
1.39997
1.39997
1.39997
1.39997
1.39997
1.39997
1.39997
1.39997
1.39997
1.39997
1.39997
1.39997
1.39997
1.39997
1.39997
1.39997
1.39997
1.39997
1.39997
1.39997
1.39997
1.39997
1.39997
1.39997
1.39997
1.39997
1.39997
1.39997
1.39997
1.39997
1.39997
0.804833
0.741237
0.819895
0.862935
0.866898
0.852595
0.820075
0.765777
0.703397
0.653279
0.639253
0.639421
0.642471
0.639805
0.632144
0.618121
0.613176
0.622843
0.646851
0.737358
1.66136
0.951946
0.855791
0.852124
0.853409
0.853438
0.833382
0.781954
0.7204
0.670668
0.655692
0.654817
0.656483
0.653149
0.643866
0.62737
0.616841
0.624934
0.647301
0.735766
2.22454
1.18063
0.924596
0.898949
0.906418
0.908684
0.888406
0.83209
0.774817
0.722399
0.696281
0.690305
0.687364
0.682173
0.670494
0.652685
0.641075
0.646525
0.664333
0.747804
2.58446
1.52716
1.12914
0.945186
0.937202
0.956497
0.943384
0.887885
0.830359
0.784404
0.755676
0.744671
0.73776
0.728164
0.709507
0.681058
0.665981
0.671248
0.690337
0.776179
2.82885
1.83991
1.31252
1.03653
0.969124
0.989038
0.965759
0.919811
0.874009
0.838101
0.811922
0.798625
0.790447
0.77974
0.75818
0.723043
0.707545
0.713247
0.729349
0.818152
3.00558
2.10822
1.52843
1.22788
1.03328
1.00617
0.958356
0.919263
0.905769
0.885791
0.859888
0.838896
0.828229
0.820691
0.808529
0.803573
0.84066
0.886956
0.891565
0.938303
3.16524
2.31225
1.73027
1.38927
1.12032
1.02606
0.959508
0.930437
0.933636
0.93174
0.909737
0.881038
0.872544
0.88719
0.938329
1.01404
1.11208
1.20305
1.23085
1.2274
3.32257
2.50581
1.90495
1.53235
1.248
1.09033
0.99258
0.955883
0.954452
0.956061
0.937703
0.929734
0.990973
1.12587
1.24952
1.32319
1.36061
1.41051
1.48022
1.52686
3.47577
2.67997
2.07606
1.66944
1.36769
1.16456
1.04818
0.988114
0.966845
0.957355
0.961588
1.06727
1.29422
1.46022
1.50164
1.48805
1.46131
1.47334
1.54477
1.66834
3.68517
2.86714
2.23487
1.80436
1.487
1.27109
1.14218
1.04937
0.98573
0.96722
1.08038
1.36546
1.57339
1.60977
1.57494
1.52415
1.48562
1.48378
1.54449
1.70046
3.75362
3.09381
2.41276
1.93433
1.62137
1.39844
1.23701
1.09261
1.01834
1.0956
1.38661
1.62457
1.65968
1.62652
1.57213
1.51319
1.49077
1.47773
1.51099
1.71643
3.64475
3.25583
2.59126
2.07404
1.76107
1.52133
1.33239
1.16939
1.17463
1.42595
1.69157
1.71741
1.66336
1.61194
1.53712
1.51139
1.52969
1.51533
1.53437
1.63433
3.17254
3.15219
2.73996
2.23582
1.89328
1.63024
1.40671
1.32973
1.54139
1.82003
1.84382
1.75348
1.65163
1.5836
1.5225
1.53499
1.49419
1.46413
1.47005
1.53742
2.73961
3.171
2.88157
2.41149
2.04462
1.70898
1.53765
1.70068
2.06759
2.1134
1.9663
1.79142
1.66532
1.57865
1.55156
1.49997
1.44423
1.42903
1.42765
1.46216
2.21658
3.18834
3.03522
2.59804
2.1733
1.81507
1.89994
2.3234
2.43733
2.2829
2.03684
1.81223
1.68206
1.5933
1.53478
1.46418
1.39883
1.36446
1.34372
1.35641
1.69617
3.02661
3.09788
2.77169
2.26649
2.17454
2.62888
2.94486
2.75862
2.44246
2.14464
1.89634
1.72074
1.6442
1.55651
1.45058
1.37366
1.32104
1.29205
1.29926
1.42526
2.67053
3.09448
2.9178
2.57943
2.93348
3.41176
3.27055
2.92312
2.56647
2.27218
2.01806
1.81227
1.6443
1.52418
1.4351
1.3677
1.3146
1.27204
1.26691
1.40062
2.12635
2.99032
3.07791
3.53091
4.17307
4.04573
3.59523
3.05052
2.64267
2.32773
2.05887
1.84447
1.659
1.52148
1.42967
1.36739
1.31242
1.2627
1.24637
1.39998
1.63352
2.64216
3.56888
4.77669
4.80166
4.40069
3.7945
3.24281
2.82582
2.45944
2.15955
1.91756
1.72164
1.57206
1.47295
1.4047
1.34331
1.28308
1.24974
1.39997
1.43146
2.60003
5.00902
6.04233
5.42907
4.57506
3.86077
3.26735
2.75826
2.36693
2.06608
1.82991
1.63941
1.49372
1.40331
1.34213
1.28798
1.2308
1.19758
)
;

boundaryField
{
    inlet
    {
        type            calculated;
        value           uniform 1.39997;
    }
    outlet
    {
        type            calculated;
        value           nonuniform List<scalar> 
20
(
0.741094
0.739623
0.751941
0.779636
0.822115
0.950092
1.24613
1.53756
1.67174
1.70038
1.71149
1.62859
1.53588
1.46267
1.35727
1.29931
1.26695
1.24633
1.24964
1.19757
)
;
    }
    top
    {
        type            symmetryPlane;
    }
    bottom
    {
        type            symmetryPlane;
    }
    step
    {
        type            calculated;
        value           nonuniform List<scalar> 
40
(
5.7456
5.66819
5.55306
5.51582
5.58109
5.66572
5.67999
5.62338
5.53032
5.44651
5.42894
5.49844
5.56087
5.43062
5.27019
5.11398
5.0794
4.99389
4.83679
4.63855
0.804833
0.741237
0.819895
0.862935
0.866898
0.852595
0.820075
0.765777
0.703397
0.653279
0.639253
0.639421
0.642471
0.639805
0.632144
0.618121
0.613176
0.622843
0.646851
0.737358
)
;
    }
    defaultFaces
    {
        type            empty;
    }
}


// ************************************************************************* //
