/*--------------------------------*- C++ -*----------------------------------*\
  =========                 |
  \\      /  F ield         | OpenFOAM: The Open Source CFD Toolbox
   \\    /   O peration     | Website:  https://openfoam.org
    \\  /    A nd           | Version:  6.0
     \\/     M anipulation  |
\*---------------------------------------------------------------------------*/
FoamFile
{
    version     2.0;
    format      ascii;
    class       volScalarField;
    location    "0.999675";
    object      T;
}
// * * * * * * * * * * * * * * * * * * * * * * * * * * * * * * * * * * * * * //

dimensions      [0 0 0 1 0 0 0];

internalField   nonuniform List<scalar> 
1200
(
1
1
1
1
1
1
1
1
1
1
1
2.16833
2.78812
2.81307
2.83003
2.84118
2.85256
2.88527
2.95208
3.00075
1
1
1
1
1
1
1
1
1
1
1
2.16806
2.79054
2.81735
2.83026
2.84193
2.86139
2.8998
2.94725
2.9849
1
1
1
1
1
1
1
1
1
1
1
2.16506
2.79308
2.81968
2.83082
2.84336
2.87009
2.91196
2.94588
2.96114
1
1
1
1
1
1
1
1
1
1
1
2.15551
2.79296
2.81772
2.82966
2.84561
2.87417
2.9129
2.94449
2.95375
1
1
1
1
1
1
1
1
1
1
1
2.13792
2.78823
2.81326
2.82762
2.84497
2.8695
2.9067
2.94606
2.96811
1
1
1
1
1
1
1
1
1
1
1
2.11593
2.77823
2.80941
2.82511
2.84162
2.86254
2.89652
2.94751
2.98728
1
1
1
1
1
1
1
1
1
1
1
2.09214
2.76747
2.80943
2.82453
2.84075
2.86037
2.88885
2.94408
2.9914
1
1
1
1
1
1
1
1
1
1
1
2.0664
2.75794
2.80951
2.82701
2.84528
2.86269
2.88606
2.93774
2.9803
1
1
1
1
1
1
1
1
1
1
1
2.03732
2.75118
2.80933
2.83006
2.84859
2.86055
2.88613
2.93026
2.9622
1
1
1
1
1
1
1
1
1
1
1
2.00272
2.74882
2.81119
2.82528
2.83619
2.85025
2.88472
2.92384
2.94538
1
1
1
1
1
1
1
1
1
1
1
1.9644
2.75202
2.81366
2.81306
2.81681
2.83634
2.88053
2.92453
2.94218
1
1
1
1
1
1
1
1
1
1
1
1.92176
2.74786
2.81025
2.80248
2.80075
2.82754
2.87702
2.92868
2.95842
1
1
1
1
1
1
1
1
1
1
1
1.87316
2.7345
2.80214
2.79573
2.7983
2.82206
2.8739
2.93118
2.97123
1
1
1
1
1
1
1
1
1
1
1
1.82451
2.71302
2.78871
2.80311
2.81167
2.81659
2.86285
2.92256
2.94294
1
1
1
1
1
1
1
1
1
1
1
1.77301
2.6822
2.77499
2.79737
2.81066
2.81397
2.85507
2.89823
2.90772
1
1
1
1
1
1
1
1
1
1
1
1.69862
2.65074
2.76314
2.76504
2.77954
2.80981
2.84329
2.87046
2.87017
1
1
1
1
1
1
1
1
1
1
1
1.558
2.58365
2.73999
2.72077
2.73488
2.78872
2.82257
2.83949
2.85914
1
1
1
1
1
1
1
1
1
1
1
1.38588
2.47608
2.69354
2.68573
2.70647
2.76351
2.80201
2.80867
2.83567
1
1
1
1
1
1
1
1
1
1
1
1.26455
2.409
2.65675
2.67431
2.71347
2.7714
2.82614
2.79929
2.80335
1
1
1
1
1
1
1
1
1
1
1
1.1486
2.39159
2.67246
2.71728
2.74734
2.75344
2.80995
2.82141
2.79559
1
1
1
1
1
1
1
1
1
1
1
1.00991
2.26466
2.67049
2.69859
2.71433
2.70577
2.7026
2.72828
2.70691
1
1
1
1
1
1
1
1
1
1
1
1.00002
1.84992
2.56424
2.65633
2.6698
2.67542
2.65366
2.61224
2.54409
1
1
1
1
1
1
1
1
1
1
1
1
1.17837
2.32301
2.61649
2.62839
2.63438
2.60533
2.53292
2.43318
1
1
1
1
1
1
1
1
1
1
1
1
1.00436
1.89783
2.49057
2.57581
2.55655
2.52704
2.46847
2.38506
1
1
1
1
1
1
1
1
1
1
1
1
1
1.17951
2.19531
2.50601
2.48
2.45553
2.40649
2.33731
1
1
1
1
1
1
1
1
1
1
1
1
1
1.00375
1.53126
2.28045
2.42991
2.39121
2.35004
2.2968
1
1
1
1
1
1
1
1
1
1
1
1
1
1.00001
1.04381
1.83157
2.29522
2.34224
2.30211
2.25758
1
1
1
1
1
1
1
1
1
1
1
1
1
1
1.00029
1.17048
1.91788
2.27205
2.25953
2.21491
1
1
1
1
1
1
1
1
1
1
1
1
1
1
1
1.00348
1.26703
1.94607
2.19775
2.18375
1
1
1
1
1
1
1
1
1
1
1
1
1
1
1
1.00001
1.0093
1.32686
1.90926
2.12124
1
1
1
1
1
1
1
1
1
1
1
1
1
1
1
1
1.00004
1.01557
1.32721
1.8878
1
1
1
1
1
1
1
1
1
1
1
1
1
1
1
1
1
1.00009
1.01654
1.38082
1
1
1
1
1
1
1
1
1
1
1
1
1
1
1
1
1
1
1.00009
1.0251
1
1
1
1
1
1
1
1
1
1
1
1
1
1
1
1
1
1
1
1.00011
1
1
1
1
1
1
1
1
1
1
1
1
1
1
1
1
1
1
1
1
1
1
1
1
1
1
1
1
1
1
1
1
1
1
1
1
1
1
1
1
1
1
1
1
1
1
1
1
1
1
1
1
1
1
1
1
1
1
1
1
1
1
1
1
1
1
1
1
1
1
1
1
1
1
1
1
1
1
1
1
1
1
1
1
1
1
1
1
1
1
1
1
1
1
1
1
1
1
1
1
1
1
1
1
1
1
1
1
1
1
1
1
1
1
1
1
1
1
1
1
1.83997
1.75149
1.88445
1.95023
1.93909
1.8955
1.85701
1.83611
1.83469
1.84262
1.85645
1.85525
1.85416
1.85533
1.86763
1.88629
1.89935
1.90221
1.89145
1.74833
2.17737
1.79148
1.80741
1.84868
1.84419
1.82305
1.78988
1.77447
1.78251
1.80547
1.82764
1.82789
1.82818
1.82983
1.84347
1.86731
1.88034
1.88364
1.87316
1.73235
2.14778
1.76198
1.68115
1.71231
1.72096
1.70463
1.66873
1.65408
1.67262
1.70835
1.7351
1.74039
1.74158
1.74687
1.76693
1.80617
1.83377
1.83911
1.82916
1.69491
2.1356
1.79177
1.64936
1.5986
1.59044
1.58158
1.54829
1.53059
1.54325
1.57536
1.60302
1.61499
1.62091
1.63072
1.65446
1.69528
1.72788
1.7399
1.73607
1.62273
2.13067
1.83105
1.63581
1.54556
1.51615
1.50265
1.45827
1.44329
1.44736
1.46302
1.4809
1.49471
1.50626
1.52169
1.54654
1.58156
1.61666
1.63012
1.62269
1.51707
2.12105
1.87
1.66817
1.56659
1.48924
1.45177
1.40059
1.38343
1.38888
1.39537
1.39974
1.40663
1.41716
1.438
1.4742
1.5247
1.59712
1.6222
1.60122
1.46105
2.10938
1.89477
1.71276
1.59188
1.48326
1.42551
1.37532
1.35043
1.35366
1.3611
1.35768
1.35858
1.37325
1.41093
1.489
1.57738
1.63918
1.64352
1.62506
1.47491
2.09583
1.91963
1.75225
1.62435
1.50787
1.42973
1.36975
1.33324
1.32832
1.3294
1.32414
1.3372
1.39868
1.50891
1.59098
1.62931
1.62354
1.60178
1.5697
1.44675
2.07452
1.93223
1.78342
1.65327
1.5342
1.43874
1.36909
1.32571
1.30542
1.29357
1.30421
1.38521
1.52674
1.60093
1.61758
1.59801
1.55493
1.50657
1.46318
1.36541
2.05948
1.93139
1.79258
1.66843
1.55305
1.4595
1.3852
1.332
1.28843
1.27897
1.35463
1.51356
1.59563
1.59761
1.57105
1.52361
1.46117
1.39697
1.3565
1.28519
2.02949
1.92583
1.792
1.66971
1.56892
1.48226
1.4032
1.32903
1.2844
1.33405
1.49313
1.57407
1.56865
1.54297
1.49307
1.43276
1.37158
1.30468
1.26466
1.23007
1.97265
1.91561
1.79213
1.67224
1.58167
1.49749
1.41795
1.34145
1.35242
1.48729
1.5707
1.54878
1.50657
1.45927
1.40154
1.35239
1.30776
1.24692
1.20323
1.1544
1.86679
1.8892
1.80316
1.68574
1.59285
1.50908
1.42489
1.39739
1.51925
1.61162
1.57083
1.5049
1.43451
1.37227
1.32273
1.28741
1.23169
1.17763
1.13281
1.09547
1.67756
1.87731
1.81777
1.71034
1.61444
1.51343
1.45856
1.54914
1.68016
1.64183
1.55923
1.46096
1.37635
1.30901
1.26924
1.21862
1.16895
1.13343
1.094
1.06059
1.33169
1.80476
1.80207
1.73089
1.62907
1.52957
1.57622
1.74389
1.71141
1.6279
1.51098
1.39836
1.32218
1.26483
1.21811
1.16631
1.12087
1.09008
1.05826
1.02619
1.08554
1.62805
1.77683
1.72526
1.61657
1.62136
1.77852
1.82375
1.73695
1.59506
1.46212
1.35705
1.2813
1.23758
1.18807
1.1318
1.08763
1.05665
1.03487
1.00815
1.00688
1.45796
1.7149
1.70058
1.66523
1.80025
1.87526
1.80002
1.66657
1.53554
1.42791
1.33828
1.26505
1.20295
1.15052
1.10654
1.07084
1.04279
1.02456
0.999787
1.00018
1.23983
1.58282
1.65837
1.82046
1.9627
1.8944
1.75809
1.60912
1.49532
1.40169
1.31807
1.24937
1.18905
1.13822
1.09693
1.06517
1.03808
1.01915
0.994724
1
1.06984
1.41857
1.67704
1.93033
1.91204
1.83264
1.71369
1.60547
1.51294
1.41897
1.33358
1.26185
1.20158
1.15001
1.10786
1.07514
1.04684
1.02488
0.996621
1
1.00913
1.36122
1.82442
2.04106
1.95111
1.81703
1.69628
1.5924
1.48685
1.38854
1.30368
1.23369
1.17392
1.12209
1.08231
1.05246
1.02695
1.00609
0.978953
)
;

boundaryField
{
    inlet
    {
        type            fixedValue;
        value           uniform 1;
    }
    outlet
    {
        type            inletOutlet;
        inletValue      uniform 1;
        value           nonuniform List<scalar> 
20
(
1.73951
1.72332
1.68559
1.61554
1.50976
1.44292
1.45274
1.43669
1.36263
1.28525
1.23363
1.15848
1.09657
1.06022
1.02554
1.00811
0.999756
0.99476
0.996697
0.978959
)
;
    }
    top
    {
        type            symmetryPlane;
    }
    bottom
    {
        type            symmetryPlane;
    }
    step
    {
        type            zeroGradient;
    }
    defaultFaces
    {
        type            empty;
    }
}


// ************************************************************************* //
