/*--------------------------------*- C++ -*----------------------------------*\
  =========                 |
  \\      /  F ield         | OpenFOAM: The Open Source CFD Toolbox
   \\    /   O peration     | Website:  https://openfoam.org
    \\  /    A nd           | Version:  6.0
     \\/     M anipulation  |
\*---------------------------------------------------------------------------*/
FoamFile
{
    version     2.0;
    format      ascii;
    class       volVectorField;
    location    "0.999675";
    object      U;
}
// * * * * * * * * * * * * * * * * * * * * * * * * * * * * * * * * * * * * * //

dimensions      [0 1 -1 0 0 0 0];

internalField   nonuniform List<vector> 
1200
(
(3 -4.82942e-17 0)
(3 2.48101e-16 0)
(3 -4.10706e-16 0)
(3 -4.21504e-16 0)
(3 1.12302e-16 0)
(3 2.00779e-16 0)
(3 3.84576e-16 0)
(3 6.98171e-16 0)
(3 6.88374e-16 0)
(3 5.89109e-17 0)
(3 5.81342e-16 0)
(1.29267 0.0074645 0)
(0.702914 0.00805651 0)
(0.629632 0.0164754 0)
(0.547602 0.0162136 0)
(0.449127 0.0133421 0)
(0.345214 0.0182922 0)
(0.250018 0.0269746 0)
(0.160281 0.0205647 0)
(0.0575463 0.00749649 0)
(3 -1.29767e-16 0)
(3 2.01956e-16 0)
(3 -4.58921e-16 0)
(3 -4.71756e-16 0)
(3 -7.85203e-16 0)
(3 -2.99788e-16 0)
(3 2.3238e-16 0)
(3 2.64657e-16 0)
(3 2.68899e-16 0)
(3 3.05691e-16 0)
(3 1.02792e-15 0)
(1.29038 0.0261365 0)
(0.700105 0.0248699 0)
(0.623034 0.0432594 0)
(0.535945 0.0437121 0)
(0.441009 0.0361155 0)
(0.352394 0.0392162 0)
(0.258435 0.0595899 0)
(0.162349 0.0656576 0)
(0.0645951 0.0446804 0)
(3 5.91294e-17 0)
(3 -2.576e-16 0)
(3 -2.2744e-16 0)
(3 1.85058e-17 0)
(3 -7.01479e-16 0)
(3 -9.13497e-16 0)
(3 -6.15135e-16 0)
(3 -5.34793e-16 0)
(3 -7.85457e-16 0)
(3 -5.01175e-16 0)
(3 -1.01988e-15 0)
(1.29702 0.0504735 0)
(0.695827 0.0459417 0)
(0.611129 0.0628381 0)
(0.521817 0.0637704 0)
(0.430542 0.0615715 0)
(0.350884 0.0717931 0)
(0.26362 0.0896217 0)
(0.165052 0.0929095 0)
(0.0629823 0.0896749 0)
(3 2.38295e-16 0)
(3 -2.03593e-16 0)
(3 -4.39245e-16 0)
(3 -1.35283e-16 0)
(3 -5.23729e-16 0)
(3 -7.51724e-16 0)
(3 -8.45173e-16 0)
(3 -5.96722e-16 0)
(3 1.09812e-16 0)
(3 -5.36364e-16 0)
(3 -5.40674e-16 0)
(1.31494 0.0761967 0)
(0.693216 0.0662042 0)
(0.60539 0.0827579 0)
(0.515822 0.0872553 0)
(0.428432 0.0907062 0)
(0.348493 0.096541 0)
(0.259258 0.107719 0)
(0.161019 0.117701 0)
(0.0620959 0.134073 0)
(3 2.7958e-16 0)
(3 -7.76833e-16 0)
(3 -1.27256e-15 0)
(3 -1.13552e-15 0)
(3 -9.63309e-16 0)
(3 -8.32054e-16 0)
(3 -9.0883e-16 0)
(3 -8.78458e-16 0)
(3 5.77002e-16 0)
(3 7.50164e-16 0)
(3 1.67397e-16 0)
(1.34522 0.0963962 0)
(0.694423 0.0813649 0)
(0.608283 0.106129 0)
(0.520337 0.116979 0)
(0.434495 0.122363 0)
(0.351324 0.124299 0)
(0.259664 0.130031 0)
(0.155028 0.14379 0)
(0.0621079 0.173161 0)
(3 -3.10912e-16 0)
(3 -2.50506e-16 0)
(3 2.94913e-16 0)
(3 -8.05744e-16 0)
(3 -1.16073e-15 0)
(3 -8.3057e-16 0)
(3 -3.25095e-16 0)
(3 8.44269e-17 0)
(3 5.90851e-16 0)
(3 1.2194e-15 0)
(3 -9.31955e-16 0)
(1.38181 0.110876 0)
(0.700604 0.0924803 0)
(0.616918 0.133333 0)
(0.53012 0.154507 0)
(0.439959 0.161033 0)
(0.350754 0.154083 0)
(0.257498 0.15456 0)
(0.153436 0.173371 0)
(0.0629935 0.219038 0)
(3 -4.22436e-16 0)
(3 2.43991e-16 0)
(3 4.01147e-16 0)
(3 -1.19541e-16 0)
(3 -7.48986e-16 0)
(3 -6.44405e-16 0)
(3 2.26856e-16 0)
(3 4.60828e-16 0)
(3 4.32801e-16 0)
(3 5.40745e-17 0)
(3 -1.14777e-16 0)
(1.42132 0.125559 0)
(0.709462 0.105789 0)
(0.623873 0.159155 0)
(0.531815 0.190432 0)
(0.437057 0.194879 0)
(0.346789 0.184349 0)
(0.252691 0.181518 0)
(0.157416 0.207795 0)
(0.0651986 0.250297 0)
(3 -7.93753e-17 0)
(3 3.16903e-17 0)
(3 -2.76767e-16 0)
(3 -5.08176e-16 0)
(3 -7.92334e-16 0)
(3 -3.33535e-16 0)
(3 7.83261e-18 0)
(3 2.25531e-16 0)
(3 -6.69653e-17 0)
(3 -1.06373e-16 0)
(3 -1.14256e-15 0)
(1.46317 0.148049 0)
(0.714178 0.128824 0)
(0.624882 0.184123 0)
(0.534196 0.220674 0)
(0.438132 0.228025 0)
(0.343243 0.215798 0)
(0.250796 0.213415 0)
(0.159164 0.24298 0)
(0.065431 0.290314 0)
(3 7.1632e-17 0)
(3 3.7845e-16 0)
(3 -1.34779e-16 0)
(3 -6.62388e-16 0)
(3 -4.48004e-16 0)
(3 -3.79855e-16 0)
(3 -9.54628e-17 0)
(3 2.15193e-16 0)
(3 -1.60286e-16 0)
(3 -3.70509e-16 0)
(3 -1.62393e-15 0)
(1.51377 0.176653 0)
(0.713933 0.156461 0)
(0.625406 0.21095 0)
(0.535651 0.246232 0)
(0.434887 0.258208 0)
(0.337295 0.245627 0)
(0.249843 0.245787 0)
(0.164703 0.272491 0)
(0.0667132 0.32227 0)
(3 2.28972e-16 0)
(3 -5.44151e-17 0)
(3 -2.03774e-16 0)
(3 -4.88201e-16 0)
(3 1.69059e-16 0)
(3 -2.57412e-16 0)
(3 -4.52608e-16 0)
(3 -4.9553e-16 0)
(3 -1.67295e-16 0)
(3 -2.92577e-16 0)
(3 2.64467e-16 0)
(1.58036 0.202053 0)
(0.718584 0.187854 0)
(0.620707 0.24389 0)
(0.529663 0.271679 0)
(0.431887 0.271634 0)
(0.334336 0.263748 0)
(0.250641 0.275531 0)
(0.16862 0.30367 0)
(0.0674069 0.349199 0)
(3 2.51397e-16 0)
(3 -1.4384e-16 0)
(3 -2.49511e-16 0)
(3 -1.76031e-16 0)
(3 -7.84909e-17 0)
(3 -1.97492e-16 0)
(3 -4.02009e-16 0)
(3 -6.8704e-16 0)
(3 -3.47106e-16 0)
(3 9.66739e-18 0)
(3 -4.23528e-16 0)
(1.65468 0.218821 0)
(0.725683 0.221306 0)
(0.610302 0.280224 0)
(0.521237 0.293482 0)
(0.433376 0.278876 0)
(0.339718 0.280306 0)
(0.258222 0.30667 0)
(0.170183 0.343334 0)
(0.0683186 0.394176 0)
(3 1.83606e-16 0)
(3 5.6547e-16 0)
(3 6.80635e-16 0)
(3 6.7986e-16 0)
(3 1.20264e-16 0)
(3 -4.82545e-16 0)
(3 1.5818e-16 0)
(3 -3.03266e-16 0)
(3 -1.03573e-15 0)
(3 -5.34774e-16 0)
(3 -1.4654e-15 0)
(1.73103 0.23198 0)
(0.72752 0.252999 0)
(0.592594 0.302486 0)
(0.511139 0.309324 0)
(0.437592 0.297212 0)
(0.355709 0.305856 0)
(0.27322 0.344617 0)
(0.177629 0.396149 0)
(0.0705605 0.461385 0)
(3 -3.04357e-16 0)
(3 -3.47931e-16 0)
(3 6.68704e-16 0)
(3 1.14252e-15 0)
(3 3.76987e-16 0)
(3 -8.5066e-16 0)
(3 -3.72267e-16 0)
(3 -2.31633e-16 0)
(3 -1.38509e-16 0)
(3 2.01957e-16 0)
(3 2.83292e-16 0)
(1.811 0.245672 0)
(0.731001 0.278394 0)
(0.578032 0.319264 0)
(0.511187 0.335886 0)
(0.452982 0.329163 0)
(0.381746 0.337723 0)
(0.293874 0.387503 0)
(0.196002 0.451779 0)
(0.0737653 0.529419 0)
(3 6.26956e-17 0)
(3 -1.39105e-16 0)
(3 3.39131e-16 0)
(3 1.05586e-15 0)
(3 3.30616e-16 0)
(3 -3.02195e-16 0)
(3 -1.15007e-15 0)
(3 -7.51885e-16 0)
(3 1.80921e-16 0)
(3 1.24289e-15 0)
(3 1.23295e-15 0)
(1.89203 0.273919 0)
(0.73917 0.306931 0)
(0.580035 0.340502 0)
(0.523963 0.374447 0)
(0.471362 0.378106 0)
(0.408189 0.371761 0)
(0.321547 0.42351 0)
(0.216937 0.49839 0)
(0.076588 0.558041 0)
(3 5.40428e-18 0)
(3 2.1865e-16 0)
(3 1.09143e-16 0)
(3 3.38135e-18 0)
(3 -4.71398e-16 0)
(3 -7.38206e-17 0)
(3 -5.07096e-16 0)
(3 -5.10873e-16 0)
(3 -1.02822e-16 0)
(3 1.03937e-15 0)
(3 3.01014e-16 0)
(1.99668 0.325709 0)
(0.761797 0.353624 0)
(0.611033 0.365084 0)
(0.561373 0.407385 0)
(0.500076 0.41925 0)
(0.433425 0.410367 0)
(0.353913 0.460034 0)
(0.229035 0.527424 0)
(0.0774536 0.555753 0)
(3 -1.20174e-16 0)
(3 -3.68307e-16 0)
(3 -2.35534e-16 0)
(3 -3.11033e-16 0)
(3 -4.63197e-16 0)
(3 2.24122e-16 0)
(3 7.24426e-16 0)
(3 5.10134e-16 0)
(3 3.42193e-16 0)
(3 5.16681e-16 0)
(3 7.86991e-16 0)
(2.17799 0.380196 0)
(0.817337 0.427742 0)
(0.666028 0.397326 0)
(0.616825 0.404272 0)
(0.538591 0.417214 0)
(0.475046 0.445305 0)
(0.388898 0.498901 0)
(0.233552 0.555413 0)
(0.0785668 0.590038 0)
(3 -1.72357e-16 0)
(3 -3.77082e-17 0)
(3 1.43364e-18 0)
(3 8.2877e-16 0)
(3 9.48965e-16 0)
(3 1.37116e-15 0)
(3 1.11324e-15 0)
(3 1.26791e-15 0)
(3 1.29416e-15 0)
(3 1.17353e-15 0)
(3 8.24026e-16 0)
(2.46292 0.388314 0)
(0.922994 0.467795 0)
(0.739686 0.404232 0)
(0.680801 0.381831 0)
(0.606216 0.398993 0)
(0.522354 0.470762 0)
(0.414887 0.527919 0)
(0.252539 0.600109 0)
(0.0901925 0.687458 0)
(3 -8.50372e-17 0)
(3 -1.11177e-16 0)
(3 1.51372e-16 0)
(3 1.10908e-15 0)
(3 1.18276e-15 0)
(3 1.1558e-15 0)
(3 1.10144e-15 0)
(3 6.72734e-16 0)
(3 7.06507e-17 0)
(3 4.68091e-16 0)
(3 5.06327e-16 0)
(2.76733 0.300531 0)
(1.03462 0.446521 0)
(0.805581 0.385517 0)
(0.738401 0.385594 0)
(0.662595 0.421422 0)
(0.564861 0.504347 0)
(0.437622 0.58491 0)
(0.292974 0.652181 0)
(0.0996061 0.801669 0)
(3 5.33159e-18 0)
(3 1.8711e-16 0)
(3 7.50659e-16 0)
(3 5.35739e-16 0)
(3 6.84115e-16 0)
(3 2.84396e-16 0)
(3 -3.34314e-16 0)
(3 -9.22261e-16 0)
(3 -1.58374e-16 0)
(3 -4.93395e-16 0)
(3 -6.97031e-17 0)
(2.94571 0.173901 0)
(1.10525 0.428267 0)
(0.83123 0.395694 0)
(0.768961 0.431593 0)
(0.707659 0.492277 0)
(0.615515 0.557882 0)
(0.472995 0.670107 0)
(0.330854 0.741696 0)
(0.136217 0.883414 0)
(3 6.05435e-17 0)
(3 7.55173e-16 0)
(3 4.76687e-16 0)
(3 -1.12394e-16 0)
(3 -2.21055e-17 0)
(3 -1.51647e-16 0)
(3 2.63142e-16 0)
(3 1.83823e-16 0)
(3 2.38907e-16 0)
(3 -5.13696e-17 0)
(3 1.18685e-16 0)
(2.99072 0.0957911 0)
(1.11227 0.442999 0)
(0.830521 0.449581 0)
(0.772373 0.529481 0)
(0.710928 0.57761 0)
(0.650136 0.609885 0)
(0.504753 0.721913 0)
(0.398574 0.852962 0)
(0.197841 1.02855 0)
(3 5.37486e-17 0)
(3 -1.04518e-17 0)
(3 -3.43715e-16 0)
(3 -3.28407e-16 0)
(3 -8.55226e-18 0)
(3 3.38535e-16 0)
(3 5.30198e-16 0)
(3 8.71084e-16 0)
(3 7.64514e-16 0)
(3 1.73916e-16 0)
(3 -2.91628e-16 0)
(3.01109 0.00795971 0)
(1.26606 0.470136 0)
(0.830772 0.543555 0)
(0.774887 0.566763 0)
(0.715651 0.584705 0)
(0.671747 0.603197 0)
(0.629356 0.691729 0)
(0.631235 0.911038 0)
(0.734764 1.21426 0)
(3 -1.41945e-16 0)
(3 -4.9742e-16 0)
(3 -5.23717e-16 0)
(3 -3.77588e-16 0)
(3 -2.27165e-16 0)
(3 -7.09713e-16 0)
(3 -9.26504e-16 0)
(3 -2.21949e-16 0)
(3 -2.06268e-16 0)
(3 -3.40306e-16 0)
(3 -2.23459e-16 0)
(3.00015 5.32435e-06 0)
(1.93498 0.50194 0)
(0.91147 0.617598 0)
(0.803904 0.610694 0)
(0.758805 0.645604 0)
(0.738788 0.703202 0)
(0.776846 0.806196 0)
(0.905493 0.929958 0)
(1.14803 1.06528 0)
(3 4.97925e-17 0)
(3 -1.34383e-16 0)
(3 -3.7673e-16 0)
(3 -4.4063e-16 0)
(3 -6.28211e-16 0)
(3 -5.82711e-16 0)
(3 -8.92198e-16 0)
(3 -9.54052e-16 0)
(3 -9.10618e-16 0)
(3 -6.47194e-16 0)
(3 -5.05321e-16 0)
(3 -4.01063e-09 0)
(2.98781 0.150725 0)
(1.22756 0.678466 0)
(0.927899 0.680808 0)
(0.899609 0.698664 0)
(0.880281 0.762422 0)
(0.915541 0.840332 0)
(1.04277 0.915203 0)
(1.28786 0.981551 0)
(3 1.16075e-16 0)
(3 1.75445e-16 0)
(3 1.69583e-17 0)
(3 -1.47287e-16 0)
(3 5.57292e-17 0)
(3 3.65752e-16 0)
(3 4.13315e-16 0)
(3 1.98856e-16 0)
(3 2.5835e-16 0)
(3 4.72358e-16 0)
(3 2.43265e-17 0)
(3 -2.61017e-09 0)
(3.01716 0.00226549 0)
(1.89914 0.629649 0)
(1.05699 0.802739 0)
(1.01623 0.798981 0)
(1.01809 0.803807 0)
(1.05394 0.833205 0)
(1.16452 0.880119 0)
(1.35427 0.918185 0)
(3 -1.82957e-16 0)
(3 7.02403e-17 0)
(3 5.03486e-17 0)
(3 3.16956e-16 0)
(3 5.14208e-16 0)
(3 3.52128e-16 0)
(3 2.44598e-16 0)
(3 2.39444e-16 0)
(3 6.51004e-16 0)
(3 7.92446e-16 0)
(3 2.96883e-16 0)
(3 -9.95442e-11 0)
(3.00009 1.69649e-05 0)
(2.96714 0.155311 0)
(1.46903 0.809584 0)
(1.11051 0.84322 0)
(1.15023 0.83606 0)
(1.18123 0.862741 0)
(1.27059 0.887037 0)
(1.4067 0.901524 0)
(3 3.46739e-17 0)
(3 -4.98754e-17 0)
(3 2.12577e-16 0)
(3 5.96711e-16 0)
(3 6.49443e-16 0)
(3 6.06748e-16 0)
(3 3.32238e-16 0)
(3 6.02374e-17 0)
(3 -1.46856e-16 0)
(3 -8.82165e-17 0)
(3 2.09147e-16 0)
(3 -1.2762e-12 0)
(3 -4.65266e-07 0)
(3.00719 0.00481344 0)
(2.52102 0.494979 0)
(1.33738 0.891675 0)
(1.21786 0.904387 0)
(1.28727 0.90085 0)
(1.35265 0.897945 0)
(1.45611 0.887474 0)
(3 1.96788e-16 0)
(3 2.3902e-16 0)
(3 2.96644e-16 0)
(3 1.35639e-16 0)
(3 4.71609e-17 0)
(3 3.28193e-17 0)
(3 4.84844e-16 0)
(3 4.71225e-16 0)
(3 -9.80065e-17 0)
(3 -2.71577e-16 0)
(3 -4.91455e-17 0)
(3 -2.33016e-14 0)
(3 -8.52715e-08 0)
(3.00002 2.27301e-05 0)
(3.01727 0.0370602 0)
(2.06595 0.735269 0)
(1.33933 0.947683 0)
(1.3383 0.950327 0)
(1.4195 0.927886 0)
(1.50194 0.908681 0)
(3 -1.44803e-17 0)
(3 1.02632e-16 0)
(3 5.46623e-17 0)
(3 -4.53431e-17 0)
(3 -1.61018e-16 0)
(3 -4.01458e-17 0)
(3 -5.09166e-17 0)
(3 -9.36382e-17 0)
(3 1.29498e-16 0)
(3 -5.62627e-17 0)
(3 1.68716e-16 0)
(3 -3.16996e-17 0)
(3 -2.27825e-09 0)
(3 2.77478e-09 0)
(3.00048 0.000723008 0)
(2.93782 0.158274 0)
(1.90605 0.829932 0)
(1.43934 0.965865 0)
(1.45865 0.965845 0)
(1.54259 0.944421 0)
(3 1.62043e-16 0)
(3 2.30805e-16 0)
(3 2.94913e-16 0)
(3 5.26779e-16 0)
(3 6.03399e-16 0)
(3 4.53223e-16 0)
(3 1.93873e-17 0)
(3 1.19434e-16 0)
(3 1.10825e-16 0)
(3 5.97247e-16 0)
(3 5.94787e-16 0)
(3 1.34687e-16 0)
(3 -4.28062e-12 0)
(3 -1.3198e-12 0)
(3 6.68342e-07 0)
(3.00121 0.00619205 0)
(2.8294 0.264382 0)
(1.87183 0.872721 0)
(1.5444 0.984051 0)
(1.56425 0.97995 0)
(3 -3.90314e-17 0)
(3 -2.34332e-17 0)
(3 2.14823e-16 0)
(3 5.57284e-16 0)
(3 4.98332e-16 0)
(3 -8.06035e-17 0)
(3 -2.98315e-16 0)
(3 8.97044e-18 0)
(3 1.38995e-16 0)
(3 6.41017e-17 0)
(3 1.29329e-16 0)
(3 3.69866e-16 0)
(3 9.2241e-17 0)
(3 -2.87392e-13 0)
(3 9.67963e-11 0)
(3 1.89729e-05 0)
(2.99962 0.013951 0)
(2.73814 0.337916 0)
(1.93013 0.888075 0)
(1.64323 0.98926 0)
(3 -2.41467e-16 0)
(3 -3.46358e-16 0)
(3 -7.28865e-17 0)
(3 3.15419e-16 0)
(3 1.62773e-16 0)
(3 -6.40724e-17 0)
(3 6.33955e-17 0)
(3 6.60119e-17 0)
(3 1.93446e-16 0)
(3 -4.04789e-16 0)
(3 -7.33166e-16 0)
(3 -5.53431e-16 0)
(3 -3.98927e-16 0)
(3 -4.44471e-14 0)
(3 -1.92444e-13 0)
(3 6.51799e-09 0)
(3 7.583e-05 0)
(2.99365 0.0237706 0)
(2.75572 0.346539 0)
(1.95334 0.902073 0)
(3 5.14865e-17 0)
(3 8.9089e-17 0)
(3 -1.77643e-16 0)
(3 -1.52725e-16 0)
(3 -1.85392e-16 0)
(3 -1.93452e-16 0)
(3 2.43697e-16 0)
(3 -1.75478e-16 0)
(3 -4.0321e-16 0)
(3 -2.73736e-16 0)
(3 -7.09394e-16 0)
(3 -1.11349e-15 0)
(3 -5.78895e-16 0)
(3 -2.26286e-15 0)
(3 -1.05804e-13 0)
(3 2.03173e-13 0)
(3 4.62361e-08 0)
(2.99996 0.00019246 0)
(2.99602 0.0226567 0)
(2.70121 0.420187 0)
(3 1.38266e-17 0)
(3 4.02806e-17 0)
(3 -1.60612e-16 0)
(3 -7.19352e-16 0)
(3 -6.81107e-16 0)
(3 -2.98472e-16 0)
(3 -4.25984e-16 0)
(3 -2.31712e-16 0)
(3 -3.70512e-16 0)
(3 -3.64012e-16 0)
(3 -1.45307e-16 0)
(3 -6.86803e-16 0)
(3 -8.36981e-16 0)
(3 -5.59723e-16 0)
(3 -1.05094e-14 0)
(3 -3.35908e-14 0)
(3 3.92665e-12 0)
(3 1.232e-07 0)
(2.99996 0.000288301 0)
(3.01877 0.0174336 0)
(3 -1.53163e-17 0)
(3 1.15138e-17 0)
(3 6.43356e-18 0)
(3 6.38758e-17 0)
(3 -5.2261e-17 0)
(3 1.449e-16 0)
(3 3.76982e-16 0)
(3 4.57608e-16 0)
(3 3.39729e-18 0)
(3 -2.30112e-16 0)
(3 9.35432e-17 0)
(3 -3.91674e-16 0)
(3 -4.56532e-16 0)
(3 -2.44683e-16 0)
(3 -2.17848e-16 0)
(3 -1.24176e-14 0)
(3 -1.26268e-14 0)
(3 1.41635e-11 0)
(3 3.55782e-07 0)
(3.00047 9.76719e-05 0)
(3 -4.65026e-18 0)
(3 -2.01414e-17 0)
(3 -1.62074e-16 0)
(3 -1.98407e-17 0)
(3 -4.33132e-17 0)
(3 3.0882e-16 0)
(3 4.5935e-16 0)
(3 -2.99779e-17 0)
(3 -5.40796e-16 0)
(3 -6.40266e-16 0)
(3 -8.22357e-16 0)
(3 4.50548e-16 0)
(3 7.1771e-16 0)
(3 9.17534e-16 0)
(3 4.6108e-16 0)
(3 -2.97116e-16 0)
(3 -2.1261e-15 0)
(3 -6.71176e-16 0)
(3 6.51207e-11 0)
(3 5.4281e-08 0)
(3 5.17073e-18 0)
(3 3.6033e-17 0)
(3 1.88323e-16 0)
(3 -3.71433e-16 0)
(3 -4.09858e-16 0)
(3 -3.45627e-16 0)
(3 -3.29865e-16 0)
(3 -5.76583e-16 0)
(3 -3.63151e-16 0)
(3 -5.3578e-16 0)
(3 -4.22606e-16 0)
(3 -3.5962e-16 0)
(3 2.04143e-16 0)
(3 4.74025e-16 0)
(3 5.80382e-16 0)
(3 6.99172e-16 0)
(3 1.27144e-15 0)
(3 9.93337e-16 0)
(3 4.91289e-15 0)
(3 2.45797e-12 0)
(3 1.59481e-17 0)
(3 1.7509e-16 0)
(3 1.96909e-16 0)
(3 -3.17223e-17 0)
(3 -3.34156e-16 0)
(3 -6.88417e-16 0)
(3 -7.95497e-16 0)
(3 -3.9971e-16 0)
(3 -7.10916e-17 0)
(3 2.38231e-17 0)
(3 -3.42383e-17 0)
(3 -7.90138e-17 0)
(3 3.88665e-16 0)
(3 3.24603e-16 0)
(3 3.50475e-16 0)
(3 7.49149e-16 0)
(3 1.17086e-15 0)
(3 1.08301e-15 0)
(3 1.1224e-15 0)
(3 1.80069e-15 0)
(3 6.01767e-17 0)
(3 -4.42308e-17 0)
(3 -3.01325e-16 0)
(3 -2.37535e-17 0)
(3 2.20152e-16 0)
(3 3.20537e-16 0)
(3 2.91e-16 0)
(3 4.04702e-16 0)
(3 2.24447e-16 0)
(3 3.72384e-16 0)
(3 3.80632e-16 0)
(3 5.52647e-16 0)
(3 9.04825e-16 0)
(3 9.09583e-16 0)
(3 2.57217e-17 0)
(3 2.67795e-16 0)
(3 6.19667e-16 0)
(3 5.23774e-16 0)
(3 8.63106e-16 0)
(3 5.75374e-16 0)
(3 -1.92058e-16 0)
(3 -9.09301e-17 0)
(3 2.09146e-16 0)
(3 6.9749e-16 0)
(3 6.21017e-16 0)
(3 3.36416e-16 0)
(3 3.29248e-16 0)
(3 9.97179e-16 0)
(3 1.40645e-15 0)
(3 1.31954e-15 0)
(3 1.023e-15 0)
(3 6.86079e-16 0)
(3 1.29983e-16 0)
(3 -2.05017e-16 0)
(3 -1.07038e-16 0)
(3 2.33911e-16 0)
(3 2.90461e-16 0)
(3 9.60334e-16 0)
(3 9.42075e-16 0)
(3 5.70034e-16 0)
(3 -2.75246e-16 0)
(3 1.18169e-16 0)
(3 4.65589e-16 0)
(3 5.42404e-16 0)
(3 2.9846e-16 0)
(3 -2.51431e-16 0)
(3 -6.24687e-17 0)
(3 2.81437e-16 0)
(3 8.17894e-16 0)
(3 7.06572e-16 0)
(3 4.25551e-16 0)
(3 3.70772e-16 0)
(3 -1.72231e-16 0)
(3 -5.02481e-16 0)
(3 -1.71332e-16 0)
(3 3.98104e-16 0)
(3 4.75178e-16 0)
(3 1.19508e-15 0)
(3 5.08224e-16 0)
(3 3.1732e-16 0)
(1.66025 1.38029 0)
(2.14204 0.0846246 0)
(2.49839 -0.031979 0)
(2.40254 -0.0139159 0)
(2.3824 -0.0218926 0)
(2.40782 -0.0375113 0)
(2.48385 -0.0375158 0)
(2.5974 -0.0299039 0)
(2.71064 -0.0145248 0)
(2.784 0.00332973 0)
(2.84047 0.00764449 0)
(2.85186 0.00566235 0)
(2.86729 -0.00121643 0)
(2.87626 -0.00286128 0)
(2.88419 -0.0025776 0)
(2.87353 0.00250506 0)
(2.85109 0.00770819 0)
(2.82582 0.00965052 0)
(2.78632 0.00861986 0)
(2.73431 0.000849771 0)
(1.85766 0.668931 0)
(2.27601 -0.120677 0)
(2.55926 -0.100611 0)
(2.48757 0.0191351 0)
(2.46107 0.0181548 0)
(2.50594 -0.0338741 0)
(2.55828 -0.0590402 0)
(2.66016 -0.0470804 0)
(2.75308 -0.00959894 0)
(2.80651 0.00798163 0)
(2.85497 0.00731532 0)
(2.86864 0.00236946 0)
(2.88714 -0.0102836 0)
(2.89923 -0.0137643 0)
(2.91218 -0.0107361 0)
(2.90121 0.00741423 0)
(2.86258 0.031837 0)
(2.83575 0.0387859 0)
(2.79444 0.0367393 0)
(2.74132 0.0136868 0)
(1.87704 0.713774 0)
(2.2879 0.30319 0)
(2.53993 -0.0400218 0)
(2.6052 -0.00903398 0)
(2.59609 -0.0252084 0)
(2.61967 -0.0496357 0)
(2.64788 -0.0515576 0)
(2.72103 -0.0345786 0)
(2.78804 -0.0216243 0)
(2.83531 -0.0154355 0)
(2.88382 -0.00206455 0)
(2.91285 -0.000895631 0)
(2.929 -0.00602358 0)
(2.9424 -0.0104019 0)
(2.95032 -0.00924686 0)
(2.93331 -7.9046e-05 0)
(2.88928 0.0221301 0)
(2.86684 0.0340512 0)
(2.83113 0.0410945 0)
(2.77603 0.0139341 0)
(1.83143 0.761212 0)
(2.30421 0.402865 0)
(2.54812 -0.0774453 0)
(2.68199 -0.0928472 0)
(2.67961 -0.0977963 0)
(2.67928 -0.093915 0)
(2.70565 -0.0670077 0)
(2.76171 -0.0383557 0)
(2.80855 -0.0255418 0)
(2.85149 -0.0040264 0)
(2.90818 0.0193416 0)
(2.95219 0.0174426 0)
(2.97391 0.00682346 0)
(2.98516 0.000197003 0)
(2.98588 0.00816529 0)
(2.96319 0.0236251 0)
(2.92316 0.0242178 0)
(2.90674 0.0271152 0)
(2.87735 0.0241157 0)
(2.83406 -0.0012128 0)
(1.8055 0.766493 0)
(2.22331 0.524489 0)
(2.49884 0.134963 0)
(2.62861 0.0219019 0)
(2.70696 -0.0526075 0)
(2.72421 -0.087902 0)
(2.74956 -0.0846751 0)
(2.78974 -0.0403946 0)
(2.82265 -0.0288728 0)
(2.85376 -0.0275368 0)
(2.91629 -0.00699959 0)
(2.97009 0.00149128 0)
(2.99806 0.00410949 0)
(3.01179 0.00752904 0)
(3.00955 0.0224026 0)
(2.98579 0.0415056 0)
(2.95481 0.0470899 0)
(2.94409 0.0518455 0)
(2.9233 0.0545293 0)
(2.88894 0.0190664 0)
(1.79055 0.784902 0)
(2.15962 0.587128 0)
(2.43216 0.286166 0)
(2.58708 0.024258 0)
(2.71365 -0.0320845 0)
(2.7427 -0.123193 0)
(2.77467 -0.118892 0)
(2.79234 -0.0764503 0)
(2.82416 -0.0416307 0)
(2.8541 -0.0284553 0)
(2.90935 -0.0148978 0)
(2.97602 -0.00590926 0)
(3.01065 -0.00206967 0)
(3.02217 0.00495226 0)
(3.01521 -0.00263154 0)
(2.98653 -0.0396928 0)
(2.97048 -0.105504 0)
(2.97129 -0.149099 0)
(2.96892 -0.115813 0)
(2.96148 -0.0700496 0)
(1.77359 0.821269 0)
(2.1065 0.643141 0)
(2.36992 0.385416 0)
(2.54122 0.13664 0)
(2.65392 0.107049 0)
(2.74103 -0.0634404 0)
(2.7789 -0.108236 0)
(2.807 -0.05874 0)
(2.8156 -0.0405531 0)
(2.85817 -0.0131999 0)
(2.90935 -0.00320043 0)
(2.98018 0.00604458 0)
(3.01272 0.000347715 0)
(3.01056 -0.0380495 0)
(2.98367 -0.142608 0)
(2.95152 -0.264045 0)
(2.9398 -0.384246 0)
(2.9666 -0.442325 0)
(3.00475 -0.419011 0)
(3.05851 -0.303726 0)
(1.77342 0.852234 0)
(2.05676 0.698231 0)
(2.30541 0.482919 0)
(2.49275 0.255541 0)
(2.62836 0.157523 0)
(2.75562 -0.0468405 0)
(2.79334 -0.11986 0)
(2.81324 -0.0685236 0)
(2.82525 -0.0401798 0)
(2.87601 -0.00926303 0)
(2.92682 -0.0012614 0)
(2.98475 -0.0163812 0)
(2.98382 -0.102984 0)
(2.94147 -0.292115 0)
(2.89794 -0.458301 0)
(2.88825 -0.520734 0)
(2.91125 -0.568297 0)
(2.96255 -0.569711 0)
(3.03624 -0.570883 0)
(3.12166 -0.470759 0)
(1.775 0.890676 0)
(2.04233 0.724919 0)
(2.26538 0.554195 0)
(2.45347 0.358005 0)
(2.60077 0.24167 0)
(2.72876 0.0638159 0)
(2.76561 0.00173286 0)
(2.78459 -0.0309275 0)
(2.8399 -0.031355 0)
(2.89691 -0.0324633 0)
(2.94595 -0.0549081 0)
(2.95259 -0.177124 0)
(2.88815 -0.425699 0)
(2.84656 -0.592742 0)
(2.84327 -0.641242 0)
(2.87291 -0.617767 0)
(2.93179 -0.601293 0)
(2.9986 -0.570404 0)
(3.08042 -0.570967 0)
(3.14927 -0.496453 0)
(1.76904 0.936099 0)
(2.01704 0.778957 0)
(2.24346 0.614165 0)
(2.42539 0.448595 0)
(2.56392 0.333116 0)
(2.70925 0.136128 0)
(2.76953 0.0068491 0)
(2.80441 -0.0312812 0)
(2.8522 -0.0347741 0)
(2.92034 -0.0856165 0)
(2.91317 -0.230193 0)
(2.84089 -0.516497 0)
(2.80762 -0.673928 0)
(2.83313 -0.702068 0)
(2.86372 -0.67534 0)
(2.91647 -0.625272 0)
(2.99779 -0.577694 0)
(3.0553 -0.546364 0)
(3.12321 -0.545797 0)
(3.16295 -0.491331 0)
(1.81576 0.932924 0)
(2.01799 0.807823 0)
(2.22544 0.678487 0)
(2.41066 0.524533 0)
(2.53611 0.401081 0)
(2.67806 0.204246 0)
(2.74546 0.122719 0)
(2.81085 0.0608846 0)
(2.87292 -0.0258192 0)
(2.86446 -0.202078 0)
(2.79587 -0.549919 0)
(2.76557 -0.731682 0)
(2.8 -0.762251 0)
(2.86288 -0.710468 0)
(2.91648 -0.657081 0)
(2.99254 -0.592918 0)
(3.0711 -0.547309 0)
(3.11233 -0.490646 0)
(3.15125 -0.468633 0)
(3.16793 -0.43034 0)
(1.88449 0.881101 0)
(1.98873 0.869548 0)
(2.22503 0.732695 0)
(2.38946 0.602058 0)
(2.51856 0.449509 0)
(2.6491 0.263464 0)
(2.74606 0.15668 0)
(2.7879 0.137271 0)
(2.79757 -0.0910819 0)
(2.7751 -0.460207 0)
(2.71221 -0.73482 0)
(2.74393 -0.81133 0)
(2.82362 -0.766591 0)
(2.91464 -0.68328 0)
(2.98103 -0.598203 0)
(3.06842 -0.537681 0)
(3.11006 -0.504467 0)
(3.13692 -0.441198 0)
(3.17733 -0.379849 0)
(3.17314 -0.32717 0)
(1.93162 0.835926 0)
(1.99019 0.913555 0)
(2.14269 0.812407 0)
(2.32991 0.666903 0)
(2.48163 0.502126 0)
(2.60838 0.342686 0)
(2.68654 0.292769 0)
(2.74118 0.0840198 0)
(2.69221 -0.284085 0)
(2.66266 -0.649996 0)
(2.70348 -0.797164 0)
(2.7788 -0.766338 0)
(2.88773 -0.705567 0)
(2.9442 -0.63413 0)
(3.04316 -0.540623 0)
(3.10485 -0.494315 0)
(3.14213 -0.452353 0)
(3.17699 -0.380946 0)
(3.19217 -0.3074 0)
(3.17613 -0.262064 0)
(2.27713 0.727776 0)
(2.00706 0.899925 0)
(2.10918 0.832278 0)
(2.27365 0.705356 0)
(2.42431 0.560287 0)
(2.58314 0.425483 0)
(2.65897 0.285945 0)
(2.62521 -0.0273175 0)
(2.59652 -0.471746 0)
(2.65655 -0.682198 0)
(2.73717 -0.688719 0)
(2.8508 -0.676665 0)
(2.95444 -0.62615 0)
(3.00953 -0.569233 0)
(3.08058 -0.500233 0)
(3.12415 -0.446595 0)
(3.17639 -0.389192 0)
(3.22509 -0.331356 0)
(3.2196 -0.258423 0)
(3.19609 -0.217034 0)
(2.84465 0.461335 0)
(2.10893 0.901856 0)
(2.11568 0.870255 0)
(2.2369 0.757267 0)
(2.41997 0.593773 0)
(2.53296 0.522656 0)
(2.52592 0.188746 0)
(2.52787 -0.315677 0)
(2.57174 -0.612141 0)
(2.65297 -0.63327 0)
(2.78661 -0.621536 0)
(2.89745 -0.573475 0)
(2.96952 -0.522007 0)
(3.03024 -0.480295 0)
(3.08308 -0.444957 0)
(3.12514 -0.414741 0)
(3.1735 -0.37232 0)
(3.21997 -0.329728 0)
(3.23624 -0.289509 0)
(3.21079 -0.252971 0)
(3.13085 0.0921841 0)
(2.29532 0.851915 0)
(2.18489 0.864704 0)
(2.25919 0.784416 0)
(2.36023 0.72775 0)
(2.44491 0.424921 0)
(2.4501 -0.0908547 0)
(2.51782 -0.377072 0)
(2.59255 -0.457913 0)
(2.70101 -0.492085 0)
(2.81012 -0.482711 0)
(2.91113 -0.460177 0)
(2.9892 -0.435574 0)
(3.05436 -0.413855 0)
(3.1049 -0.385906 0)
(3.14696 -0.342019 0)
(3.16123 -0.317415 0)
(3.18813 -0.292312 0)
(3.23804 -0.244781 0)
(3.22935 -0.189751 0)
(3.02579 0.0106994 0)
(2.56385 0.663537 0)
(2.27742 0.895323 0)
(2.28758 0.865419 0)
(2.36108 0.69575 0)
(2.3555 0.127268 0)
(2.42865 -0.304506 0)
(2.45567 -0.449414 0)
(2.59744 -0.445914 0)
(2.72505 -0.408469 0)
(2.81875 -0.387774 0)
(2.90781 -0.376492 0)
(2.9962 -0.34195 0)
(3.04529 -0.323075 0)
(3.07384 -0.320219 0)
(3.09955 -0.290689 0)
(3.12579 -0.255734 0)
(3.15675 -0.237208 0)
(3.21323 -0.222915 0)
(3.20179 -0.181589 0)
(3.00036 0.000485986 0)
(2.86618 0.379321 0)
(2.38466 0.860205 0)
(2.33755 0.860883 0)
(2.30671 0.483873 0)
(2.34836 0.0421585 0)
(2.39191 -0.244066 0)
(2.47236 -0.299638 0)
(2.58557 -0.303353 0)
(2.69345 -0.277107 0)
(2.77311 -0.264241 0)
(2.85043 -0.249478 0)
(2.94291 -0.229712 0)
(3.03443 -0.226178 0)
(3.08567 -0.224205 0)
(3.11032 -0.202759 0)
(3.1369 -0.175216 0)
(3.1669 -0.162616 0)
(3.21588 -0.157576 0)
(3.19256 -0.137625 0)
(3 6.65584e-06 0)
(3.01572 0.107276 0)
(2.49067 0.80479 0)
(2.40178 0.647188 0)
(2.16717 0.0476797 0)
(2.25062 -0.179739 0)
(2.34242 -0.201848 0)
(2.47977 -0.195166 0)
(2.61782 -0.190494 0)
(2.7242 -0.176134 0)
(2.80358 -0.166816 0)
(2.87533 -0.152712 0)
(2.96104 -0.14174 0)
(3.04811 -0.14174 0)
(3.10462 -0.144909 0)
(3.13051 -0.130861 0)
(3.15695 -0.113009 0)
(3.18786 -0.103615 0)
(3.23249 -0.0994476 0)
(3.20547 -0.0828954 0)
(3 1.83215e-08 0)
(2.99791 0.0149389 0)
(2.66149 0.292896 0)
(2.44051 0.512301 0)
(2.17691 0.165219 0)
(2.23826 0.00519059 0)
(2.36531 -0.0527709 0)
(2.4986 -0.057164 0)
(2.61956 -0.0524264 0)
(2.7072 -0.067433 0)
(2.76789 -0.0770047 0)
(2.83448 -0.0796951 0)
(2.9189 -0.0794005 0)
(3.00006 -0.08399 0)
(3.05099 -0.0883323 0)
(3.08033 -0.0794738 0)
(3.11457 -0.0710557 0)
(3.15212 -0.0647189 0)
(3.20205 -0.0626645 0)
(3.18426 -0.0560285 0)
)
;

boundaryField
{
    inlet
    {
        type            fixedValue;
        value           uniform (3 0 0);
    }
    outlet
    {
        type            inletOutlet;
        inletValue      uniform (3 0 0);
        value           nonuniform List<vector> 
20
(
(2.73431 0.000849771 0)
(2.74132 0.0136868 0)
(2.77603 0.0139341 0)
(2.83406 -0.0012128 0)
(2.88894 0.0190664 0)
(2.96148 -0.0700496 0)
(3.05851 -0.303726 0)
(3.12166 -0.470759 0)
(3.14927 -0.496453 0)
(3.16295 -0.491331 0)
(3.16793 -0.43034 0)
(3.17314 -0.32717 0)
(3.17613 -0.262064 0)
(3.19609 -0.217034 0)
(3.21079 -0.252971 0)
(3.22935 -0.189751 0)
(3.20179 -0.181589 0)
(3.19256 -0.137625 0)
(3.20547 -0.0828954 0)
(3.18426 -0.0560285 0)
)
;
    }
    top
    {
        type            symmetryPlane;
    }
    bottom
    {
        type            symmetryPlane;
    }
    step
    {
        type            slip;
    }
    defaultFaces
    {
        type            empty;
    }
}


// ************************************************************************* //
