/*--------------------------------*- C++ -*----------------------------------*\
  =========                 |
  \\      /  F ield         | OpenFOAM: The Open Source CFD Toolbox
   \\    /   O peration     | Website:  https://openfoam.org
    \\  /    A nd           | Version:  6.0
     \\/     M anipulation  |
\*---------------------------------------------------------------------------*/
FoamFile
{
    version     2.0;
    format      ascii;
    class       volScalarField;
    location    "3";
    object      p;
}
// * * * * * * * * * * * * * * * * * * * * * * * * * * * * * * * * * * * * * //

dimensions      [1 -1 -2 0 0 0 0];

internalField   nonuniform List<scalar> 
3000
(
0.669911
0.550739
0.52658
0.530022
0.549802
0.624712
0.90604
1.71552
5.1635
5.12912
0.669877
0.550717
0.526476
0.5299
0.549625
0.62443
0.905082
1.72041
5.15504
5.11048
0.669782
0.550679
0.526219
0.529582
0.549077
0.623121
0.901072
1.70138
5.12274
5.08381
0.669623
0.550623
0.5258
0.529062
0.548175
0.620929
0.895347
1.67789
5.08625
5.04218
0.669401
0.550542
0.525201
0.528331
0.546962
0.618284
0.888079
1.65478
5.02406
4.9697
0.669071
0.550438
0.524335
0.527267
0.545173
0.61418
0.877951
1.62231
4.92298
4.8612
0.668618
0.550278
0.523135
0.525823
0.542861
0.609293
0.864387
1.57968
4.7752
4.71009
0.667956
0.549975
0.521436
0.523844
0.539744
0.602015
0.845795
1.52038
4.56246
4.4995
0.667091
0.54936
0.519355
0.521526
0.536434
0.595459
0.823268
1.45996
4.26937
4.21185
0.665957
0.548564
0.516714
0.518575
0.532123
0.586275
0.792503
1.37333
3.83884
3.78206
1.0722
1.0734
1.08184
1.11738
1.21977
1.48144
2.15611
4.27367
12.8123
12.1614
1.07215
1.07332
1.08167
1.11704
1.21906
1.47992
2.15256
4.2519
12.7514
12.2715
1.07204
1.07314
1.08131
1.11629
1.21749
1.47645
2.14393
4.22872
12.6715
12.1733
1.07186
1.07285
1.08073
1.11513
1.21512
1.47138
2.1316
4.19081
12.5191
11.9504
1.0716
1.07243
1.07988
1.11345
1.21172
1.46412
2.11435
4.13207
12.2811
11.6408
1.07122
1.07181
1.07865
1.11106
1.207
1.45429
2.09036
4.05088
11.9487
11.2494
1.07065
1.0709
1.07693
1.10782
1.20066
1.44077
2.05769
3.9435
11.5033
10.7712
1.06952
1.06943
1.07469
1.1038
1.19255
1.42341
2.01357
3.80219
10.9183
10.1741
1.06754
1.06711
1.07179
1.09891
1.18242
1.39991
1.95471
3.61432
10.1532
9.44374
1.06502
1.0642
1.0682
1.0929
1.16989
1.37056
1.87774
3.36442
9.1211
8.50095
1.09172
1.17989
1.22063
1.30286
1.47679
1.86876
2.84639
5.87735
17.9734
17.0783
1.09171
1.17982
1.22045
1.30245
1.47589
1.86673
2.84119
5.85642
17.9214
17.0226
1.09168
1.17964
1.22007
1.30162
1.47405
1.86252
2.83063
5.82181
17.7983
16.8161
1.09163
1.17934
1.21946
1.30032
1.47119
1.856
2.81414
5.76544
17.5437
16.4113
1.09156
1.17885
1.21853
1.29841
1.46703
1.84649
2.78984
5.67999
17.1572
15.8971
1.09147
1.17806
1.21718
1.29574
1.46132
1.83342
2.7561
5.56178
16.639
15.2835
1.09131
1.17679
1.21536
1.29224
1.45374
1.81582
2.7104
5.4052
15.9725
14.5536
1.09094
1.17475
1.21411
1.28825
1.44392
1.79245
2.64965
5.20247
15.1242
13.6909
1.09022
1.17184
1.21281
1.28337
1.43139
1.76196
2.57012
4.94247
14.0582
12.667
1.08927
1.16828
1.21136
1.2775
1.41599
1.72402
2.46933
4.6114
12.6869
11.4256
1.04948
1.14883
1.19959
1.30119
1.51417
1.98721
3.15715
6.80716
21.2642
19.9874
1.04947
1.14877
1.19944
1.30081
1.51328
1.9851
3.15171
6.78859
21.2175
19.8592
1.04947
1.14862
1.19918
1.30006
1.51145
1.98067
3.14011
6.74826
21.0658
19.5304
1.04946
1.14833
1.19885
1.29891
1.5085
1.97349
3.12112
6.67922
20.7406
18.9854
1.04945
1.14785
1.19838
1.29724
1.50422
1.96303
3.0931
6.57616
20.2536
18.3167
1.04943
1.14703
1.19772
1.29496
1.49838
1.94863
3.05417
6.43402
19.6179
17.5486
1.04939
1.14571
1.19701
1.29207
1.49071
1.92937
3.00178
6.24661
18.8179
16.6487
1.04929
1.14362
1.19691
1.28898
1.48106
1.90414
2.93297
6.00695
17.8195
15.6181
1.04908
1.14078
1.19715
1.28535
1.46891
1.87182
2.84472
5.70735
16.5903
14.4096
1.0488
1.13733
1.19765
1.281
1.45396
1.83174
2.73471
5.3366
15.0662
13.0173
1.01917
1.09733
1.15393
1.26565
1.49665
2.00581
3.26575
7.22953
22.8841
21.3185
1.01916
1.09728
1.15387
1.26534
1.4958
2.0037
3.26039
7.2118
22.8372
21.166
1.01914
1.09716
1.15383
1.26475
1.49403
1.99916
3.24846
7.16959
22.6706
20.7703
1.01909
1.09691
1.15386
1.26387
1.49121
1.99179
3.22852
7.09469
22.3081
20.1435
1.01901
1.09646
1.15393
1.26263
1.48714
1.98109
3.19891
6.98274
21.7719
19.3903
1.01887
1.09571
1.15415
1.26101
1.48161
1.96633
3.15773
6.82878
21.0823
18.5389
1.01864
1.09449
1.15471
1.25911
1.4744
1.94665
3.10251
6.62656
20.2265
17.5481
1.0183
1.09267
1.15589
1.25701
1.46531
1.92114
3.03075
6.37015
19.1617
16.4322
1.01785
1.09026
1.15774
1.25462
1.4539
1.88868
2.93963
6.05316
17.8613
15.1054
1.01732
1.08738
1.16019
1.25177
1.43978
1.84839
2.82668
5.66717
16.2871
13.6268
1.01917
1.09734
1.15394
1.26565
1.49662
2.00572
3.26544
7.22829
22.8838
21.3196
1.01916
1.09729
1.15388
1.26534
1.49578
2.00361
3.26008
7.21055
22.8369
21.1671
1.01914
1.09717
1.15384
1.26475
1.49401
1.99906
3.24814
7.16841
22.6702
20.7713
1.01909
1.09692
1.15387
1.26387
1.49118
1.9917
3.22823
7.09364
22.3077
20.1444
1.01901
1.09647
1.15395
1.26263
1.48712
1.98103
3.19869
6.98196
21.7716
19.3913
1.01887
1.09572
1.15416
1.26102
1.4816
1.96631
3.15762
6.82833
21.0821
18.5398
1.01864
1.0945
1.15473
1.25912
1.47441
1.94665
3.10248
6.62641
20.2264
17.5488
1.0183
1.09268
1.1559
1.25702
1.46532
1.92117
3.03079
6.37021
19.1617
16.4328
1.01785
1.09027
1.15775
1.25463
1.45391
1.88871
2.93969
6.0533
17.8613
15.1059
1.01732
1.08739
1.16019
1.25178
1.4398
1.84841
2.82674
5.66728
16.2868
13.6276
1.04948
1.14886
1.19962
1.3012
1.51413
1.98703
3.1564
6.80345
21.2633
19.9907
1.04948
1.1488
1.19947
1.30083
1.51326
1.98495
3.15102
6.7851
21.2165
19.8624
1.04947
1.14865
1.19922
1.30009
1.51142
1.9805
3.13939
6.74471
21.0646
19.5336
1.04946
1.14837
1.19889
1.29894
1.50848
1.97334
3.12046
6.67607
20.739
18.9884
1.04945
1.14788
1.19842
1.29726
1.50421
1.96292
3.09261
6.5739
20.2524
18.32
1.04944
1.14706
1.19776
1.29499
1.49839
1.94859
3.05393
6.43286
19.617
17.5517
1.04939
1.14573
1.19704
1.2921
1.49073
1.92939
3.00177
6.24637
18.8173
16.6517
1.04929
1.14365
1.19694
1.28901
1.4811
1.90422
2.93315
6.00744
17.8189
15.6206
1.04909
1.1408
1.19717
1.28538
1.46895
1.87191
2.84493
5.70794
16.5899
14.4118
1.04881
1.13734
1.19767
1.28103
1.454
1.83181
2.73487
5.33699
15.0653
13.0195
1.09174
1.17994
1.22069
1.30292
1.47686
1.8688
2.84601
5.87146
17.9707
17.0841
1.09173
1.17987
1.22051
1.30252
1.47598
1.86681
2.84093
5.85205
17.9203
17.0286
1.0917
1.1797
1.22013
1.3017
1.47416
1.86266
2.83047
5.81624
17.7953
16.822
1.09165
1.17939
1.21952
1.30039
1.47127
1.85607
2.8139
5.76075
17.5403
16.4171
1.09158
1.1789
1.21859
1.29847
1.46711
1.84657
2.78973
5.6768
17.1549
15.9034
1.09149
1.1781
1.21722
1.2958
1.46138
1.83347
2.75606
5.56068
16.637
15.2898
1.09132
1.17683
1.2154
1.29228
1.4538
1.8159
2.71054
5.40543
15.9712
14.5591
1.09095
1.17478
1.21415
1.2883
1.44399
1.79256
2.64998
5.2041
15.1235
13.6957
1.09023
1.17187
1.21284
1.28341
1.43145
1.76208
2.57044
4.94375
14.0575
12.6706
1.08929
1.1683
1.21138
1.27754
1.41605
1.72413
2.46959
4.6121
12.686
11.4284
1.07224
1.07346
1.08192
1.11752
1.22002
1.48196
2.15721
4.26856
12.808
12.1706
1.0722
1.07338
1.08176
1.11718
1.21932
1.4805
2.15359
4.25049
12.752
12.2826
1.07209
1.0732
1.0814
1.11646
1.21783
1.47724
2.14579
4.22449
12.6649
12.1826
1.07192
1.07292
1.08082
1.11529
1.21542
1.47198
2.1331
4.18806
12.5157
11.9591
1.07166
1.07249
1.07996
1.11359
1.21198
1.46465
2.11568
4.13061
12.2783
11.6496
1.07127
1.07186
1.07872
1.11117
1.20718
1.45448
2.09098
4.05153
11.9462
11.2576
1.07069
1.07094
1.07698
1.10791
1.20079
1.44089
2.05812
3.94472
11.5028
10.7773
1.06956
1.06946
1.07473
1.10386
1.19263
1.42349
2.01372
3.80466
10.9189
10.1791
1.06757
1.06713
1.07182
1.09895
1.18248
1.39999
1.95486
3.61572
10.1541
9.44581
1.06504
1.06422
1.06823
1.09294
1.16995
1.37067
1.87799
3.36509
9.1224
8.50171
0.66995
0.550751
0.526667
0.530132
0.55001
0.625261
0.907333
1.7262
5.17844
5.13799
0.669913
0.550731
0.526564
0.53001
0.549821
0.624883
0.906431
1.73001
5.15394
5.11656
0.669825
0.550693
0.526321
0.529712
0.549322
0.623761
0.903146
1.71757
5.12981
5.09085
0.669672
0.550635
0.525906
0.529201
0.548452
0.621744
0.897281
1.69171
5.09018
5.04458
0.669445
0.550554
0.525299
0.528457
0.547207
0.618971
0.889824
1.66611
5.02729
4.97025
0.669113
0.550449
0.524419
0.527377
0.545395
0.614875
0.878979
1.62792
4.92563
4.86117
0.668652
0.550287
0.523196
0.525902
0.543017
0.609774
0.864962
1.58235
4.77763
4.70941
0.667983
0.549983
0.521471
0.523886
0.539816
0.602217
0.845926
1.5176
4.56376
4.49838
0.667109
0.549369
0.519376
0.52155
0.536469
0.595524
0.823168
1.45858
4.27025
4.21052
0.665971
0.548573
0.516732
0.518596
0.532155
0.58634
0.792581
1.37357
3.83989
3.78109
0.662244
0.546089
0.50818
0.508913
0.517669
0.55545
0.694915
1.11875
2.43128
2.30301
0.658064
0.542579
0.496868
0.492456
0.496607
0.517286
0.591087
0.853588
1.56297
1.5437
0.655161
0.531916
0.483102
0.468561
0.469322
0.475947
0.502765
0.594782
0.820955
1.29878
0.651882
0.529957
0.479901
0.441777
0.434762
0.435678
0.442329
0.467855
0.542465
0.719253
0.651715
0.529248
0.478422
0.441743
0.418107
0.415728
0.417139
0.424636
0.450227
0.521261
0.652553
0.528607
0.47813
0.441538
0.412879
0.408343
0.408831
0.41257
0.426719
0.469205
0.652055
0.528618
0.477736
0.44036
0.412556
0.395127
0.393863
0.394702
0.399305
0.414622
0.651906
0.5285
0.477704
0.440217
0.41287
0.391786
0.388355
0.388862
0.392274
0.40523
0.651475
0.528654
0.477641
0.440668
0.411819
0.392535
0.380015
0.378931
0.381807
0.390023
0.651917
0.528353
0.477768
0.440466
0.411627
0.39246
0.377768
0.374376
0.367102
0.343427
1.05732
1.05533
1.05722
1.07477
1.13298
1.28607
1.66345
2.70426
5.90967
5.52848
1.04833
1.04497
1.03802
1.04724
1.08391
1.18533
1.43882
2.08962
3.9589
3.86263
1.03275
1.02594
1.00791
1.00882
1.02026
1.05895
1.15929
1.39544
1.95308
3.20938
1.0276
1.02035
1.0011
0.961748
0.962199
0.968969
0.991345
1.04786
1.17492
1.36533
1.02668
1.01924
0.999421
0.959087
0.937445
0.939759
0.950699
0.981629
1.05631
1.22471
1.02685
1.01919
0.999084
0.958243
0.929021
0.929709
0.936293
0.957672
1.01213
1.14023
1.02607
1.01845
0.998203
0.956897
0.926114
0.909425
0.910849
0.918123
0.939131
0.990904
1.02596
1.01834
0.998011
0.956483
0.925767
0.903081
0.903271
0.907065
0.920838
0.956513
1.0257
1.01817
0.997872
0.956348
0.923727
0.902761
0.892947
0.894583
0.902071
0.92492
1.02586
1.01821
0.997764
0.955846
0.923312
0.90272
0.887622
0.887929
0.891266
0.905131
1.08641
1.15791
1.20651
1.25966
1.37022
1.61245
2.17891
3.70683
8.31341
7.74246
1.08318
1.1474
1.19402
1.23233
1.31156
1.48317
1.87477
2.87512
5.77476
5.58559
1.07269
1.13804
1.16762
1.19888
1.23537
1.31093
1.47337
1.83769
2.63654
4.53596
1.07146
1.12964
1.16529
1.17179
1.18511
1.20699
1.24288
1.31138
1.43607
1.69858
1.0705
1.12898
1.16453
1.1675
1.17305
1.18498
1.20965
1.26144
1.37257
1.62041
1.07025
1.12919
1.16435
1.16666
1.16994
1.17817
1.19645
1.23618
1.32308
1.51751
1.06975
1.12869
1.1638
1.16536
1.16593
1.16822
1.17511
1.19155
1.22817
1.30811
1.06948
1.12911
1.16355
1.16469
1.16467
1.16561
1.17022
1.1826
1.21173
1.2779
1.06935
1.12917
1.16318
1.16328
1.16299
1.16362
1.16691
1.17685
1.20148
1.25846
1.06936
1.12928
1.1629
1.16286
1.16229
1.16263
1.16472
1.17211
1.19164
1.2386
1.048
1.12759
1.19842
1.26714
1.40806
1.70994
2.40489
4.27518
9.90257
9.16625
1.04849
1.11828
1.19266
1.24474
1.34977
1.56992
2.06022
3.31149
7.01217
6.74261
1.04242
1.11727
1.17194
1.2313
1.28079
1.38065
1.58919
2.05041
3.04035
5.38948
1.04358
1.10757
1.17342
1.22276
1.25684
1.29244
1.34221
1.4146
1.55498
1.85965
1.04274
1.10691
1.17467
1.21918
1.2509
1.28093
1.31299
1.37783
1.51329
1.81172
1.04243
1.10707
1.17497
1.21819
1.24965
1.27754
1.3031
1.3548
1.46318
1.70042
1.0421
1.10694
1.17518
1.21691
1.2471
1.27283
1.29277
1.31627
1.36451
1.46504
1.04175
1.10769
1.17526
1.21601
1.24579
1.27148
1.29072
1.31131
1.35342
1.44206
1.04165
1.10791
1.17502
1.21512
1.24483
1.2694
1.28992
1.3088
1.34694
1.42625
1.04163
1.10798
1.17485
1.215
1.24447
1.26875
1.28889
1.30716
1.33764
1.40033
1.01585
1.07942
1.16653
1.24194
1.39552
1.72364
2.48013
4.52536
10.6948
9.8677
1.01817
1.07128
1.16716
1.22431
1.33935
1.58042
2.11807
3.49702
7.62355
7.31692
1.01524
1.07644
1.14936
1.2231
1.27773
1.38809
1.61896
2.13156
3.22504
5.81167
1.01691
1.0667
1.15203
1.22259
1.27053
1.3144
1.37347
1.44782
1.5978
1.92367
1.01616
1.06633
1.15432
1.2196
1.26643
1.30928
1.34437
1.41484
1.56125
1.88323
1.01592
1.06642
1.15495
1.21862
1.26558
1.30785
1.33618
1.39292
1.51116
1.76935
1.01571
1.06666
1.1557
1.21721
1.2642
1.30445
1.33411
1.36186
1.41626
1.52746
1.01536
1.06751
1.15614
1.21616
1.26304
1.3031
1.33376
1.35966
1.40822
1.50798
1.01529
1.06769
1.15618
1.21587
1.26273
1.30185
1.33406
1.3582
1.40162
1.49065
1.01529
1.06768
1.1561
1.21593
1.26257
1.3017
1.33291
1.35918
1.39284
1.46094
1.01585
1.07942
1.16653
1.24195
1.39553
1.72366
2.48016
4.52539
10.6946
9.86755
1.01817
1.07128
1.16717
1.22432
1.33936
1.58044
2.1181
3.49707
7.62341
7.31675
1.01524
1.07644
1.14936
1.2231
1.27773
1.3881
1.61897
2.1316
3.22518
5.81234
1.01691
1.06669
1.15203
1.22259
1.27052
1.31439
1.37343
1.44781
1.59783
1.92382
1.01616
1.06633
1.15432
1.2196
1.26643
1.30928
1.3444
1.41492
1.56143
1.88365
1.01592
1.06642
1.15495
1.21863
1.26558
1.30785
1.33626
1.39315
1.51174
1.77075
1.01574
1.06665
1.15566
1.21722
1.26416
1.30444
1.33411
1.36186
1.41639
1.52788
1.01532
1.06753
1.15614
1.2162
1.26308
1.30302
1.33364
1.35981
1.40901
1.50992
1.01527
1.06772
1.15619
1.21602
1.26266
1.3022
1.33399
1.35771
1.40048
1.48847
1.01532
1.06765
1.15611
1.2161
1.26256
1.3023
1.3327
1.35917
1.39261
1.46046
1.048
1.1276
1.19843
1.26716
1.40808
1.70998
2.40498
4.27534
9.90237
9.16611
1.04849
1.11828
1.19268
1.24476
1.34979
1.56996
2.0603
3.31167
7.01189
6.74226
1.04243
1.11727
1.17195
1.2313
1.28079
1.38066
1.58922
2.05052
3.0407
5.39114
1.04358
1.10757
1.17341
1.22274
1.25683
1.29241
1.34212
1.41456
1.55506
1.86004
1.04274
1.10691
1.17467
1.21918
1.2509
1.28095
1.31308
1.37807
1.51385
1.81304
1.04243
1.10708
1.17497
1.2182
1.24967
1.27759
1.30335
1.35548
1.46482
1.70441
1.04215
1.10689
1.17511
1.21691
1.24702
1.27281
1.29278
1.31644
1.36505
1.46646
1.04166
1.10775
1.17525
1.21605
1.24597
1.2715
1.29109
1.31284
1.35723
1.45011
1.04162
1.10798
1.1751
1.21549
1.24482
1.27017
1.2897
1.3077
1.34408
1.42004
1.04169
1.10789
1.17501
1.21547
1.24468
1.27011
1.28875
1.30776
1.33839
1.40142
1.08642
1.15793
1.20653
1.25969
1.37026
1.61252
2.17906
3.70722
8.31389
7.74297
1.08319
1.14741
1.19404
1.23236
1.3116
1.48323
1.8749
2.87538
5.77453
5.58541
1.0727
1.13803
1.16762
1.19889
1.23537
1.31095
1.47342
1.83787
2.63695
4.53796
1.07146
1.12963
1.16528
1.17177
1.18507
1.20694
1.24279
1.31132
1.43609
1.6989
1.0705
1.12898
1.16453
1.1675
1.17307
1.18505
1.20981
1.26182
1.37348
1.62269
1.07025
1.1292
1.16435
1.16665
1.16998
1.17833
1.19685
1.23716
1.32542
1.52324
1.06975
1.12859
1.16373
1.16533
1.16591
1.16822
1.17519
1.19181
1.22894
1.31018
1.0694
1.12919
1.16351
1.16465
1.16492
1.16658
1.17243
1.18706
1.22048
1.29505
1.06939
1.12931
1.16328
1.16356
1.16339
1.16404
1.16753
1.17741
1.2012
1.25536
1.06943
1.12924
1.16322
1.16339
1.16314
1.16364
1.16646
1.17503
1.19565
1.24216
1.05734
1.05534
1.05724
1.0748
1.13302
1.28615
1.66363
2.70487
5.91163
5.52978
1.04834
1.04498
1.03804
1.04727
1.08394
1.18539
1.43892
2.08989
3.95919
3.86311
1.03275
1.02594
1.00792
1.00882
1.02027
1.05897
1.15935
1.39562
1.95356
3.21119
1.02759
1.02034
1.00108
0.961713
0.962162
0.968926
0.991285
1.04776
1.17469
1.36531
1.02669
1.01924
0.99942
0.95908
0.937502
0.939846
0.950873
0.982028
1.05729
1.22722
1.02686
1.0192
0.999082
0.958213
0.929153
0.929914
0.936715
0.958643
1.01448
1.14609
1.02592
1.01834
0.998153
0.95692
0.926139
0.909558
0.911001
0.918355
0.939612
0.992151
1.02606
1.01836
0.997976
0.956353
0.925612
0.906295
0.907295
0.913266
0.931622
0.976944
1.026
1.01834
0.997813
0.955822
0.924911
0.902037
0.897687
0.900212
0.910679
0.939113
1.02598
1.01828
0.99778
0.955804
0.92478
0.901922
0.894296
0.893935
0.894705
0.900445
0.662253
0.546095
0.508194
0.508929
0.517693
0.555498
0.695042
1.11906
2.43287
2.30399
0.658061
0.542589
0.496878
0.49247
0.496624
0.517315
0.591165
0.853758
1.56374
1.54432
0.655161
0.531916
0.483102
0.468569
0.469332
0.475963
0.5028
0.594914
0.82126
1.29927
0.651874
0.529952
0.479887
0.44175
0.434758
0.435674
0.442327
0.467861
0.54245
0.719009
0.651728
0.529245
0.478419
0.441736
0.418121
0.415816
0.41725
0.424837
0.450702
0.522519
0.652585
0.52861
0.478136
0.441521
0.412884
0.408566
0.409108
0.413057
0.427817
0.471984
0.651782
0.528605
0.477731
0.440451
0.412665
0.395258
0.393832
0.394652
0.399197
0.414389
0.652331
0.528285
0.477576
0.440264
0.412536
0.393507
0.391482
0.392149
0.395973
0.409465
0.652037
0.528606
0.477645
0.440176
0.41249
0.391382
0.383896
0.383626
0.384323
0.388201
0.652052
0.528333
0.477665
0.440222
0.412569
0.391134
0.384165
0.376257
0.363489
0.335142
1.21082
0.744696
0.620397
0.609422
0.686691
0.742672
0.776193
0.851187
0.976707
1.05139
1.23542
0.80956
0.732439
0.747762
0.777159
0.807251
0.974152
0.947306
0.958692
0.993608
1.22514
0.962614
0.900631
0.80179
0.802458
0.82448
0.896171
0.945608
0.982616
1.02856
1.17675
1.12356
0.982474
0.865602
0.863504
0.865097
0.874399
0.898127
0.952561
1.03179
1.05878
1.09752
1.07166
0.999054
0.874119
0.882517
0.893215
0.91266
0.949756
1.00264
0.844378
1.07729
1.06719
1.02854
0.928997
0.90815
0.910298
0.929418
0.983207
1.02533
0.540549
1.03192
1.0766
1.06217
1.01534
0.987411
0.99707
1.07224
1.07942
1.04973
0.498436
0.953508
1.19195
1.21645
1.20967
1.20238
1.22862
1.21117
1.15652
1.03403
0.412947
0.748651
1.57529
1.5978
1.53637
1.48759
1.38194
1.26504
1.09093
1.00465
0.201918
0.664503
1.61705
1.61562
1.60143
1.54842
1.43542
1.27467
1.076
0.991106
2.87757
1.86994
1.61259
1.6175
1.72698
1.88498
1.97998
2.18726
2.53502
2.6343
2.95661
2.02713
1.84142
1.94247
1.95855
2.01554
2.43117
2.4638
2.48973
2.50942
2.97155
2.40984
2.31117
2.09989
2.06549
2.21301
2.24903
2.33028
2.41807
2.54106
2.86863
2.73973
2.42463
2.24186
2.27007
2.24806
2.2322
2.2737
2.39285
2.57368
2.64224
2.70041
2.65374
2.52909
2.29387
2.24789
2.26167
2.30617
2.40397
2.50771
2.14691
2.69212
2.67049
2.58397
2.38364
2.32149
2.32188
2.35748
2.48562
2.56161
1.33886
2.62693
2.74508
2.7146
2.60801
2.57731
2.61309
2.70822
2.70288
2.60853
1.1992
2.4151
3.0116
3.0638
3.08354
3.11467
3.08819
2.99592
2.82537
2.60443
1.10498
1.94677
3.90996
3.89562
3.75642
3.64507
3.39613
3.11861
2.71805
2.53525
1.06604
1.79297
3.86943
3.93261
3.89813
3.77734
3.51873
3.13131
2.70787
2.53212
3.95149
2.64325
2.33083
2.34791
2.48218
2.70703
2.84401
3.14009
3.68729
3.74686
4.06707
2.85864
2.63696
2.79852
2.8054
2.8711
3.47118
3.56372
3.57119
3.56663
4.15438
3.39006
3.27866
3.01288
2.95479
3.23994
3.23742
3.29473
3.43599
3.60291
4.0138
3.83464
3.40763
3.20142
3.25228
3.20694
3.19322
3.24274
3.39947
3.64428
3.69338
3.79145
3.73178
3.59185
3.33226
3.20315
3.21829
3.27856
3.43112
3.57315
3.02455
3.78801
3.76805
3.67137
3.43801
3.32165
3.32385
3.37937
3.57274
3.63278
1.83858
3.72889
3.89231
3.85334
3.72952
3.70354
3.76495
3.86121
3.82405
3.67064
1.71059
3.51571
4.30884
4.34972
4.40873
4.4737
4.40726
4.23723
3.92263
3.6872
1.608
2.98214
5.50146
5.45415
5.30255
5.135
4.78835
4.39389
3.84635
3.6248
1.52913
2.63492
5.44576
5.5588
5.5072
5.32796
4.95807
4.41156
3.85211
3.63803
4.58808
3.12934
2.80305
2.82953
2.97965
3.24661
3.40622
3.75684
4.44061
4.42463
4.73001
3.38073
3.15501
3.35031
3.3496
3.42067
4.14804
4.26366
4.26081
4.24881
4.88597
4.00725
3.88746
3.59311
3.52156
3.91728
3.87718
3.9149
4.08541
4.27196
4.72473
4.51237
4.01847
3.80784
3.87549
3.81454
3.81091
3.85815
4.0385
4.31517
4.34976
4.47438
4.40557
4.26429
4.02437
3.80548
3.82188
3.89216
4.09213
4.26159
3.56755
4.48098
4.46182
4.36458
4.12739
3.95798
3.96309
4.04126
4.27878
4.31216
2.13096
4.43951
4.61911
4.57726
4.45105
4.43273
4.52322
4.59166
4.52287
4.33548
2.01515
4.26117
5.11853
5.15414
5.25143
5.35952
5.26259
5.02661
4.59065
4.35739
1.90114
3.81586
6.37961
6.37708
6.28534
6.06544
5.67288
5.19632
4.55458
4.3286
1.75896
3.15874
6.43273
6.60106
6.53569
6.31147
5.86456
5.21406
4.57852
4.35773
4.88391
3.36397
3.03804
3.06985
3.22738
3.51573
3.68465
4.06566
4.78869
4.71729
5.03992
3.63266
3.41097
3.61897
3.61488
3.68973
4.48217
4.60203
4.59051
4.58172
5.23619
4.30621
4.18208
3.87496
3.79674
4.2525
4.18821
4.21482
4.39847
4.59005
5.06664
4.83703
4.3109
4.10183
4.17999
4.10698
4.11048
4.15291
4.34701
4.63327
4.66797
4.80512
4.72967
4.59036
4.37346
4.09421
4.11053
4.18326
4.41106
4.59999
3.83293
4.82277
4.80064
4.70202
4.4663
4.26262
4.27164
4.36909
4.62922
4.63657
2.26497
4.79417
4.97294
4.9286
4.80286
4.79625
4.91527
4.94008
4.85393
4.65219
2.15129
4.63579
5.48738
5.53051
5.66292
5.79291
5.68847
5.41689
4.90891
4.66533
2.03052
4.22447
6.71384
6.79744
6.72668
6.52166
6.11718
5.59237
4.89537
4.67847
1.85179
3.3853
6.8828
7.12115
7.04667
6.79564
6.30517
5.60225
4.93305
4.71897
4.88364
3.36372
3.0381
3.06993
3.22862
3.51652
3.6853
4.06739
4.78407
4.71065
5.03954
3.63231
3.41119
3.61973
3.61479
3.69011
4.4777
4.59097
4.58344
4.58713
5.23774
4.30569
4.1818
3.8751
3.79578
4.24781
4.18442
4.20812
4.39049
4.58546
5.06859
4.83909
4.31156
4.10124
4.17748
4.10397
4.10618
4.14634
4.34057
4.62571
4.6712
4.80994
4.73225
4.59021
4.37903
4.08863
4.10457
4.1756
4.40323
4.60536
3.8401
4.83376
4.80677
4.70294
4.46246
4.25465
4.2665
4.37338
4.64111
4.62653
2.26762
4.80871
4.97484
4.92828
4.80076
4.80291
4.93952
4.93621
4.84839
4.63999
2.15968
4.64815
5.465
5.51308
5.66771
5.80711
5.71206
5.43482
4.90603
4.64169
2.0248
4.23404
6.62815
6.73771
6.68178
6.51545
6.14852
5.60636
4.89448
4.68778
1.85177
3.38209
6.848
7.14846
7.07078
6.81226
6.31122
5.606
4.93968
4.73387
4.58731
3.12863
2.80321
2.82977
2.98312
3.24903
3.40804
3.76022
4.41545
4.40182
4.72896
3.37976
3.15564
3.35255
3.34954
3.42161
4.13656
4.23311
4.24385
4.27007
4.89033
4.00592
3.88689
3.59356
3.51859
3.90513
3.86692
3.89572
4.06371
4.25814
4.73011
4.51804
4.02067
3.80613
3.86845
3.80741
3.7975
3.84071
4.01944
4.29209
4.35937
4.48821
4.41408
4.26435
4.03862
3.79107
3.8058
3.87169
4.07171
4.27492
3.58957
4.51453
4.48085
4.36812
4.11661
3.9366
3.9502
4.05202
4.30652
4.29013
2.1396
4.49248
4.62463
4.57661
4.44513
4.44989
4.58185
4.58469
4.5064
4.31029
2.04853
4.34605
5.05843
5.10817
5.26436
5.4137
5.33442
5.07661
4.57037
4.29533
1.87949
3.78169
6.11222
6.2072
6.16726
6.04916
5.74951
5.23504
4.55334
4.35439
1.76343
3.16782
6.32736
6.67698
6.60319
6.3573
5.88469
5.22395
4.59642
4.40023
3.95037
2.6423
2.33103
2.34825
2.48722
2.71112
2.84647
3.1427
3.66059
3.72037
4.06568
2.85735
2.6379
2.80192
2.80559
2.87195
3.45703
3.52308
3.54933
3.59938
4.1603
3.38858
3.27851
3.0134
2.95003
3.2248
3.22483
3.26679
3.40694
3.58166
4.02072
3.84217
3.41119
3.19922
3.24305
3.19883
3.17356
3.21884
3.37005
3.60626
3.70844
3.81048
3.74497
3.59471
3.3491
3.18649
3.19802
3.25184
3.40406
3.58866
3.0606
3.83871
3.7981
3.67866
3.42447
3.29431
3.30709
3.39106
3.60041
3.61665
1.85191
3.82629
3.90116
3.85299
3.72091
3.72601
3.82559
3.859
3.80036
3.65326
1.78145
3.77268
4.23654
4.28642
4.42718
4.57908
4.51779
4.30784
3.87801
3.61065
1.58777
2.84684
5.0956
5.19016
5.16585
5.09478
4.87931
4.45213
3.84957
3.65808
1.52457
2.63004
5.29066
5.66507
5.60313
5.394
4.99042
4.42538
3.87585
3.69867
2.87635
1.86908
1.61273
1.61778
1.73232
1.89035
1.98201
2.18795
2.51611
2.62345
2.9556
2.02597
1.84248
1.94566
1.95898
2.0161
2.41911
2.42975
2.46858
2.53901
2.97611
2.409
2.31149
2.10016
2.06055
2.20041
2.23861
2.30377
2.3888
2.5173
2.87483
2.74671
2.42884
2.2387
2.2612
2.24003
2.21417
2.2496
2.3593
2.52988
2.65805
2.71697
2.6667
2.53618
2.30787
2.23838
2.24537
2.2807
2.37562
2.52145
2.18681
2.74049
2.70114
2.59388
2.3725
2.29749
2.30707
2.36676
2.50766
2.55885
1.34965
2.72785
2.75574
2.71628
2.59916
2.60087
2.65259
2.70969
2.68288
2.60686
1.28834
2.71946
2.9617
3.00381
3.10062
3.22524
3.19359
3.06241
2.77829
2.54236
1.13306
1.81959
3.48275
3.63598
3.62867
3.60021
3.47245
3.18477
2.73076
2.56534
1.03629
1.73104
3.71685
4.03853
3.99497
3.85104
3.55978
3.14482
2.72747
2.59189
1.20971
0.743884
0.620088
0.609238
0.690213
0.746574
0.776821
0.850944
0.954403
1.05398
1.23499
0.80871
0.732857
0.748963
0.777311
0.807084
0.969524
0.932139
0.954485
1.01902
1.22588
0.962305
0.900175
0.80132
0.800593
0.819251
0.890567
0.934801
0.966253
1.0085
1.1796
1.12699
0.986588
0.864332
0.858003
0.859004
0.86647
0.88476
0.931478
1.0061
1.06706
1.10196
1.07735
1.00495
0.883029
0.883947
0.886724
0.899014
0.934427
1.011
0.865062
1.09551
1.08057
1.03179
0.919756
0.893647
0.902256
0.933642
0.995126
1.02962
0.540095
1.0863
1.08871
1.07214
1.0097
1.00044
1.01157
1.06952
1.07242
1.05969
0.499302
1.11281
1.18095
1.19533
1.22226
1.26626
1.28135
1.24584
1.14651
1.01158
0.395308
0.681012
1.36383
1.4662
1.47156
1.46419
1.4209
1.30717
1.10617
1.0192
0.197533
0.642888
1.53612
1.66923
1.65132
1.59332
1.46509
1.27331
1.07292
1.01493
)
;

boundaryField
{
    inlet
    {
        type            fixedValue;
        value           uniform 1;
    }
    outlet
    {
        type            waveTransmissive;
        gamma           1.4;
        fieldInf        1;
        lInf            3;
        value           nonuniform List<scalar> 
100
(
1.01663
0.989308
0.9825
0.999839
1.01556
1.02769
1.02561
1.0018
1.01556
1.01167
2.48237
2.4428
2.38892
2.43163
2.45762
2.49623
2.51
2.47875
2.49918
2.51862
3.49594
3.4722
3.38386
3.42277
3.45711
3.51326
3.53062
3.50894
3.55417
3.5939
4.12728
4.1199
4.0206
4.04465
4.09046
4.15177
4.16886
4.15775
4.23235
4.28627
4.43675
4.40945
4.32965
4.34149
4.39705
4.45833
4.47468
4.47004
4.5649
4.6262
4.42984
4.40455
4.32907
4.33564
4.39633
4.45731
4.47088
4.46941
4.56712
4.62929
4.10817
4.10655
4.01896
4.02706
4.08515
4.14582
4.15693
4.15547
4.23883
4.29507
3.47128
3.45606
3.38195
3.39477
3.44133
3.49944
3.51417
3.50568
3.56347
3.60636
2.46163
2.43167
2.38745
2.40022
2.43152
2.47922
2.50027
2.47825
2.50865
2.53008
1.01334
0.99343
0.979182
0.981066
0.996954
1.01585
1.0283
1.00698
1.01888
1.01125
)
;
    }
    top
    {
        type            symmetryPlane;
    }
    bottom
    {
        type            symmetryPlane;
    }
    step
    {
        type            zeroGradient;
    }
    defaultFaces
    {
        type            empty;
    }
}


// ************************************************************************* //
