/*--------------------------------*- C++ -*----------------------------------*\
  =========                 |
  \\      /  F ield         | OpenFOAM: The Open Source CFD Toolbox
   \\    /   O peration     | Website:  https://openfoam.org
    \\  /    A nd           | Version:  6.0
     \\/     M anipulation  |
\*---------------------------------------------------------------------------*/
FoamFile
{
    version     2.0;
    format      ascii;
    class       volScalarField;
    location    "3";
    object      T;
}
// * * * * * * * * * * * * * * * * * * * * * * * * * * * * * * * * * * * * * //

dimensions      [0 0 0 1 0 0 0];

internalField   nonuniform List<scalar> 
3000
(
0.874524
0.834329
0.82135
0.817042
0.825526
0.893365
1.36663
2.3454
2.58771
2.59482
0.874544
0.834272
0.821324
0.816998
0.825467
0.893314
1.36831
2.39944
2.62654
2.54029
0.874668
0.834072
0.821318
0.816851
0.82519
0.891945
1.36469
2.32979
2.60933
2.51433
0.874881
0.833741
0.821315
0.816606
0.824733
0.889371
1.35984
2.28807
2.61284
2.51713
0.875133
0.833309
0.821284
0.816285
0.824051
0.887262
1.35074
2.27302
2.61294
2.51978
0.875547
0.832635
0.821285
0.815778
0.82318
0.882087
1.35061
2.24096
2.60581
2.51679
0.876033
0.831808
0.821218
0.815146
0.821883
0.878168
1.33125
2.20224
2.5953
2.50781
0.876561
0.830783
0.821015
0.814214
0.820701
0.86763
1.33198
2.12938
2.56978
2.48386
0.876719
0.829972
0.820412
0.813388
0.819108
0.865007
1.27624
2.10946
2.54149
2.45141
0.877006
0.828833
0.819723
0.81223
0.817264
0.857585
1.22414
2.05587
2.49708
2.38049
1.00231
1.00317
1.00571
1.01967
1.0657
1.18744
1.57066
3.06983
2.82612
2.58135
1.00229
1.00314
1.00566
1.01955
1.06536
1.18714
1.56714
3.05685
2.86018
2.74129
1.00226
1.00308
1.00557
1.0193
1.06477
1.1856
1.56333
3.04921
2.87205
2.74035
1.00221
1.00299
1.00544
1.01892
1.06399
1.18327
1.55672
3.04691
2.87126
2.73371
1.00212
1.00286
1.00524
1.01837
1.06265
1.1805
1.54795
3.03967
2.8673
2.72412
1.00201
1.00266
1.00498
1.01762
1.06102
1.176
1.5328
3.0208
2.86022
2.70272
1.00184
1.00236
1.00462
1.0166
1.05857
1.17053
1.51533
3.00032
2.84752
2.68275
1.00152
1.00189
1.00406
1.01518
1.05583
1.16118
1.48487
2.95081
2.83007
2.64092
1.00089
1.00112
1.00317
1.01332
1.05105
1.15126
1.45456
2.88025
2.80212
2.59829
1.00012
1.00017
1.00208
1.01101
1.04544
1.1373
1.40706
2.76591
2.74472
2.52468
1.0318
1.04317
1.05091
1.07499
1.13437
1.27884
1.68735
2.95752
2.7572
2.79286
1.03179
1.04314
1.05084
1.07485
1.13405
1.27823
1.68481
2.95439
2.75384
2.78748
1.03176
1.04307
1.0507
1.07454
1.1334
1.27682
1.68061
2.95101
2.75019
2.77992
1.03171
1.04296
1.05047
1.07407
1.13238
1.27458
1.67348
2.94363
2.74157
2.76857
1.03164
1.04279
1.05013
1.07337
1.13086
1.27128
1.6627
2.92935
2.73436
2.75307
1.03152
1.04252
1.04965
1.0724
1.12878
1.26654
1.64709
2.90899
2.72432
2.73367
1.03134
1.04214
1.049
1.07111
1.12591
1.26
1.62631
2.87895
2.71507
2.70518
1.03108
1.04169
1.04844
1.06961
1.12244
1.25162
1.59955
2.83929
2.6964
2.66986
1.03068
1.0411
1.0478
1.06773
1.11779
1.24067
1.56623
2.77921
2.67414
2.61828
1.03019
1.04038
1.04705
1.06542
1.11201
1.22652
1.52112
2.6951
2.62842
2.55263
1.0284
1.04863
1.06708
1.10314
1.17968
1.35036
1.80674
2.99556
2.68654
2.76863
1.02838
1.04861
1.067
1.10298
1.17933
1.34961
1.80471
2.9935
2.68818
2.77279
1.02836
1.04855
1.06687
1.10266
1.1786
1.34802
1.80035
2.98636
2.68985
2.76872
1.02831
1.04847
1.06668
1.10217
1.17748
1.34549
1.79294
2.9717
2.69116
2.75995
1.02824
1.04834
1.0664
1.10146
1.17582
1.34177
1.78113
2.95733
2.69299
2.74039
1.02812
1.04815
1.06601
1.10048
1.17353
1.33652
1.76412
2.93952
2.69246
2.72396
1.02791
1.04787
1.06553
1.09921
1.17044
1.3293
1.74124
2.91487
2.68877
2.69208
1.0276
1.04757
1.0651
1.09765
1.16644
1.3199
1.71237
2.88132
2.67863
2.66015
1.02717
1.0472
1.06461
1.0957
1.1613
1.30766
1.676
2.83311
2.66227
2.60652
1.02664
1.04678
1.06406
1.09332
1.1549
1.29221
1.62935
2.76158
2.62724
2.54716
1.01672
1.03655
1.05824
1.10181
1.18781
1.37366
1.85836
3.04805
2.64861
2.7518
1.0167
1.03654
1.05819
1.10166
1.18747
1.37287
1.8575
3.04491
2.65162
2.75967
1.01667
1.03653
1.05809
1.10136
1.18676
1.37114
1.85503
3.03684
2.65497
2.75671
1.0166
1.03651
1.05794
1.10089
1.18562
1.36844
1.84885
3.02349
2.65632
2.74813
1.01648
1.0365
1.05773
1.10023
1.18394
1.3646
1.83698
3.00429
2.65918
2.7289
1.01634
1.03641
1.05753
1.09933
1.18162
1.35921
1.82008
2.97911
2.66141
2.71263
1.01615
1.03627
1.05734
1.09817
1.17852
1.35188
1.79755
2.94468
2.66106
2.67815
1.01585
1.03612
1.05721
1.09673
1.17451
1.34227
1.76812
2.90809
2.65617
2.64936
1.01546
1.03595
1.05712
1.09496
1.1694
1.32995
1.73082
2.86524
2.64466
2.5873
1.015
1.03578
1.05705
1.09277
1.16303
1.31447
1.68394
2.80322
2.61387
2.53267
1.01672
1.03656
1.05824
1.10181
1.18779
1.37361
1.85827
3.048
2.64869
2.75164
1.01671
1.03654
1.05819
1.10166
1.18746
1.37282
1.8574
3.04487
2.65164
2.75951
1.01667
1.03653
1.05809
1.10136
1.18675
1.37109
1.85494
3.03682
2.65498
2.75653
1.0166
1.03652
1.05795
1.10089
1.18561
1.36841
1.84871
3.02348
2.65633
2.74795
1.01648
1.0365
1.05774
1.10023
1.18393
1.36458
1.83687
3.00428
2.65919
2.72873
1.01634
1.03641
1.05753
1.09933
1.18162
1.3592
1.82001
2.9791
2.66146
2.71246
1.01615
1.03628
1.05734
1.09817
1.17853
1.35187
1.79752
2.94467
2.66112
2.67798
1.01585
1.03612
1.05721
1.09674
1.17452
1.34228
1.76812
2.9081
2.65625
2.64917
1.01546
1.03595
1.05713
1.09496
1.1694
1.32996
1.73083
2.86524
2.64474
2.58711
1.015
1.03578
1.05706
1.09277
1.16303
1.31448
1.68395
2.80322
2.61393
2.53246
1.0284
1.04864
1.06708
1.10314
1.17965
1.35026
1.80612
2.99516
2.6867
2.76755
1.02839
1.04862
1.06701
1.10298
1.1793
1.34951
1.80412
2.99305
2.68836
2.77191
1.02836
1.04857
1.06688
1.10266
1.17858
1.34793
1.79976
2.98593
2.68991
2.76786
1.02832
1.04848
1.06669
1.10217
1.17746
1.34541
1.79246
2.9713
2.69122
2.7591
1.02825
1.04835
1.06641
1.10146
1.17581
1.34171
1.78077
2.95717
2.69308
2.73967
1.02812
1.04815
1.06602
1.10049
1.17353
1.33649
1.76392
2.93945
2.69257
2.72318
1.02792
1.04788
1.06554
1.09921
1.17045
1.3293
1.74118
2.91488
2.68893
2.69154
1.02761
1.04758
1.0651
1.09766
1.16646
1.31993
1.71241
2.88135
2.67888
2.65951
1.02718
1.04721
1.06462
1.09571
1.16131
1.30769
1.67606
2.83313
2.6625
2.60606
1.02665
1.04679
1.06407
1.09332
1.15491
1.29223
1.62939
2.76156
2.62745
2.54658
1.03181
1.04318
1.05092
1.075
1.13435
1.2788
1.68614
2.95638
2.75478
2.78988
1.0318
1.04315
1.05085
1.07486
1.13405
1.27817
1.68377
2.95367
2.75278
2.78511
1.03177
1.04308
1.05071
1.07456
1.13341
1.2768
1.67935
2.9493
2.74866
2.77757
1.03172
1.04297
1.05048
1.07408
1.13237
1.27456
1.67258
2.94222
2.74025
2.76607
1.03165
1.0428
1.05014
1.07338
1.13086
1.27127
1.66203
2.92821
2.7335
2.75093
1.03153
1.04253
1.04966
1.07241
1.12877
1.26656
1.64686
2.90855
2.72383
2.73163
1.03135
1.04215
1.04901
1.07112
1.12591
1.26003
1.62636
2.8789
2.71486
2.70352
1.03108
1.0417
1.04845
1.06962
1.12244
1.25167
1.59988
2.83991
2.69665
2.66813
1.03069
1.0411
1.04781
1.06774
1.11781
1.24071
1.56645
2.77945
2.67442
2.61699
1.03019
1.04039
1.04706
1.06543
1.11203
1.22656
1.52121
2.69511
2.62878
2.55125
1.00232
1.00318
1.00571
1.01969
1.06572
1.18779
1.5692
3.0631
2.82133
2.59015
1.0023
1.00316
1.00567
1.01957
1.06547
1.18725
1.56569
3.04826
2.85702
2.7465
1.00227
1.0031
1.00558
1.01933
1.06489
1.18599
1.56166
3.04445
2.86026
2.74555
1.00221
1.00301
1.00544
1.01894
1.06397
1.18378
1.55629
3.04052
2.86457
2.74007
1.00213
1.00287
1.00525
1.0184
1.06268
1.18084
1.54755
3.03523
2.8609
2.73071
1.00202
1.00267
1.00498
1.01763
1.06094
1.17638
1.5341
3.02047
2.8539
2.70993
1.00185
1.00237
1.00463
1.01661
1.05849
1.17081
1.51652
3.00157
2.84337
2.68985
1.00152
1.00189
1.00407
1.01519
1.05576
1.16134
1.48538
2.94892
2.82701
2.64868
1.0009
1.00112
1.00318
1.01332
1.05105
1.15133
1.45493
2.88053
2.79938
2.60446
1.00013
1.00017
1.00209
1.01102
1.04545
1.13738
1.40726
2.76631
2.74275
2.53076
0.87447
0.834403
0.821336
0.817083
0.825676
0.89379
1.37111
2.38735
2.61456
2.62824
0.874509
0.834334
0.821328
0.817035
0.82563
0.893342
1.37175
2.42565
2.60978
2.54422
0.874616
0.834156
0.821316
0.816906
0.825374
0.892362
1.36848
2.39885
2.62205
2.52566
0.874808
0.833843
0.821304
0.816674
0.82489
0.890489
1.36159
2.33244
2.61489
2.51762
0.875081
0.833394
0.821282
0.816343
0.824199
0.88805
1.35238
2.30914
2.61492
2.51571
0.87549
0.832728
0.821268
0.815846
0.823231
0.883757
1.3419
2.25235
2.60724
2.51134
0.875987
0.831878
0.821205
0.815193
0.821909
0.879398
1.32433
2.20734
2.59703
2.50215
0.876516
0.830832
0.821008
0.814235
0.820734
0.867782
1.34012
2.1138
2.56923
2.47861
0.876699
0.829994
0.820413
0.813397
0.819124
0.865084
1.2767
2.10289
2.54021
2.44669
0.876993
0.82885
0.819724
0.812238
0.817278
0.857675
1.22405
2.05673
2.49628
2.37682
0.878349
0.824584
0.817765
0.808148
0.809958
0.832159
1.02895
1.79502
2.25691
2.24539
0.878179
0.820826
0.813033
0.801377
0.800505
0.811389
0.878312
1.426
1.8638
2.02905
0.868886
0.824907
0.798773
0.796138
0.78996
0.792092
0.801697
1.01201
1.40347
1.66487
0.872687
0.819614
0.79677
0.776051
0.774338
0.769648
0.771343
0.793744
0.981519
1.32877
0.871632
0.820028
0.795049
0.773636
0.764726
0.761569
0.757878
0.760983
0.783056
0.978926
0.869492
0.82229
0.793172
0.774736
0.759218
0.758502
0.754831
0.755332
0.762559
0.823367
0.870967
0.821053
0.794534
0.772852
0.757293
0.74831
0.747468
0.744152
0.747118
0.752147
0.87053
0.820424
0.794353
0.772828
0.758664
0.745887
0.743742
0.743207
0.742108
0.756135
0.871446
0.818832
0.794185
0.773339
0.75693
0.747778
0.736428
0.736669
0.736819
0.81777
0.870462
0.820203
0.7929
0.775225
0.755586
0.747419
0.734368
0.733612
0.720145
0.795203
0.998127
0.996945
0.998697
1.00426
1.02926
1.09496
1.28973
2.11081
2.54226
2.43104
0.996378
0.991592
0.992564
0.995435
1.01046
1.05722
1.16917
1.64638
2.15468
2.21928
0.991239
0.982793
0.981568
0.982909
0.986399
1.00305
1.04108
1.21508
1.66498
1.88228
0.989517
0.98258
0.972942
0.966866
0.967838
0.969106
0.976288
0.997582
1.15997
1.25817
0.989806
0.981358
0.972558
0.962329
0.960104
0.96087
0.96382
0.975712
1.01052
1.13709
0.989491
0.981167
0.972317
0.960962
0.956821
0.957658
0.959399
0.968042
0.990482
1.07556
0.988847
0.981577
0.971474
0.961443
0.953077
0.950353
0.95087
0.95262
0.962509
0.981243
0.989512
0.981114
0.970823
0.961332
0.95249
0.947896
0.948346
0.950001
0.95454
0.973094
0.989122
0.981311
0.971
0.960624
0.951683
0.946634
0.944377
0.946296
0.949959
0.98061
0.989017
0.981171
0.970858
0.961042
0.951084
0.946108
0.942128
0.944548
0.946448
0.97054
1.02875
1.03822
1.04465
1.05835
1.0945
1.18232
1.39637
2.23332
2.49133
2.42765
1.02791
1.03457
1.04067
1.04893
1.07378
1.13589
1.28026
1.84431
2.21272
2.26462
1.02501
1.03025
1.03352
1.03652
1.04537
1.07021
1.12795
1.31666
1.59829
1.88338
1.02351
1.0296
1.02827
1.02839
1.02884
1.03271
1.04153
1.06769
1.10562
1.215
1.02323
1.02923
1.02771
1.02626
1.02581
1.02646
1.03254
1.04938
1.08506
1.23037
1.02314
1.0292
1.0277
1.02529
1.02559
1.02428
1.02824
1.04119
1.07022
1.17791
1.02283
1.02908
1.02706
1.0257
1.02345
1.02169
1.02103
1.02499
1.03717
1.06746
1.02286
1.02905
1.02698
1.02556
1.02284
1.02097
1.01956
1.02257
1.03256
1.05865
1.02276
1.02905
1.02692
1.02516
1.02223
1.01977
1.01912
1.02153
1.03021
1.05472
1.02277
1.02904
1.02681
1.02504
1.02204
1.01929
1.01853
1.0203
1.02739
1.04964
1.02515
1.04549
1.0622
1.08586
1.13514
1.24297
1.49006
2.36446
2.54582
2.45458
1.02405
1.04328
1.05833
1.07571
1.11172
1.18973
1.36061
1.99826
2.30272
2.33865
1.02274
1.04001
1.0535
1.06555
1.08132
1.1154
1.1877
1.41275
1.71598
1.98613
1.02363
1.03457
1.05122
1.06542
1.07031
1.0757
1.08758
1.12116
1.15957
1.29138
1.02271
1.03417
1.05244
1.06467
1.06717
1.07017
1.07855
1.10279
1.14669
1.31294
1.0225
1.03418
1.05269
1.06451
1.06642
1.06833
1.0747
1.09376
1.13038
1.25427
1.02216
1.03399
1.05332
1.06415
1.06535
1.06565
1.06908
1.07826
1.09586
1.13371
1.02185
1.03425
1.05392
1.06365
1.06446
1.06482
1.06852
1.07671
1.09181
1.12298
1.02173
1.03444
1.05394
1.06326
1.06398
1.06427
1.06811
1.07573
1.08893
1.11672
1.02178
1.0344
1.05385
1.06327
1.06398
1.06416
1.06766
1.07497
1.08574
1.10831
1.01382
1.03512
1.05664
1.08568
1.1429
1.26395
1.53527
2.45703
2.55905
2.45235
1.01343
1.03359
1.05424
1.07613
1.11901
1.20821
1.3989
2.08305
2.35683
2.36623
1.0135
1.03162
1.05191
1.06821
1.08821
1.12864
1.21155
1.46323
1.78613
2.0387
1.01507
1.02555
1.049
1.07487
1.08213
1.08821
1.10239
1.14135
1.18361
1.32625
1.01397
1.02474
1.0512
1.07511
1.07979
1.08294
1.09277
1.12385
1.17231
1.35296
1.01371
1.02465
1.05172
1.07514
1.0793
1.08137
1.08909
1.1148
1.15571
1.29094
1.01339
1.02447
1.05279
1.07481
1.07856
1.07945
1.08523
1.10023
1.12056
1.16216
1.01292
1.02455
1.05422
1.07424
1.07724
1.07848
1.08534
1.09937
1.11757
1.15146
1.01281
1.02464
1.05448
1.07409
1.07682
1.07809
1.08548
1.09887
1.11407
1.14468
1.01287
1.02463
1.05434
1.07414
1.07688
1.07813
1.08488
1.09874
1.11116
1.13447
1.01382
1.03512
1.05664
1.08568
1.1429
1.26396
1.53528
2.45698
2.55909
2.45226
1.01343
1.0336
1.05424
1.07614
1.11902
1.20821
1.39891
2.083
2.35686
2.36619
1.0135
1.03162
1.05191
1.06821
1.08821
1.12864
1.21155
1.46325
1.78614
2.03879
1.01507
1.02555
1.049
1.07487
1.08213
1.0882
1.10239
1.14135
1.18362
1.32633
1.01397
1.02474
1.0512
1.07511
1.07979
1.08294
1.09278
1.12387
1.17235
1.35299
1.01371
1.02465
1.05172
1.07514
1.0793
1.08138
1.08911
1.11489
1.15583
1.29201
1.0134
1.02447
1.05276
1.07482
1.07857
1.07946
1.08522
1.10022
1.12058
1.1623
1.0129
1.02456
1.05424
1.07426
1.07724
1.07847
1.08531
1.09942
1.11782
1.15201
1.01282
1.02462
1.05444
1.07419
1.07691
1.07815
1.08546
1.0987
1.11376
1.14412
1.01289
1.02462
1.0543
1.07422
1.07696
1.07819
1.08486
1.09871
1.11111
1.1343
1.02515
1.0455
1.06221
1.08586
1.13515
1.24298
1.4901
2.36434
2.54593
2.45443
1.02405
1.04329
1.05833
1.07572
1.11173
1.18975
1.36065
1.99813
2.30272
2.33853
1.02274
1.04
1.05351
1.06555
1.08133
1.1154
1.18768
1.41306
1.71572
1.98652
1.02363
1.03457
1.05121
1.06541
1.07031
1.07569
1.08756
1.12119
1.15962
1.29165
1.02271
1.03417
1.05244
1.06467
1.06717
1.07018
1.07857
1.10284
1.14684
1.313
1.0225
1.03418
1.05269
1.06451
1.06642
1.06836
1.07477
1.094
1.13074
1.25737
1.02219
1.03397
1.05328
1.06416
1.06536
1.06565
1.06906
1.07825
1.09596
1.13417
1.0218
1.03428
1.05396
1.06366
1.06448
1.06485
1.06861
1.07709
1.09276
1.1251
1.02177
1.03438
1.05396
1.06345
1.06411
1.06432
1.06803
1.07541
1.0881
1.11478
1.02184
1.03435
1.05385
1.06345
1.06414
1.06431
1.06771
1.07523
1.08579
1.10809
1.02876
1.03823
1.04465
1.05835
1.09451
1.18235
1.39643
2.23331
2.49138
2.42696
1.02791
1.03457
1.04068
1.04894
1.0738
1.13591
1.28036
1.84381
2.21311
2.2642
1.02501
1.03025
1.03352
1.03653
1.04537
1.07022
1.12791
1.31732
1.59746
1.8842
1.02351
1.0296
1.02827
1.02838
1.02883
1.0327
1.04151
1.06772
1.10562
1.21519
1.02323
1.02923
1.02771
1.02626
1.02582
1.02648
1.03259
1.0495
1.08529
1.23173
1.02313
1.0292
1.02769
1.0253
1.0256
1.02433
1.02837
1.04149
1.07088
1.18064
1.02284
1.02907
1.02703
1.02567
1.02345
1.02169
1.02101
1.025
1.03733
1.068
1.0228
1.02903
1.02704
1.02563
1.02289
1.02109
1.02005
1.02357
1.03446
1.06317
1.02284
1.02903
1.02697
1.02521
1.0223
1.01991
1.01907
1.02094
1.02843
1.04822
1.02289
1.02902
1.02689
1.02508
1.02227
1.01979
1.01877
1.02018
1.02662
1.04517
0.998131
0.996951
0.998702
1.00427
1.02928
1.095
1.28979
2.11262
2.54056
2.43382
0.996384
0.9916
0.992574
0.995443
1.01047
1.05723
1.16921
1.64713
2.15442
2.21928
0.991239
0.982795
0.98157
0.982911
0.986402
1.00306
1.04105
1.21536
1.66445
1.88399
0.989513
0.982579
0.97293
0.966858
0.967821
0.969091
0.976269
0.997553
1.15992
1.25794
0.989807
0.981344
0.972576
0.962323
0.96012
0.960892
0.963879
0.975877
1.01085
1.13957
0.989477
0.98112
0.972351
0.960954
0.956864
0.957715
0.95955
0.968416
0.991329
1.07844
0.988968
0.981681
0.971205
0.961358
0.953347
0.950439
0.950855
0.952484
0.962871
0.981274
0.989344
0.980701
0.971698
0.961116
0.95259
0.949076
0.949429
0.951051
0.956737
0.982197
0.989508
0.980546
0.971508
0.960801
0.951611
0.946703
0.946362
0.948663
0.950995
0.967198
0.989626
0.980776
0.971044
0.960423
0.951547
0.947038
0.945236
0.946103
0.945264
0.961439
0.878342
0.824595
0.817767
0.808152
0.809968
0.832202
1.02914
1.79595
2.25789
2.24571
0.878207
0.820808
0.813046
0.801375
0.800509
0.811399
0.87841
1.42701
1.86554
2.02941
0.868886
0.824911
0.798774
0.796137
0.789962
0.792111
0.801663
1.01287
1.40479
1.66618
0.872691
0.81959
0.796793
0.77602
0.774307
0.769645
0.771353
0.793852
0.982001
1.32934
0.871601
0.820053
0.795086
0.773598
0.764746
0.761626
0.757956
0.761119
0.783455
0.979926
0.869404
0.822329
0.793265
0.774765
0.759213
0.758536
0.755052
0.755736
0.763329
0.826187
0.871521
0.820612
0.793449
0.773581
0.758117
0.748224
0.746863
0.743577
0.747429
0.751823
0.869902
0.822012
0.793236
0.77387
0.758038
0.747326
0.744698
0.743876
0.742848
0.760955
0.870082
0.82015
0.795222
0.773889
0.75692
0.744267
0.740439
0.741576
0.73806
0.745508
0.869995
0.820849
0.793486
0.773749
0.757666
0.744629
0.740233
0.736728
0.715326
0.770746
2.13064
2.04356
2.0753
2.16341
2.36238
2.39671
2.45074
2.44626
2.34525
2.28983
2.04467
2.00735
2.305
2.22504
2.40835
2.44605
2.62726
2.23017
2.09274
2.19739
1.90711
1.87307
2.00447
1.96653
2.07168
2.09883
2.29329
2.27066
2.23073
2.05578
1.77925
1.83549
1.82881
1.82975
1.86786
1.79857
1.85886
1.86664
1.83364
1.86063
1.45842
1.72424
1.7682
1.79147
1.73817
1.80358
1.80341
1.77647
1.75136
1.77229
1.32223
1.47008
1.61682
1.71585
1.68524
1.69274
1.721
1.71974
1.6633
1.66395
1.10966
1.44903
1.51164
1.49741
1.50985
1.47795
1.52138
1.55161
1.54528
1.54424
1.10806
1.67085
1.62816
1.54079
1.51809
1.50292
1.55428
1.55039
1.50993
1.49959
0.937264
1.5805
1.77196
1.79239
1.71603
1.63181
1.60452
1.55577
1.50317
1.52059
0.587723
1.59779
1.73589
1.71612
1.67483
1.63073
1.57781
1.5126
1.44501
1.45228
2.33088
2.29179
2.35466
2.54748
2.58271
2.62525
2.68907
2.73246
2.60511
2.49118
2.24881
2.26838
2.45851
2.53076
2.53005
2.58401
2.74569
2.52093
2.49533
2.43267
2.07573
2.19373
2.3277
2.32174
2.3501
2.43238
2.37238
2.32926
2.26222
2.15336
1.93339
2.01261
2.03525
2.12415
2.22499
2.12144
2.08309
2.04145
2.02133
2.01442
1.7454
1.90577
1.96518
2.02743
2.00472
2.00328
1.9898
1.95033
1.91801
1.89792
1.57581
1.71449
1.8347
1.89353
1.86933
1.87284
1.87181
1.82668
1.78501
1.79251
1.34125
1.68361
1.76701
1.77083
1.7464
1.72409
1.75684
1.71894
1.71855
1.71761
1.21859
1.7613
1.7454
1.68577
1.68175
1.73243
1.71929
1.69722
1.67005
1.66875
1.02001
1.41653
1.80385
1.81681
1.78322
1.7381
1.69605
1.64261
1.61409
1.62963
0.98279
1.48374
1.77301
1.72627
1.6849
1.65218
1.6144
1.58211
1.57064
1.58662
2.33841
2.31699
2.39845
2.64957
2.65779
2.6803
2.7432
2.84916
2.87148
2.76205
2.26194
2.29805
2.49215
2.58523
2.55271
2.60017
2.75918
2.73694
2.66049
2.4603
2.08906
2.2502
2.3681
2.37766
2.40442
2.50381
2.40994
2.3594
2.32353
2.20914
1.96545
2.03476
2.06016
2.17484
2.29384
2.19997
2.14333
2.09813
2.09335
2.07049
1.84784
1.96654
2.01407
2.08778
2.08696
2.05537
2.03041
1.9809
1.95523
1.92565
1.66748
1.81129
1.90084
1.95742
1.94183
1.9443
1.92869
1.86527
1.84036
1.85233
1.47913
1.75934
1.82995
1.83436
1.81359
1.82118
1.82992
1.78622
1.78873
1.80072
1.33336
1.79678
1.84035
1.79041
1.78306
1.83412
1.78492
1.75228
1.74255
1.75555
1.17696
1.66693
1.85721
1.84989
1.83571
1.78484
1.73032
1.69298
1.67704
1.70095
1.14148
1.53069
1.84518
1.8069
1.75723
1.70667
1.66326
1.63671
1.64111
1.66905
2.37294
2.3691
2.46306
2.80488
2.68935
2.71646
2.78333
2.83041
3.00523
2.98564
2.31466
2.3653
2.56933
2.64762
2.60641
2.64788
2.80053
2.77087
2.70896
2.55147
2.16868
2.33778
2.45558
2.46496
2.49474
2.60025
2.4557
2.40611
2.375
2.26971
2.06875
2.13767
2.15134
2.26145
2.37666
2.32529
2.25149
2.18022
2.17311
2.14693
1.97117
2.08168
2.12557
2.20639
2.21517
2.16054
2.11777
2.0708
2.05876
2.02652
1.80083
1.96512
2.03194
2.09497
2.08164
2.07244
2.0326
1.97386
1.96169
1.96311
1.59992
1.86372
1.94424
1.95975
1.9518
1.97366
1.9338
1.89919
1.90657
1.90804
1.4628
1.9026
1.96228
1.91931
1.92385
1.93105
1.89416
1.86608
1.85877
1.85793
1.30869
1.91485
1.96376
1.93364
1.93267
1.88289
1.8272
1.79792
1.78853
1.79999
1.24681
1.71483
1.95295
1.91763
1.87796
1.82052
1.76453
1.7436
1.75322
1.76645
2.3842
2.39005
2.48767
2.88335
2.68453
2.72157
2.78233
2.8819
2.94449
2.49224
2.34153
2.39872
2.60674
2.64793
2.63158
2.67981
2.83501
2.78598
2.69177
2.48526
2.20933
2.39356
2.50993
2.52425
2.56694
2.68189
2.48165
2.43307
2.38312
2.27191
2.11804
2.19296
2.21147
2.33268
2.4593
2.38864
2.30639
2.22712
2.22135
2.18975
2.03
2.14147
2.19405
2.2872
2.30372
2.23649
2.16464
2.12409
2.11927
2.08092
1.87231
2.04421
2.11427
2.17801
2.16239
2.14512
2.09148
2.04148
2.03679
2.02363
1.66886
1.93064
2.01207
2.03727
2.04264
2.08451
2.00476
1.96943
1.97755
1.976
1.54271
1.97311
2.0297
1.99792
2.01404
1.98091
1.95522
1.93146
1.92898
1.92468
1.38308
2.00329
2.01661
1.98584
1.99385
1.95111
1.90064
1.87727
1.87105
1.87425
1.31349
1.80942
2.01786
1.98932
1.9498
1.8906
1.84298
1.8257
1.8378
1.84003
2.38409
2.3899
2.48769
2.88354
2.68528
2.7222
2.78239
2.88313
2.94277
2.4775
2.34146
2.39857
2.60684
2.64788
2.63159
2.67995
2.8344
2.78407
2.68481
2.4807
2.20944
2.39321
2.50939
2.5236
2.56636
2.68063
2.47932
2.43234
2.38074
2.27016
2.11804
2.19331
2.21128
2.33246
2.45855
2.38806
2.30509
2.22416
2.21931
2.19067
2.03091
2.14217
2.19425
2.28658
2.30394
2.23639
2.16355
2.12181
2.11739
2.08283
1.87101
2.04551
2.1165
2.17783
2.16107
2.14484
2.09203
2.04127
2.03723
2.0237
1.6691
1.93353
2.00961
2.03969
2.04672
2.0898
2.00884
1.96973
1.97766
1.97587
1.54438
1.97374
2.02797
1.9985
2.01544
1.9818
1.95917
1.93439
1.93073
1.92383
1.38354
2.01112
2.0181
1.98143
1.98992
1.95338
1.90239
1.87592
1.86869
1.87541
1.31683
1.81315
2.01403
1.98619
1.95576
1.89467
1.84073
1.82301
1.83629
1.84208
2.37244
2.36837
2.46262
2.80428
2.69059
2.71736
2.78412
2.8312
3.00294
2.97349
2.31438
2.3647
2.56879
2.6472
2.60635
2.64838
2.80006
2.75956
2.70725
2.54757
2.16834
2.33695
2.45377
2.46278
2.4937
2.59803
2.45459
2.40318
2.37105
2.26609
2.06868
2.13961
2.14977
2.25668
2.36895
2.32642
2.25176
2.17872
2.17195
2.14841
1.9738
2.08471
2.12536
2.20267
2.21561
2.16097
2.11577
2.06834
2.05766
2.02959
1.79806
1.96832
2.0395
2.09111
2.07562
2.07162
2.03654
1.97378
1.96272
1.95684
1.6014
1.87527
1.9383
1.96164
1.96164
1.99563
1.94478
1.90034
1.90324
1.90193
1.46911
1.89451
1.94943
1.91282
1.93203
1.92123
1.90353
1.87463
1.85948
1.84945
1.31536
1.94713
1.96176
1.91175
1.91619
1.88432
1.83016
1.79565
1.78465
1.80016
1.25435
1.732
1.93711
1.90795
1.88491
1.83598
1.7681
1.74552
1.75589
1.77188
2.33805
2.31677
2.39827
2.65003
2.65958
2.68173
2.74166
2.85091
2.83175
2.74309
2.26196
2.2979
2.49208
2.5852
2.55295
2.60112
2.75898
2.71738
2.66148
2.46648
2.08662
2.2501
2.36778
2.37635
2.40376
2.50095
2.41134
2.35227
2.3165
2.205
1.9693
2.03629
2.0537
2.17468
2.28555
2.20182
2.14432
2.09673
2.09037
2.07186
1.84746
1.97131
2.01346
2.08821
2.08936
2.05707
2.02894
1.97805
1.95764
1.93569
1.66933
1.82089
1.91349
1.94756
1.92888
1.93954
1.92952
1.86458
1.84006
1.84911
1.48884
1.78659
1.82708
1.82888
1.82673
1.85727
1.84407
1.78861
1.78294
1.79309
1.33707
1.82706
1.81699
1.76835
1.78618
1.85073
1.79851
1.76699
1.74097
1.7371
1.20451
1.69459
1.85491
1.81522
1.80425
1.77326
1.7368
1.69318
1.67097
1.69073
1.15522
1.54847
1.80439
1.78325
1.76286
1.72642
1.67299
1.63921
1.64231
1.66588
2.33438
2.29434
2.35689
2.54979
2.58546
2.63511
2.67595
2.74211
2.61628
2.48094
2.25171
2.27099
2.46045
2.53207
2.53127
2.58579
2.74357
2.50666
2.51561
2.45242
2.07286
2.19618
2.32978
2.32403
2.35004
2.42701
2.37303
2.32291
2.24442
2.14807
1.94244
2.01219
2.02641
2.11673
2.21835
2.12033
2.08205
2.03431
2.00944
2.014
1.74267
1.91745
1.97209
2.02782
2.01635
2.01289
1.99227
1.93964
1.91312
1.9102
1.58167
1.72863
1.84544
1.87413
1.84787
1.86123
1.86856
1.82847
1.7886
1.79657
1.36694
1.72072
1.77847
1.77925
1.76467
1.77248
1.78577
1.73182
1.72549
1.72451
1.23613
1.73271
1.68788
1.65328
1.68363
1.75851
1.72956
1.7057
1.67742
1.66548
1.06659
1.433
1.80915
1.75848
1.72479
1.71892
1.70802
1.66637
1.62304
1.63046
0.992533
1.38864
1.69832
1.70696
1.69748
1.6833
1.64674
1.59425
1.57856
1.5958
2.13087
2.04232
2.07409
2.16289
2.36696
2.4064
2.43379
2.45329
2.25878
2.29546
2.04548
2.00717
2.30437
2.22336
2.40916
2.44722
2.63444
2.20026
2.1759
2.26643
1.90729
1.87244
2.00126
1.96624
2.07538
2.0902
2.29009
2.27789
2.19993
2.02317
1.78019
1.83629
1.83184
1.82505
1.85659
1.79014
1.85976
1.85756
1.81807
1.85666
1.45992
1.72423
1.77383
1.79207
1.76938
1.81894
1.8139
1.76428
1.75347
1.78977
1.33404
1.4702
1.62467
1.66752
1.64038
1.65562
1.70828
1.71851
1.66266
1.65978
1.11814
1.51286
1.55413
1.54063
1.51934
1.52363
1.55045
1.55934
1.56763
1.56627
1.02079
1.66666
1.59057
1.53591
1.53977
1.54879
1.58713
1.5875
1.55601
1.52465
0.775601
1.61024
1.83379
1.71531
1.66922
1.64688
1.64173
1.61323
1.52899
1.52251
0.545787
1.54623
1.6834
1.69063
1.67883
1.6529
1.59737
1.49491
1.40906
1.43192
)
;

boundaryField
{
    inlet
    {
        type            fixedValue;
        value           uniform 1;
    }
    outlet
    {
        type            inletOutlet;
        inletValue      uniform 1;
        value           nonuniform List<scalar> 
100
(
2.28993
2.19727
2.05594
1.86067
1.77221
1.6639
1.54427
1.4996
1.52057
1.45226
2.49123
2.43262
2.15339
2.01451
1.89786
1.79249
1.71754
1.66878
1.62962
1.58661
2.76213
2.46022
2.20916
2.07058
1.92562
1.85232
1.80064
1.75558
1.70093
1.66904
2.9857
2.55138
2.26973
2.14701
2.02651
1.96312
1.90799
1.85795
1.79998
1.76644
2.49229
2.48518
2.27191
2.18982
2.08092
2.02364
1.97598
1.92469
1.87425
1.84003
2.47757
2.48062
2.27017
2.19074
2.08285
2.02368
1.97585
1.92383
1.87541
1.84208
2.97353
2.5475
2.26611
2.14848
2.02961
1.9568
1.9019
1.84944
1.80016
1.77188
2.74312
2.46645
2.20503
2.07191
1.93569
1.84908
1.79309
1.73708
1.69073
1.66588
2.48098
2.45241
2.14809
2.01403
1.91019
1.79655
1.72455
1.66547
1.63046
1.59581
2.29551
2.2665
2.0232
1.85668
1.78979
1.65976
1.56639
1.52466
1.5225
1.43192
)
;
    }
    top
    {
        type            symmetryPlane;
    }
    bottom
    {
        type            symmetryPlane;
    }
    step
    {
        type            zeroGradient;
    }
    defaultFaces
    {
        type            empty;
    }
}


// ************************************************************************* //
