/*--------------------------------*- C++ -*----------------------------------*\
  =========                 |
  \\      /  F ield         | OpenFOAM: The Open Source CFD Toolbox
   \\    /   O peration     | Website:  https://openfoam.org
    \\  /    A nd           | Version:  6.0
     \\/     M anipulation  |
\*---------------------------------------------------------------------------*/
FoamFile
{
    version     2.0;
    format      ascii;
    class       volVectorField;
    location    "3";
    object      U;
}
// * * * * * * * * * * * * * * * * * * * * * * * * * * * * * * * * * * * * * //

dimensions      [0 1 -1 0 0 0 0];

internalField   nonuniform List<vector> 
3000
(
(3.09249 1.15644e-05 -0.0762317)
(3.11483 2.16181e-05 -0.0830692)
(3.11847 7.56737e-05 -0.0851073)
(3.11409 0.000143164 -0.0865022)
(3.09377 0.000251827 -0.0911046)
(3.0006 0.000424339 -0.104183)
(2.56286 0.00179505 -0.159019)
(1.53682 -0.00160298 -0.282911)
(0.24346 0.0129232 -0.317654)
(0.253544 0.0326731 -0.309074)
(3.09249 4.52276e-05 -0.0762335)
(3.11484 7.25601e-05 -0.0830614)
(3.11851 0.0002619 -0.085106)
(3.11413 0.000509514 -0.0864904)
(3.09385 0.000972061 -0.091078)
(3.0008 0.00217936 -0.10413)
(2.56365 0.00783776 -0.159245)
(1.50795 0.0187903 -0.287877)
(0.225126 0.0529767 -0.321095)
(0.252078 0.080954 -0.304672)
(3.09251 9.05042e-05 -0.0762445)
(3.11488 0.000133518 -0.0830356)
(3.11859 0.000489516 -0.0851116)
(3.11428 0.000963477 -0.086465)
(3.09423 0.00189789 -0.0910195)
(3.0023 0.00466337 -0.103931)
(2.57141 0.014846 -0.158724)
(1.53881 0.0439793 -0.280091)
(0.253412 0.0950099 -0.318563)
(0.264346 0.129232 -0.300319)
(3.09253 0.000135549 -0.0762638)
(3.11494 0.000199141 -0.0829929)
(3.11873 0.000735185 -0.0851228)
(3.11451 0.0014421 -0.0864269)
(3.09486 0.00279725 -0.0909355)
(3.00451 0.00655946 -0.103612)
(2.57947 0.0204307 -0.158048)
(1.57285 0.0527451 -0.275818)
(0.251596 0.137768 -0.31709)
(0.266359 0.189678 -0.297629)
(3.09257 0.000195888 -0.0762871)
(3.11502 0.000281815 -0.082936)
(3.11893 0.00105438 -0.0851352)
(3.11483 0.00206891 -0.0863741)
(3.09562 0.00398758 -0.0908078)
(3.00699 0.00917476 -0.103296)
(2.58927 0.0280073 -0.15689)
(1.59935 0.0673306 -0.273737)
(0.25891 0.198304 -0.314506)
(0.271992 0.268546 -0.294381)
(3.09262 0.000279102 -0.0763247)
(3.11514 0.000402342 -0.0828468)
(3.11922 0.00149479 -0.0851579)
(3.11531 0.00291235 -0.0862965)
(3.09678 0.00553386 -0.0906477)
(3.01073 0.0124591 -0.102649)
(2.6024 0.0381243 -0.156738)
(1.63312 0.0897524 -0.269527)
(0.278017 0.272588 -0.310822)
(0.282758 0.361504 -0.290272)
(3.09269 0.000398165 -0.0763677)
(3.11531 0.000616147 -0.082733)
(3.11962 0.00215207 -0.0851818)
(3.11592 0.00408568 -0.0861984)
(3.09819 0.00755414 -0.0904134)
(3.01534 0.0169571 -0.102057)
(2.62078 0.0513016 -0.154316)
(1.6851 0.119394 -0.264386)
(0.310185 0.362208 -0.306422)
(0.298594 0.470601 -0.285363)
(3.09281 0.00054462 -0.0764028)
(3.11557 0.000975036 -0.0825847)
(3.12018 0.00297785 -0.0852159)
(3.11676 0.00539549 -0.0860827)
(3.10023 0.00946964 -0.0901762)
(3.02238 0.019975 -0.100753)
(2.64608 0.0650446 -0.154241)
(1.74406 0.14589 -0.255563)
(0.353462 0.467412 -0.300221)
(0.318383 0.598892 -0.278675)
(3.09298 0.000712192 -0.0763826)
(3.11593 0.00137144 -0.0824444)
(3.12085 0.00387363 -0.0852163)
(3.11766 0.00682955 -0.0859722)
(3.10208 0.0116269 -0.0898187)
(3.02949 0.0234304 -0.0999997)
(2.68083 0.0812392 -0.14761)
(1.81457 0.181615 -0.251028)
(0.414705 0.599628 -0.293292)
(0.343034 0.759519 -0.271233)
(3.09321 0.000932741 -0.0763661)
(3.11639 0.00176646 -0.0822595)
(3.1217 0.0049788 -0.0852298)
(3.11882 0.00879338 -0.0858306)
(3.10462 0.0150975 -0.0894012)
(3.03945 0.0308989 -0.0986486)
(2.72915 0.101043 -0.14143)
(1.91179 0.231006 -0.242227)
(0.493404 0.758407 -0.284453)
(0.361239 0.961125 -0.260257)
(3.00388 1.39201e-05 -0.0133123)
(3.01117 3.78466e-05 -0.0199185)
(3.01104 9.4175e-05 -0.0219524)
(3.00247 0.000218526 -0.0240756)
(2.9682 0.000475825 -0.0277147)
(2.86478 0.000996246 -0.0341953)
(2.50777 0.00238406 -0.0488279)
(0.746657 0.0117326 -0.103856)
(-0.431915 0.0260131 -0.100017)
(0.495687 -0.08538 -0.0902735)
(3.00389 5.23591e-05 -0.0133132)
(3.0112 0.000132034 -0.0199176)
(3.01109 0.000313536 -0.021952)
(3.00257 0.000711108 -0.0240706)
(2.96844 0.00154927 -0.0276991)
(2.86517 0.00335678 -0.0341704)
(2.5101 0.00804144 -0.0486837)
(0.737185 0.0295199 -0.103265)
(-0.510311 0.0727717 -0.100995)
(0.0182496 0.039414 -0.0940062)
(3.00391 0.000102302 -0.0133161)
(3.01127 0.000248655 -0.0199152)
(3.01117 0.000573774 -0.0219533)
(3.00278 0.00127377 -0.0240641)
(2.96892 0.00274052 -0.0276791)
(2.86648 0.00592476 -0.0341224)
(2.51392 0.0138653 -0.0485782)
(0.786979 0.0449711 -0.10301)
(-0.485734 0.125357 -0.101236)
(0.0120083 0.165231 -0.0929405)
(3.00394 0.000152158 -0.0133212)
(3.01138 0.000374007 -0.0199103)
(3.0113 0.000866668 -0.0219559)
(3.00308 0.00191298 -0.0240555)
(2.9696 0.00406182 -0.0276528)
(2.86852 0.00862772 -0.0340475)
(2.52008 0.0198445 -0.0483667)
(0.80049 0.0668128 -0.102915)
(-0.468298 0.191268 -0.100343)
(0.0159959 0.285312 -0.0911134)
(3.00399 0.00022068 -0.0133283)
(3.01154 0.000544667 -0.0199018)
(3.01149 0.00126056 -0.0219581)
(3.00354 0.00275841 -0.0240416)
(2.97067 0.00578646 -0.0276052)
(2.871 0.0121313 -0.0339419)
(2.52791 0.0278374 -0.0480412)
(0.821007 0.0944686 -0.102424)
(-0.443883 0.267243 -0.0990752)
(0.0223906 0.400816 -0.0891475)
(3.00405 0.00033001 -0.013339)
(3.01177 0.000806968 -0.0198866)
(3.01176 0.00182404 -0.0219614)
(3.00416 0.00389638 -0.0240248)
(2.97206 0.00802639 -0.027551)
(2.87502 0.016659 -0.033782)
(2.54055 0.0381004 -0.0474971)
(0.872084 0.127015 -0.101433)
(-0.399574 0.352412 -0.097628)
(0.0327481 0.517131 -0.0868257)
(3.00417 0.000569367 -0.0133532)
(3.01209 0.00130905 -0.0198612)
(3.01214 0.0026752 -0.0219688)
(3.00503 0.00536059 -0.0240059)
(2.97407 0.010776 -0.0274701)
(2.87988 0.0222425 -0.0335777)
(2.55608 0.0511979 -0.0468566)
(0.930081 0.167962 -0.100284)
(-0.345656 0.450411 -0.0959693)
(0.0424619 0.641913 -0.084471)
(3.0044 0.0010048 -0.0133717)
(3.01254 0.00216957 -0.0198214)
(3.01267 0.00392689 -0.022015)
(3.00613 0.00720512 -0.0239941)
(2.97643 0.0140032 -0.0273786)
(2.888 0.0288239 -0.0332424)
(2.58105 0.0672067 -0.0458065)
(1.04804 0.215646 -0.0981224)
(-0.260572 0.562366 -0.0941693)
(0.0521402 0.778719 -0.0816298)
(3.00485 0.00143926 -0.0133916)
(3.01314 0.00303503 -0.0197717)
(3.0134 0.00523735 -0.0220743)
(3.00757 0.00921556 -0.023969)
(2.98003 0.0175915 -0.0271968)
(2.89644 0.0365286 -0.0328252)
(2.60821 0.0869372 -0.0447141)
(1.17542 0.27775 -0.0949695)
(-0.15821 0.699112 -0.0921801)
(0.0596606 0.93463 -0.0789375)
(3.0054 0.00179804 -0.0134176)
(3.0139 0.00376668 -0.0197134)
(3.0143 0.00647501 -0.0221566)
(3.00932 0.0113193 -0.0239453)
(2.98435 0.0214542 -0.0269902)
(2.90839 0.0443464 -0.0322822)
(2.64794 0.104427 -0.0431581)
(1.38857 0.323841 -0.0905159)
(-0.0164274 0.851224 -0.0898896)
(0.0682526 1.11279 -0.0762245)
(2.97274 6.17772e-06 0.000726875)
(2.96463 3.05853e-05 -0.00225883)
(2.95789 8.78496e-05 -0.0034336)
(2.93797 0.000212285 -0.00514437)
(2.88799 0.00048242 -0.00769579)
(2.75969 0.0010905 -0.0118392)
(2.36514 0.00265688 -0.020432)
(0.78874 0.00925344 -0.0442337)
(-0.437166 0.0261664 -0.0458243)
(-0.315771 0.0442015 -0.0453356)
(2.97275 2.1599e-05 0.000725649)
(2.96465 0.000104675 -0.0022595)
(2.95795 0.000284188 -0.00343422)
(2.93809 0.000666293 -0.00514435)
(2.88826 0.00149463 -0.00769343)
(2.76029 0.00337105 -0.0118314)
(2.36743 0.00811197 -0.0203948)
(0.797456 0.0249882 -0.044376)
(-0.437563 0.0695202 -0.0459136)
(-0.265619 0.115995 -0.0438007)
(2.97277 3.93391e-05 0.000722321)
(2.96471 0.000201474 -0.00226064)
(2.95807 0.000519743 -0.00343782)
(2.93834 0.00117943 -0.00514599)
(2.88881 0.00260273 -0.00769099)
(2.76159 0.00582988 -0.011821)
(2.37107 0.0139414 -0.0203551)
(0.807025 0.0417325 -0.044252)
(-0.430209 0.130223 -0.0456581)
(-0.24768 0.224542 -0.0426704)
(2.97281 5.546e-05 0.000716744)
(2.9648 0.000322895 -0.00226114)
(2.95826 0.000812871 -0.00344621)
(2.93875 0.00180333 -0.00514886)
(2.88968 0.00392426 -0.00768349)
(2.76369 0.0087292 -0.0117904)
(2.37746 0.0208909 -0.0202455)
(0.83056 0.0637604 -0.0439724)
(-0.405716 0.202356 -0.0450544)
(-0.229662 0.341948 -0.0414387)
(2.97287 7.86481e-05 0.000708902)
(2.96495 0.000504338 -0.00225979)
(2.95855 0.00122694 -0.00345855)
(2.93934 0.00263493 -0.00515304)
(2.89098 0.0056142 -0.00767092)
(2.76678 0.0123704 -0.0117427)
(2.38723 0.0296245 -0.0200614)
(0.870143 0.0904712 -0.0435667)
(-0.36683 0.279624 -0.044372)
(-0.208698 0.453822 -0.0401669)
(2.97296 0.000125089 0.000697219)
(2.96517 0.000801725 -0.00225494)
(2.95896 0.00180472 -0.00347743)
(2.94017 0.00370406 -0.00516136)
(2.89277 0.00771553 -0.00765595)
(2.77121 0.0168825 -0.011671)
(2.40137 0.0404198 -0.0197995)
(0.925747 0.121868 -0.0430071)
(-0.315191 0.362506 -0.0436521)
(-0.183711 0.566008 -0.0389409)
(2.97311 0.000244713 0.000680179)
(2.9655 0.00133087 -0.00224402)
(2.9595 0.00233872 -0.00350985)
(2.94127 0.00468513 -0.0051782)
(2.89523 0.0099605 -0.00763908)
(2.77726 0.0222094 -0.0115824)
(2.42034 0.0536586 -0.0194594)
(0.998557 0.159137 -0.0422352)
(-0.250668 0.454509 -0.0430023)
(-0.153364 0.683027 -0.037537)
(2.97337 0.0004766 0.000647569)
(2.96585 0.002112 -0.00222843)
(2.96001 0.0030256 -0.0035742)
(2.94255 0.00585768 -0.00521295)
(2.89823 0.0126678 -0.00762553)
(2.78499 0.0287775 -0.011463)
(2.44459 0.0700779 -0.0190497)
(1.08998 0.204184 -0.0413168)
(-0.17267 0.559156 -0.0422995)
(-0.119259 0.808854 -0.0362411)
(2.97376 0.000712437 0.000590837)
(2.96629 0.00286354 -0.00221672)
(2.96059 0.00389039 -0.00366785)
(2.94417 0.00734755 -0.00525876)
(2.90219 0.0158667 -0.00760496)
(2.7949 0.0363343 -0.0113411)
(2.475 0.0893152 -0.0185962)
(1.20554 0.25805 -0.0402795)
(-0.0792516 0.682205 -0.041792)
(-0.0821963 0.949202 -0.0347845)
(2.97425 0.000892666 0.000519248)
(2.96682 0.0034701 -0.00220546)
(2.96128 0.00473826 -0.00378948)
(2.94614 0.008934 -0.00531842)
(2.90711 0.0192325 -0.00758137)
(2.80773 0.0439397 -0.0111907)
(2.5154 0.107578 -0.0180772)
(1.36495 0.305265 -0.039257)
(0.0384035 0.82573 -0.0416506)
(-0.043394 1.10868 -0.0338842)
(2.97613 1.79878e-06 0.00241239)
(2.95967 2.24525e-05 0.00255704)
(2.94434 7.39238e-05 0.00201233)
(2.91356 0.000192327 0.00107066)
(2.8474 0.000462884 -0.000526323)
(2.69223 0.00108364 -0.00318351)
(2.24659 0.00263494 -0.00824898)
(0.586968 0.00783813 -0.0206443)
(-0.647486 0.0213774 -0.0219732)
(-0.42731 0.0604008 -0.0207661)
(2.97614 5.2239e-06 0.00241218)
(2.95969 7.74311e-05 0.00255633)
(2.9444 0.000217731 0.00200865)
(2.91369 0.000574937 0.00106788)
(2.84771 0.0014099 -0.000527883)
(2.69294 0.0033345 -0.003183)
(2.24851 0.00814247 -0.00824876)
(0.589311 0.0240764 -0.0207211)
(-0.649017 0.0676115 -0.0220092)
(-0.404055 0.149658 -0.0203665)
(2.97616 7.77047e-06 0.00241182)
(2.95974 0.000157647 0.00255508)
(2.94451 0.000360799 0.00199863)
(2.91396 0.000970755 0.00106121)
(2.84833 0.0024401 -0.000530063)
(2.69442 0.00584815 -0.003178)
(2.25277 0.0144317 -0.00823009)
(0.600981 0.0437108 -0.0206629)
(-0.637037 0.133477 -0.0219051)
(-0.37482 0.267456 -0.0196389)
(2.9762 9.77181e-06 0.00241169)
(2.95981 0.000274584 0.00255382)
(2.94467 0.000556671 0.00197952)
(2.91437 0.00146746 0.00104959)
(2.8493 0.00368668 -0.000531532)
(2.6968 0.00885307 -0.00316334)
(2.2601 0.0219934 -0.00817541)
(0.628673 0.0676322 -0.0204661)
(-0.607225 0.210291 -0.0216775)
(-0.346932 0.388851 -0.0189095)
(2.97626 1.43133e-05 0.00241221)
(2.95992 0.00045818 0.00255301)
(2.94491 0.00085795 0.00194952)
(2.91498 0.00213511 0.00103094)
(2.85073 0.00524707 -0.000534735)
(2.70033 0.012526 -0.003143)
(2.27117 0.0311951 -0.00808676)
(0.670685 0.0957394 -0.020245)
(-0.564065 0.290566 -0.0214277)
(-0.315914 0.504215 -0.0181202)
(2.97635 2.84248e-05 0.00241354)
(2.9601 0.000757715 0.00255313)
(2.94523 0.00124974 0.00190244)
(2.9158 0.00292823 0.00100146)
(2.85271 0.00709645 -0.000540428)
(2.70532 0.0169549 -0.00311335)
(2.28688 0.0423757 -0.00796039)
(0.727796 0.128587 -0.0199678)
(-0.509349 0.374362 -0.0212012)
(-0.282691 0.618777 -0.0174245)
(2.97652 6.52281e-05 0.00241533)
(2.96033 0.00123042 0.00255392)
(2.94562 0.00156112 0.00183088)
(2.91688 0.00352663 0.000956374)
(2.85536 0.00889531 -0.000551655)
(2.71212 0.0219461 -0.00307727)
(2.30798 0.0556536 -0.00779991)
(0.801341 0.166714 -0.0196176)
(-0.442834 0.465834 -0.0210263)
(-0.247277 0.736998 -0.0166023)
(2.97678 0.000135447 0.00241381)
(2.96059 0.00183133 0.00255071)
(2.94598 0.00188222 0.00175739)
(2.91819 0.0041308 0.000902826)
(2.85881 0.0109222 -0.000572592)
(2.72091 0.0278484 -0.00304441)
(2.3346 0.0715303 -0.00762446)
(0.892855 0.210965 -0.0192292)
(-0.363634 0.568019 -0.020877)
(-0.210298 0.863006 -0.0159098)
(2.97715 0.000209801 0.00240431)
(2.9609 0.00238686 0.00254063)
(2.94637 0.00227982 0.0016612)
(2.91983 0.00497199 0.000831666)
(2.86323 0.0134309 -0.000604958)
(2.73224 0.0347473 -0.00301964)
(2.36818 0.0898801 -0.00745332)
(1.00696 0.262164 -0.018871)
(-0.269984 0.68475 -0.0208486)
(-0.17248 0.998839 -0.0149251)
(2.97759 0.00026101 0.00239018)
(2.96126 0.00281107 0.00252569)
(2.94682 0.00271335 0.00154241)
(2.92185 0.00604443 0.000745193)
(2.86873 0.0164152 -0.000642349)
(2.74648 0.0424899 -0.0029907)
(2.41095 0.109532 -0.007281)
(1.15821 0.31373 -0.0186249)
(-0.156402 0.828924 -0.0212553)
(-0.133292 1.1491 -0.0144668)
(2.98597 3.27927e-06 0.00102773)
(2.96966 2.05662e-05 0.00165342)
(2.95061 4.11003e-05 0.00142238)
(2.91414 0.000141584 0.00105097)
(2.83989 0.000399938 0.000474096)
(2.67054 0.0010133 -0.000433534)
(2.19124 0.00251019 -0.00211924)
(0.457749 0.00726498 -0.00616218)
(-0.785771 0.0199488 -0.00664349)
(-0.527414 0.0735319 -0.00608897)
(2.98598 1.16621e-05 0.00102789)
(2.96968 7.33883e-05 0.00165312)
(2.95065 0.000111698 0.00141929)
(2.91426 0.000407381 0.00104903)
(2.84018 0.00120789 0.000473118)
(2.67122 0.00313885 -0.000433667)
(2.19303 0.00791903 -0.00212279)
(0.459566 0.0235343 -0.00617876)
(-0.783807 0.067548 -0.00664927)
(-0.490866 0.169361 -0.0060035)
(2.98599 2.50066e-05 0.00102843)
(2.9697 0.000157699 0.00165258)
(2.95073 0.000171533 0.00141232)
(2.91452 0.000658917 0.00104459)
(2.8408 0.00206797 0.000471569)
(2.67271 0.00552665 -0.000431392)
(2.19738 0.014308 -0.00212042)
(0.471302 0.0444507 -0.00616713)
(-0.76919 0.135385 -0.00661951)
(-0.455676 0.293588 -0.0057692)
(2.98603 4.59161e-05 0.00102972)
(2.96973 0.00028934 0.00165185)
(2.95083 0.000267713 0.00140115)
(2.91491 0.000973086 0.00103682)
(2.84181 0.00309024 0.000468611)
(2.67516 0.00833659 -0.00042775)
(2.20505 0.0219655 -0.0021076)
(0.499709 0.0696586 -0.00611314)
(-0.737325 0.21422 -0.00654695)
(-0.423678 0.419113 -0.00550879)
(2.98609 7.89406e-05 0.00103215)
(2.96978 0.000498491 0.00165104)
(2.95097 0.000420634 0.00138359)
(2.91549 0.00137342 0.00102438)
(2.84327 0.00432642 0.000463354)
(2.67882 0.0117197 -0.000423756)
(2.21668 0.0311662 -0.00208267)
(0.544077 0.098657 -0.00603449)
(-0.69106 0.295364 -0.0064795)
(-0.387614 0.537622 -0.00524007)
(2.9862 0.000129867 0.00103633)
(2.96985 0.000821812 0.00165009)
(2.95115 0.000591328 0.001356)
(2.91626 0.00177731 0.00100499)
(2.84528 0.00570617 0.000455449)
(2.68395 0.0157222 -0.000417563)
(2.23303 0.0421888 -0.00204685)
(0.603284 0.132103 -0.00593507)
(-0.63332 0.378683 -0.00643216)
(-0.349458 0.654431 -0.00499642)
(2.98636 0.000199685 0.0010426)
(2.96994 0.00126625 0.00164815)
(2.95133 0.000723113 0.00131553)
(2.91725 0.00208008 0.000976433)
(2.84798 0.0071126 0.000443431)
(2.69089 0.0202728 -0.000410076)
(2.2548 0.0551311 -0.00200171)
(0.678428 0.170346 -0.00581085)
(-0.563852 0.469225 -0.00641762)
(-0.307744 0.775334 -0.00470586)
(2.98662 0.00027829 0.00105061)
(2.97004 0.00176769 0.00164193)
(2.95147 0.00080513 0.00127452)
(2.91848 0.00233323 0.000947321)
(2.85145 0.00867076 0.000429311)
(2.69993 0.0255826 -0.000406252)
(2.28251 0.0703241 -0.00195659)
(0.7711 0.2139 -0.00569492)
(-0.482815 0.570003 -0.00640837)
(-0.266249 0.903102 -0.00447009)
(2.98695 0.000348606 0.00105885)
(2.97013 0.00221497 0.00163108)
(2.95158 0.000842074 0.00122268)
(2.92 0.00263701 0.000910626)
(2.85588 0.0105394 0.000410406)
(2.71146 0.0318076 -0.00040598)
(2.3171 0.0879238 -0.00191542)
(0.885308 0.263557 -0.00560606)
(-0.387071 0.68305 -0.00644117)
(-0.222352 1.04203 -0.00402974)
(2.98735 0.000398637 0.00106761)
(2.97021 0.00253824 0.00161649)
(2.95169 0.000948692 0.00115976)
(2.92187 0.00325656 0.000866776)
(2.86138 0.013107 0.000389094)
(2.72587 0.0394783 -0.000404617)
(2.36028 0.108505 -0.00187573)
(1.03026 0.318355 -0.00557918)
(-0.272825 0.829583 -0.00665249)
(-0.17378 1.20152 -0.00381141)
(2.98597 3.29124e-06 -0.00102799)
(2.96966 2.06825e-05 -0.00165491)
(2.95061 4.1146e-05 -0.0014236)
(2.91414 0.000141515 -0.00105135)
(2.8399 0.000399512 -0.000472533)
(2.67058 0.00101193 0.000439798)
(2.19141 0.00250605 0.00214005)
(0.457946 0.00725927 0.00623557)
(-0.785845 0.0199269 0.00664828)
(-0.527076 0.0734313 0.00606796)
(2.98598 1.17239e-05 -0.00102815)
(2.96967 7.38557e-05 -0.00165461)
(2.95065 0.000110822 -0.00142058)
(2.91426 0.000405883 -0.00104957)
(2.84019 0.00120653 -0.000471819)
(2.67126 0.00313822 0.000439458)
(2.1932 0.00791808 0.00214242)
(0.459756 0.0235092 0.00624923)
(-0.783881 0.0674771 0.00665519)
(-0.490578 0.169264 0.00598351)
(2.98599 2.51067e-05 -0.0010287)
(2.96969 0.000158383 -0.00165404)
(2.95072 0.000171106 -0.00141405)
(2.91452 0.000657917 -0.00104534)
(2.84081 0.00206681 -0.000470264)
(2.67275 0.00552407 0.000437473)
(2.19753 0.0142983 0.00214096)
(0.471441 0.044381 0.00623745)
(-0.769289 0.135279 0.00662659)
(-0.455442 0.293514 0.00574906)
(2.98603 4.6012e-05 -0.00102999)
(2.96972 0.000290035 -0.00165327)
(2.95083 0.000269129 -0.00140287)
(2.91491 0.000974173 -0.00103759)
(2.84181 0.00308872 -0.000467406)
(2.67519 0.00832592 0.000433372)
(2.20518 0.0219266 0.00212639)
(0.499821 0.06952 0.00617593)
(-0.737434 0.214063 0.00655588)
(-0.423464 0.419066 0.005489)
(2.98609 7.90366e-05 -0.0010324)
(2.96977 0.000499236 -0.00165239)
(2.95097 0.000422536 -0.0013852)
(2.91549 0.00137447 -0.00102527)
(2.84327 0.00432271 -0.000462745)
(2.67884 0.0117017 0.000427723)
(2.21678 0.0311051 0.00209655)
(0.544169 0.0984683 0.00608044)
(-0.691155 0.295183 0.00648626)
(-0.387399 0.537615 0.00521881)
(2.98619 0.000129968 -0.00103657)
(2.96985 0.000822574 -0.00165134)
(2.95115 0.000593268 -0.00135745)
(2.91626 0.00177804 -0.00100601)
(2.84528 0.00570126 -0.000455614)
(2.68397 0.0157012 0.000419205)
(2.23309 0.042121 0.00205391)
(0.603377 0.131902 0.00595992)
(-0.633381 0.378501 0.00643708)
(-0.349248 0.654463 0.00497581)
(2.98636 0.000199779 -0.00104282)
(2.96994 0.00126696 -0.00164926)
(2.95133 0.000724973 -0.0013168)
(2.91725 0.00208079 -0.0009776)
(2.84797 0.00710814 -0.000444397)
(2.69089 0.020254 0.00040948)
(2.25483 0.0550705 0.0020025)
(0.678515 0.170167 0.00581706)
(-0.563873 0.469061 0.00642129)
(-0.30751 0.775423 0.00468602)
(2.98662 0.000278362 -0.00105081)
(2.97003 0.00176829 -0.00164288)
(2.95147 0.000806689 -0.00127559)
(2.91848 0.00233439 -0.000948559)
(2.85145 0.00866902 -0.000430918)
(2.69992 0.0255723 0.000403785)
(2.28252 0.0702878 0.00195208)
(0.771179 0.213777 0.00568644)
(-0.482804 0.569864 0.00641157)
(-0.266016 0.903222 0.0044523)
(2.98695 0.000348665 -0.00105904)
(2.97013 0.00221548 -0.00163191)
(2.95158 0.000843208 -0.00122361)
(2.91999 0.00263862 -0.000911815)
(2.85587 0.010541 -0.000412133)
(2.71146 0.0318078 0.000403096)
(2.31709 0.0879168 0.00190985)
(0.885367 0.263504 0.00559422)
(-0.387041 0.682957 0.00644384)
(-0.222111 1.04218 0.00401389)
(2.98735 0.0003987 -0.00106779)
(2.97021 0.00253873 -0.00161723)
(2.95169 0.000949607 -0.00116059)
(2.92186 0.00325821 -0.000867833)
(2.86138 0.0131098 -0.000390603)
(2.72586 0.0394826 0.000402187)
(2.36027 0.10851 0.00187134)
(1.03031 0.318344 0.00557045)
(-0.272795 0.829519 0.00665918)
(-0.173582 1.20163 0.00379227)
(2.97613 1.93597e-06 -0.00241294)
(2.95966 2.29764e-05 -0.0025582)
(2.94434 7.45707e-05 -0.00201361)
(2.91356 0.000192397 -0.00107243)
(2.84742 0.000460847 0.000523834)
(2.69234 0.00107598 0.00318032)
(2.24714 0.00260913 0.00824943)
(0.588141 0.00773175 0.0207244)
(-0.647201 0.0211541 0.0219875)
(-0.426433 0.0600206 0.0207315)
(2.97614 5.30808e-06 -0.00241272)
(2.95969 7.83132e-05 -0.0025575)
(2.94439 0.000216178 -0.00200999)
(2.91369 0.000571879 -0.00106982)
(2.84772 0.00140482 0.000524987)
(2.69304 0.00332415 0.00317899)
(2.24904 0.00811684 0.00824692)
(0.590475 0.0239856 0.0207772)
(-0.64868 0.0673816 0.0220153)
(-0.403047 0.149191 0.0203334)
(2.97616 7.70782e-06 -0.00241243)
(2.95973 0.000158443 -0.00255634)
(2.9445 0.000359766 -0.00199999)
(2.91396 0.000970142 -0.00106341)
(2.84835 0.00244151 0.000526529)
(2.69452 0.0058514 0.00317256)
(2.25329 0.0144246 0.00822621)
(0.602059 0.0435597 0.0207388)
(-0.636712 0.133214 0.0219193)
(-0.373823 0.266948 0.019606)
(2.97619 9.9938e-06 -0.00241236)
(2.9598 0.000276379 -0.0025551)
(2.94466 0.000560754 -0.0019808)
(2.91437 0.0014733 -0.00105149)
(2.84932 0.00369191 0.000528721)
(2.69688 0.00884885 0.00315961)
(2.26053 0.0219323 0.00817387)
(0.629548 0.0672221 0.0205301)
(-0.607041 0.20987 0.0216936)
(-0.345976 0.388352 0.0188766)
(2.97625 1.47669e-05 -0.00241283)
(2.95992 0.000460876 -0.00255421)
(2.9449 0.00086399 -0.00195073)
(2.91497 0.00214207 -0.00103268)
(2.85074 0.00524868 0.000532201)
(2.70039 0.0125041 0.00313958)
(2.27148 0.0310781 0.00808443)
(0.671348 0.0951717 0.0202891)
(-0.563954 0.290071 0.0214399)
(-0.31503 0.503764 0.0180845)
(2.97635 2.88171e-05 -0.00241413)
(2.96009 0.000760456 -0.00255422)
(2.94522 0.0012556 -0.00190349)
(2.9158 0.00293404 -0.00100278)
(2.85271 0.0070949 0.000538799)
(2.70535 0.016926 0.00311161)
(2.28706 0.0422436 0.0079588)
(0.728284 0.128003 0.019982)
(-0.509226 0.373879 0.0212123)
(-0.281879 0.618423 0.0173877)
(2.97651 6.55181e-05 -0.00241584)
(2.96033 0.00123304 -0.00255484)
(2.94561 0.00156641 -0.00183179)
(2.91687 0.00353107 -0.00095748)
(2.85535 0.00889101 0.00055026)
(2.71212 0.021913 0.0030755)
(2.30804 0.0555198 0.0077965)
(0.801702 0.166185 0.0196126)
(-0.442677 0.465391 0.0210346)
(-0.246559 0.736726 0.0165694)
(2.97677 0.000135596 -0.00241424)
(2.96059 0.00183358 -0.00255144)
(2.94597 0.00188682 -0.00175813)
(2.91819 0.00413535 -0.000903777)
(2.85879 0.0109215 0.000571244)
(2.72089 0.0278296 0.00304219)
(2.33456 0.0714509 0.00761853)
(0.893134 0.210635 0.019202)
(-0.363418 0.567641 0.0208831)
(-0.209686 0.862789 0.0158794)
(2.97714 0.000209881 -0.00240468)
(2.9609 0.00238868 -0.00254123)
(2.94636 0.00228331 -0.00166183)
(2.91983 0.00497659 -0.000832506)
(2.86322 0.0134357 0.000603685)
(2.73221 0.0347508 0.00301739)
(2.36812 0.0898767 0.00744785)
(1.00716 0.26208 0.0188498)
(-0.269764 0.684489 0.0208544)
(-0.171964 0.998649 0.0149013)
(2.97759 0.00026116 -0.00239051)
(2.96125 0.00281265 -0.00252622)
(2.94681 0.00271615 -0.00154297)
(2.92184 0.00604897 -0.000745968)
(2.86871 0.0164227 0.000641147)
(2.74646 0.0425028 0.00298859)
(2.41091 0.109554 0.00727667)
(1.15835 0.313747 0.0186132)
(-0.156202 0.828745 0.0212613)
(-0.132892 1.14897 0.0144483)
(2.97273 6.9507e-06 -0.000728209)
(2.96461 3.22913e-05 0.00225821)
(2.95787 9.00187e-05 0.00343198)
(2.93796 0.000213385 0.00514075)
(2.88799 0.000478944 0.00768797)
(2.75976 0.00107493 0.011822)
(2.3662 0.00260304 0.0203813)
(0.794731 0.00870305 0.0442886)
(-0.433983 0.0250251 0.0458154)
(-0.315494 0.0433184 0.0452402)
(2.97274 2.17032e-05 -0.000726889)
(2.96464 0.000105395 0.00225888)
(2.95793 0.000284317 0.00343254)
(2.93808 0.00066257 0.0051406)
(2.88825 0.00147867 0.00768549)
(2.76038 0.00331968 0.0118129)
(2.36838 0.00797027 0.0203481)
(0.802145 0.024736 0.0443634)
(-0.433497 0.0689439 0.0458901)
(-0.263843 0.114614 0.0437047)
(2.97276 3.7922e-05 -0.000723765)
(2.9647 0.000199736 0.00225983)
(2.95805 0.000518331 0.00343612)
(2.93833 0.00117933 0.00514169)
(2.8888 0.00260522 0.00768116)
(2.76166 0.00583654 0.0117972)
(2.37229 0.0139355 0.0202866)
(0.814071 0.0415818 0.0442844)
(-0.424628 0.129664 0.0456729)
(-0.245826 0.223168 0.0425858)
(2.9728 5.57838e-05 -0.000718381)
(2.96479 0.000325251 0.00226024)
(2.95825 0.000819109 0.00344456)
(2.93874 0.0018166 0.00514484)
(2.88969 0.00395087 0.0076745)
(2.76374 0.00878406 0.0117718)
(2.37828 0.0209527 0.0201907)
(0.835733 0.0629845 0.0439844)
(-0.401605 0.201545 0.0450538)
(-0.227477 0.340658 0.0413553)
(2.97286 8.04554e-05 -0.000710374)
(2.96494 0.000510186 0.00225898)
(2.95854 0.00123841 0.00345706)
(2.93933 0.00265436 0.00514954)
(2.89098 0.0056456 0.00766331)
(2.76682 0.0124216 0.0117267)
(2.38784 0.0296411 0.020016)
(0.874123 0.0894539 0.0435635)
(-0.363671 0.278667 0.0443748)
(-0.206289 0.452686 0.0400878)
(2.97296 0.000126728 -0.000698632)
(2.96516 0.000807352 0.00225424)
(2.95895 0.00181544 0.00347624)
(2.94016 0.00372198 0.00515887)
(2.89277 0.00774418 0.00765108)
(2.7712 0.0169285 0.0116652)
(2.40155 0.0404301 0.0197789)
(0.927766 0.120946 0.0429789)
(-0.312929 0.361602 0.04366)
(-0.181495 0.56514 0.0388664)
(2.97311 0.000246439 -0.000681365)
(2.96549 0.00133623 0.00224348)
(2.9595 0.00234785 0.003509)
(2.94126 0.00469751 0.00517659)
(2.89522 0.00997436 0.00763614)
(2.77722 0.0222154 0.01158)
(2.42029 0.0535939 0.0194497)
(0.999392 0.158291 0.0422074)
(-0.249063 0.453662 0.0430024)
(-0.151484 0.682317 0.0374811)
(2.97336 0.000478226 -0.0006485)
(2.96584 0.00211685 0.00222806)
(2.96 0.00303371 0.00357367)
(2.94254 0.00586789 0.00521211)
(2.89822 0.0126772 0.00762422)
(2.78493 0.0287766 0.0114625)
(2.44429 0.0700361 0.019052)
(1.08941 0.203847 0.0412748)
(-0.171696 0.558505 0.0422991)
(-0.1177 0.808244 0.0361897)
(2.97376 0.000713729 -0.000591538)
(2.96628 0.00286745 0.00221645)
(2.96059 0.00389669 0.00366751)
(2.94416 0.00735599 0.00525831)
(2.90217 0.0158764 0.00760439)
(2.79485 0.0363431 0.0113411)
(2.47481 0.0893336 0.0185979)
(1.20518 0.258182 0.0402573)
(-0.0785204 0.681789 0.0417902)
(-0.0808647 0.948585 0.0347583)
(2.97424 0.000893598 -0.00051984)
(2.96681 0.00347303 0.00220521)
(2.96127 0.00474301 0.00378918)
(2.94613 0.00894122 0.00531797)
(2.90709 0.0192435 0.00758064)
(2.80769 0.0439576 0.0111896)
(2.51531 0.107618 0.0180746)
(1.36505 0.305417 0.0392458)
(0.0390731 0.825426 0.041644)
(-0.0421572 1.108 0.0338685)
(3.00387 1.57201e-05 0.0133112)
(3.01115 4.08014e-05 0.019919)
(3.01103 9.75509e-05 0.0219497)
(3.00245 0.000220553 0.0240713)
(2.96815 0.000475554 0.0277053)
(2.86457 0.00099726 0.0341789)
(2.50808 0.00240031 0.0487178)
(0.751252 0.0103661 0.10336)
(-0.444061 0.0248668 0.0997655)
(0.48285 -0.0945086 0.0905195)
(3.00388 5.21093e-05 0.0133122)
(3.01118 0.000131902 0.0199181)
(3.01107 0.000311538 0.0219494)
(3.00255 0.000700126 0.0240665)
(2.96835 0.00150996 0.0276926)
(2.86513 0.00322483 0.0341485)
(2.51073 0.00760328 0.0485752)
(0.761894 0.0281171 0.102644)
(-0.491558 0.0721197 0.100889)
(0.00204487 0.0384512 0.0940854)
(3.0039 9.79493e-05 0.0133148)
(3.01125 0.000242925 0.0199157)
(3.01116 0.000567468 0.0219502)
(3.00275 0.0012655 0.0240595)
(2.96882 0.00272047 0.0276706)
(2.86626 0.00587048 0.0341007)
(2.51433 0.0136965 0.0484328)
(0.778818 0.0447328 0.102464)
(-0.488142 0.125559 0.100795)
(-0.0114727 0.165333 0.0930341)
(3.00393 0.000152321 0.0133197)
(3.01136 0.000376193 0.0199109)
(3.01129 0.000874523 0.0219525)
(3.00307 0.00193391 0.0240502)
(2.96958 0.00411312 0.0276395)
(2.86816 0.00877926 0.0340281)
(2.51971 0.0202491 0.0482668)
(0.808987 0.0662151 0.102319)
(-0.461653 0.189894 0.100081)
(-0.00655504 0.285326 0.0912781)
(3.00398 0.000224449 0.013327)
(3.01152 0.000553474 0.0199023)
(3.01148 0.00127896 0.0219551)
(3.00352 0.00279654 0.024037)
(2.97064 0.00586922 0.0275946)
(2.87076 0.0123612 0.0339224)
(2.52769 0.0283521 0.0479533)
(0.824564 0.0940467 0.101962)
(-0.437833 0.266184 0.0988356)
(0.00260556 0.400839 0.0893357)
(3.00405 0.000333583 0.0133378)
(3.01175 0.000815393 0.0198871)
(3.01175 0.00184288 0.021959)
(3.00416 0.00393747 0.0240209)
(2.97209 0.00811535 0.0275392)
(2.87469 0.0169037 0.033772)
(2.53977 0.0386647 0.0474951)
(0.874184 0.127046 0.101232)
(-0.395014 0.351374 0.0973974)
(0.015463 0.517421 0.0870418)
(3.00416 0.000573781 0.0133522)
(3.01208 0.00131742 0.0198616)
(3.01214 0.00269215 0.0219671)
(3.00502 0.00539549 0.0240033)
(2.9741 0.0108466 0.0274618)
(2.87962 0.0223905 0.0335727)
(2.55535 0.0515522 0.0468723)
(0.929255 0.168213 0.100235)
(-0.342818 0.449305 0.0958089)
(0.027669 0.642708 0.0846966)
(3.00439 0.00100951 0.0133709)
(3.01253 0.00217751 0.0198217)
(3.01267 0.00394128 0.0220142)
(3.00613 0.00723246 0.023993)
(2.97645 0.0140549 0.0273745)
(2.88784 0.0289269 0.033243)
(2.5803 0.0674105 0.0458233)
(1.05391 0.215563 0.0980889)
(-0.256057 0.561022 0.0940489)
(0.039295 0.779981 0.0818747)
(3.00484 0.00144317 0.0133912)
(3.01313 0.00304134 0.0197719)
(3.01339 0.00524756 0.022074)
(3.00756 0.00923247 0.0239687)
(2.98002 0.0176195 0.0271961)
(2.89636 0.0365745 0.0328269)
(2.60784 0.0869669 0.0447327)
(1.17674 0.278163 0.0950106)
(-0.154791 0.69805 0.0920755)
(0.04855 0.936472 0.0791455)
(3.0054 0.00180032 0.0134173)
(3.01389 0.00377089 0.0197135)
(3.01429 0.00648174 0.0221564)
(3.00931 0.0113298 0.0239452)
(2.98433 0.0214698 0.02699)
(2.90832 0.0443705 0.0322832)
(2.64773 0.104453 0.043163)
(1.38798 0.324237 0.090526)
(-0.0144094 0.850444 0.089801)
(0.0582466 1.11509 0.0764345)
(3.09248 1.2965e-05 0.0762269)
(3.11481 2.22525e-05 0.0830781)
(3.11844 7.64036e-05 0.0851013)
(3.11403 0.000146023 0.0865031)
(3.0936 0.000269062 0.0911128)
(3 0.000568626 0.104199)
(2.56091 0.0018777 0.159584)
(1.50181 -0.000805034 0.286602)
(0.19894 0.0243133 0.320078)
(0.211167 0.045423 0.312967)
(3.09249 4.44451e-05 0.0762303)
(3.11483 7.19152e-05 0.0830689)
(3.11847 0.000255125 0.0851018)
(3.11408 0.00049489 0.0864913)
(3.09371 0.000941311 0.0910891)
(3.00033 0.00212809 0.104111)
(2.56148 0.00710046 0.159667)
(1.48062 0.0139169 0.289977)
(0.238668 0.057306 0.319258)
(0.246118 0.090551 0.30503)
(3.0925 8.60146e-05 0.0762398)
(3.11486 0.000131269 0.0830458)
(3.11856 0.000479381 0.0851061)
(3.11421 0.0009402 0.0864673)