/*--------------------------------*- C++ -*----------------------------------*\
  =========                 |
  \\      /  F ield         | OpenFOAM: The Open Source CFD Toolbox
   \\    /   O peration     | Website:  https://openfoam.org
    \\  /    A nd           | Version:  6.0
     \\/     M anipulation  |
\*---------------------------------------------------------------------------*/
FoamFile
{
    version     2.0;
    format      ascii;
    class       volScalarField;
    location    "2";
    object      p;
}
// * * * * * * * * * * * * * * * * * * * * * * * * * * * * * * * * * * * * * //

dimensions      [1 -1 -2 0 0 0 0];

internalField   nonuniform List<scalar> 
300
(
0.983884
1.00647
1.03504
0.919513
2.53572
3.56505
9.32283
10.7812
10.7348
10.9248
0.983884
1.00636
1.03473
0.919769
2.52991
3.55554
9.29706
10.7518
10.7003
10.9203
0.983867
1.0061
1.03398
0.919733
2.51853
3.5312
9.23522
10.6835
10.6214
10.8808
0.983858
1.00569
1.03279
0.919656
2.50068
3.48875
9.1312
10.5813
10.509
10.7973
0.983878
1.00513
1.03111
0.919554
2.47568
3.42553
8.98171
10.45
10.3694
10.6731
0.983938
1.00441
1.02893
0.919498
2.44256
3.34039
8.78437
10.2907
10.2015
10.5061
0.983982
1.00341
1.026
0.91899
2.40142
3.23211
8.53845
10.1024
10.0007
10.2853
0.983917
1.00187
1.02196
0.918275
2.34916
3.09858
8.24439
9.88201
9.76111
9.99347
0.983618
0.999777
1.01872
0.926132
2.29225
2.93319
7.90646
9.62609
9.47561
9.59818
0.980749
0.994272
1.00177
0.877194
2.30279
2.67195
7.53772
9.34173
9.14257
9.03922
0.985527
0.988193
0.992671
0.921135
2.08039
2.06153
6.41965
8.57033
8.22928
6.90838
1.00694
1.00684
1.06032
1.02332
1.59153
1.61892
4.31052
7.54672
7.37893
6.49531
1.00643
1.007
1.04411
1.05604
1.31686
1.25494
3.17362
5.64647
6.44189
6.07597
1.00004
1.01704
1.01326
1.06297
1.09923
1.05473
2.07434
3.22278
5.39845
5.32548
1.00038
1.00582
1.00292
1.01824
1.03199
1.00411
1.63623
1.62058
3.52281
4.40409
1.00097
1.00099
1.00533
1.00785
1.03009
1.02927
1.21092
1.19586
2.04415
3.00916
1.00041
1.00021
1.0013
1.00184
1.00024
1.02514
1.06045
1.04309
1.40476
1.54252
1.00013
1.00011
1.00081
1.00084
1.00451
1.00762
1.02584
1.02448
1.18627
1.24268
0.999994
1.00022
1.00026
1.00129
1.00172
1.00695
1.00905
1.00935
1.07248
1.07248
1.00004
1.00006
1.00046
1.00111
1.00155
1.00728
1.00826
1.03285
1.06467
1.07452
2.45709
1.4511
1.38242
1.44338
1.61535
1.93804
2.33731
2.84886
3.30512
3.43606
3.01573
1.93012
1.66812
1.67551
1.7263
1.89267
2.24668
2.76206
3.20776
3.35844
3.75205
2.39488
1.84031
1.75325
1.78476
1.90583
2.18849
2.52435
2.93622
3.16931
4.07361
2.74581
2.09779
1.96012
1.98897
2.07136
2.22208
2.34388
2.52579
2.79425
4.05372
3.09688
2.4611
2.25415
2.26826
2.30454
2.2983
2.25995
2.22073
2.27629
3.86257
3.57763
2.95223
2.67514
2.66236
2.61719
2.48812
2.22235
2.00963
1.94129
3.49059
3.67537
3.55254
3.3035
3.21546
3.02214
2.63246
2.21138
1.92174
1.72888
2.73531
3.95902
4.15814
4.09156
3.88657
3.42859
2.77893
2.22987
1.88955
1.62464
1.96366
4.55632
4.98991
4.87314
4.51323
3.71302
2.90735
2.27256
1.88253
1.58289
1.96871
4.99133
5.62029
5.43418
4.89963
3.83096
2.99035
2.32065
1.9036
1.57891
)
;

boundaryField
{
    inlet
    {
        type            fixedValue;
        value           uniform 1;
    }
    outlet
    {
        type            waveTransmissive;
        gamma           1.4;
        fieldInf        1;
        lInf            3;
        value           nonuniform List<scalar> 10(3.3125 3.23744 3.05304 2.68843 2.1906 1.875 1.68384 1.59092 1.55437 1.55201);
    }
    top
    {
        type            symmetryPlane;
    }
    bottom
    {
        type            symmetryPlane;
    }
    step
    {
        type            zeroGradient;
    }
    defaultFaces
    {
        type            empty;
    }
}


// ************************************************************************* //
