/*--------------------------------*- C++ -*----------------------------------*\
  =========                 |
  \\      /  F ield         | OpenFOAM: The Open Source CFD Toolbox
   \\    /   O peration     | Website:  https://openfoam.org
    \\  /    A nd           | Version:  6.0
     \\/     M anipulation  |
\*---------------------------------------------------------------------------*/
FoamFile
{
    version     2.0;
    format      ascii;
    class       volScalarField;
    location    "2";
    object      p;
}
// * * * * * * * * * * * * * * * * * * * * * * * * * * * * * * * * * * * * * //

dimensions      [1 -1 -2 0 0 0 0];

internalField   nonuniform List<scalar> 
3000
(
0.669714
0.550679
0.526199
0.529542
0.548906
0.62213
0.901869
1.70324
5.05887
5.03862
0.669711
0.55065
0.526088
0.529416
0.548757
0.622264
0.899641
1.69249
5.02968
5.01545
0.669621
0.550621
0.525804
0.529053
0.548077
0.620391
0.895156
1.66729
5.00184
4.98751
0.669466
0.55057
0.525396
0.528555
0.547254
0.618586
0.88979
1.65493
4.97918
4.95219
0.669242
0.55049
0.524781
0.527804
0.546013
0.615887
0.88269
1.63565
4.91781
4.88484
0.668906
0.550382
0.523888
0.52672
0.544256
0.612169
0.872629
1.60637
4.81226
4.77958
0.668413
0.55021
0.522583
0.525154
0.541713
0.606333
0.858418
1.56253
4.65728
4.6309
0.667746
0.549793
0.520892
0.523246
0.538939
0.600785
0.840235
1.50908
4.43693
4.42078
0.666811
0.54913
0.518695
0.520795
0.535401
0.593422
0.816973
1.4484
4.14014
4.13135
0.66561
0.548283
0.515911
0.517687
0.530873
0.58383
0.784613
1.35847
3.70573
3.69462
1.07197
1.07314
1.08143
1.11666
1.21838
1.47884
2.1491
4.25309
12.5604
11.9765
1.07196
1.07308
1.08125
1.11626
1.21751
1.4765
2.14393
4.23789
12.5088
12.0853
1.07185
1.0729
1.08088
1.11549
1.21589
1.47321
2.1351
4.21298
12.4237
11.9899
1.07168
1.07261
1.08029
1.11429
1.21345
1.46789
2.12257
4.16793
12.2636
11.7711
1.07142
1.07217
1.07939
1.11252
1.20987
1.4603
2.10427
4.10425
12.0194
11.4725
1.07103
1.07151
1.07808
1.10999
1.20489
1.44974
2.07893
4.01914
11.6758
11.0917
1.07037
1.07052
1.07627
1.10661
1.19824
1.43585
2.04418
3.90583
11.2183
10.6211
1.069
1.06881
1.07391
1.10249
1.18984
1.4169
1.99748
3.75635
10.6179
10.0262
1.06687
1.06633
1.07084
1.09735
1.17927
1.39278
1.9366
3.5593
9.84015
9.28834
1.0642
1.06325
1.06704
1.09101
1.16611
1.36198
1.85609
3.29786
8.79348
8.31965
1.09164
1.17969
1.2203
1.30225
1.47557
1.8661
2.83979
5.85254
17.6195
16.8348
1.09163
1.17962
1.22011
1.3018
1.47457
1.86382
2.83428
5.83484
17.5693
16.7832
1.09161
1.17944
1.21972
1.30095
1.47266
1.85949
2.82335
5.79878
17.4427
16.5825
1.09157
1.17912
1.21907
1.29956
1.46961
1.85249
2.80545
5.73512
17.1793
16.1845
1.09151
1.17858
1.21807
1.29752
1.46516
1.84229
2.77918
5.64225
16.7843
15.6774
1.09141
1.1777
1.21661
1.29468
1.45908
1.82829
2.74296
5.51644
16.2557
15.0712
1.09122
1.17627
1.21496
1.2911
1.45105
1.80954
2.69423
5.3512
15.578
14.345
1.09074
1.17401
1.21369
1.28691
1.44063
1.78458
2.62953
5.13738
14.716
13.482
1.08995
1.17091
1.2123
1.28178
1.42746
1.75258
2.54601
4.86562
13.6353
12.4514
1.08893
1.16716
1.21073
1.27556
1.41125
1.71271
2.44021
4.52034
12.2409
11.1829
1.04946
1.14871
1.19936
1.30071
1.51316
1.98491
3.15123
6.77864
20.8425
19.7138
1.04945
1.14864
1.1992
1.30032
1.51224
1.98272
3.14562
6.75959
20.7937
19.588
1.04945
1.14848
1.19897
1.29955
1.51028
1.97799
3.13326
6.71656
20.6386
19.2639
1.04944
1.14816
1.19864
1.29832
1.50712
1.97025
3.11265
6.64176
20.307
18.7245
1.04944
1.14761
1.19813
1.29653
1.50253
1.95898
3.08236
6.53096
19.8106
18.064
1.04942
1.14669
1.19746
1.29412
1.49629
1.94353
3.0405
6.37974
19.165
17.3015
1.04936
1.14519
1.19689
1.2912
1.48819
1.92298
2.98461
6.18254
18.3537
16.4066
1.04923
1.14292
1.19684
1.28797
1.47798
1.89619
2.91158
5.93138
17.3412
15.3767
1.04899
1.1399
1.1971
1.28412
1.46514
1.86203
2.81849
5.61888
16.0935
14.1681
1.04869
1.13629
1.19757
1.2795
1.44935
1.81981
2.70284
5.23239
14.5434
12.7475
1.01916
1.09728
1.15383
1.26532
1.49582
2.00382
3.26027
7.19891
22.4263
21.0328
1.01915
1.09722
1.15378
1.265
1.49493
2.00158
3.25451
7.17938
22.3777
20.8815
1.01912
1.09707
1.15378
1.2644
1.49304
1.99666
3.24154
7.13345
22.2076
20.4887
1.01907
1.09678
1.15383
1.26346
1.48999
1.98867
3.21991
7.05313
21.84
19.8663
1.01897
1.09627
1.15393
1.26214
1.48562
1.97713
3.18794
6.9336
21.2967
19.1192
1.01881
1.09542
1.15422
1.26046
1.47972
1.96129
3.14369
6.77002
20.5973
18.2748
1.01856
1.09406
1.15491
1.2585
1.4721
1.94038
3.08503
6.55815
19.7293
17.2899
1.01819
1.09209
1.1562
1.25631
1.46247
1.91335
3.00911
6.29028
18.6505
16.1784
1.01772
1.08954
1.15815
1.25378
1.45038
1.87897
2.9129
5.95964
17.3253
14.8594
1.01716
1.08655
1.16067
1.25072
1.43546
1.83649
2.79408
5.55714
15.7353
13.3299
1.01916
1.09728
1.15384
1.26533
1.49584
2.00385
3.26031
7.19881
22.4262
21.0329
1.01915
1.09722
1.15378
1.26501
1.49494
2.00158
3.25449
7.17917
22.3777
20.8817
1.01912
1.09707
1.15379
1.26441
1.49304
1.99665
3.24147
7.13304
22.2077
20.4888
1.01907
1.09678
1.15384
1.26347
1.48999
1.98864
3.2198
7.05267
21.8404
19.8667
1.01897
1.09627
1.15394
1.26215
1.48562
1.97711
3.18784
6.93322
21.2974
19.1198
1.01881
1.09542
1.15423
1.26047
1.47972
1.96129
3.14365
6.76984
20.598
18.2753
1.01856
1.09406
1.15491
1.25851
1.4721
1.94039
3.08504
6.55816
19.73
17.2903
1.01819
1.0921
1.1562
1.25632
1.46248
1.91337
3.00916
6.29043
18.6513
16.1787
1.01772
1.08955
1.15815
1.25378
1.45039
1.879
2.91297
5.95984
17.326
14.8596
1.01716
1.08655
1.16067
1.25072
1.43548
1.83651
2.79414
5.55734
15.7359
13.3299
1.04946
1.14873
1.19939
1.30075
1.51322
1.98503
3.15143
6.77856
20.8424
19.7149
1.04945
1.14866
1.19922
1.30036
1.51229
1.9828
3.14566
6.75888
20.7938
19.5889
1.04945
1.14849
1.199
1.29958
1.51032
1.97802
3.13318
6.71544
20.639
19.264
1.04944
1.14817
1.19866
1.29835
1.50715
1.97026
3.11249
6.64036
20.3083
18.7257
1.04943
1.14762
1.19815
1.29656
1.50255
1.95898
3.0822
6.52986
19.8126
18.0658
1.04942
1.1467
1.19748
1.29414
1.49631
1.94355
3.04047
6.37937
19.1674
17.3032
1.04936
1.14521
1.1969
1.29121
1.48821
1.92303
2.9847
6.18274
18.3561
16.4078
1.04923
1.14293
1.19685
1.28799
1.47801
1.89628
2.9118
5.93206
17.3436
15.3778
1.04899
1.13991
1.1971
1.28414
1.46517
1.86212
2.81872
5.61963
16.0957
14.1687
1.04869
1.1363
1.19758
1.27952
1.44938
1.81988
2.70304
5.23302
14.5453
12.7475
1.09166
1.17973
1.22035
1.30232
1.47568
1.8663
2.84019
5.85313
17.6213
16.8387
1.09165
1.17965
1.22016
1.30188
1.47471
1.86412
2.83476
5.83313
17.5701
16.7841
1.09161
1.17946
1.21976
1.30101
1.47279
1.85972
2.82368
5.79772
17.4439
16.5817
1.09156
1.17913
1.21911
1.29964
1.46977
1.85281
2.80588
5.73299
17.1827
16.1875
1.09151
1.1786
1.21811
1.29758
1.46527
1.84248
2.77944
5.64093
16.7877
15.6806
1.09142
1.17772
1.21664
1.29473
1.45916
1.82844
2.74324
5.51651
16.2597
15.0738
1.09123
1.1763
1.21498
1.29114
1.45111
1.80966
2.69455
5.35207
15.5822
14.347
1.09075
1.17403
1.2137
1.28695
1.44071
1.78475
2.63001
5.13919
14.7202
13.4841
1.08996
1.17093
1.21231
1.28181
1.42753
1.75274
2.54643
4.86712
13.6391
12.4532
1.08894
1.16718
1.21074
1.27559
1.41131
1.71283
2.44054
4.52139
12.2441
11.1839
1.07203
1.0732
1.08151
1.11677
1.21856
1.47898
2.1495
4.25452
12.5682
11.9844
1.072
1.07312
1.08132
1.11639
1.21777
1.47717
2.14543
4.23543
12.5123
12.0824
1.07188
1.07294
1.08094
1.11561
1.21614
1.47377
2.13625
4.21416
12.4295
11.9917
1.07168
1.07263
1.08035
1.11444
1.21375
1.46875
2.1245
4.16755
12.2694
11.7795
1.07144
1.0722
1.07946
1.11265
1.21014
1.46079
2.10575
4.1053
12.0229
11.4777
1.07106
1.07155
1.07814
1.1101
1.2051
1.45007
2.07989
4.02107
11.681
11.095
1.07041
1.07055
1.07632
1.1067
1.1984
1.43597
2.04494
3.90802
11.2244
10.6235
1.06903
1.06883
1.07395
1.10255
1.18996
1.41713
1.99807
3.75913
10.6243
10.0288
1.06689
1.06635
1.07086
1.09739
1.17936
1.39295
1.93701
3.56109
9.84543
9.29144
1.06421
1.06326
1.06706
1.09104
1.16617
1.36212
1.85641
3.29894
8.79754
8.32253
0.669773
0.550689
0.526275
0.529637
0.549092
0.622791
0.902166
1.70405
5.06782
5.04935
0.669747
0.550663
0.52616
0.529504
0.548907
0.622588
0.90068
1.70195
5.05255
5.02903
0.669648
0.550629
0.525878
0.529149
0.548259
0.620879
0.896757
1.67548
5.01991
5.00933
0.669469
0.550584
0.525473
0.52865
0.547408
0.618792
0.891534
1.67046
4.98331
4.96793
0.669266
0.550493
0.524872
0.527924
0.546263
0.616653
0.88445
1.64868
4.91808
4.89298
0.668935
0.550385
0.523968
0.526825
0.544469
0.612806
0.873816
1.61325
4.81485
4.78578
0.668447
0.550211
0.522659
0.525257
0.541943
0.607142
0.859325
1.56702
4.66176
4.63609
0.667765
0.5498
0.520936
0.523299
0.539033
0.601028
0.840642
1.50854
4.44145
4.42485
0.666822
0.549138
0.518722
0.520826
0.53545
0.593527
0.817134
1.44825
4.14351
4.13487
0.665617
0.548289
0.51593
0.517708
0.530907
0.583899
0.784776
1.3588
3.70823
3.69747
0.661704
0.54566
0.506946
0.507533
0.515675
0.551409
0.682861
1.08541
2.31226
2.18811
0.657812
0.541401
0.495116
0.489772
0.493407
0.511897
0.577728
0.81603
1.45075
1.43091
0.654751
0.53101
0.481925
0.466127
0.466621
0.472144
0.495504
0.57542
0.774084
1.1936
0.651333
0.530181
0.47987
0.441685
0.429158
0.429591
0.434158
0.453449
0.511822
0.647677
0.652161
0.529322
0.479135
0.441245
0.415873
0.412694
0.413736
0.419738
0.440818
0.501055
0.652799
0.5288
0.478945
0.441016
0.411429
0.406366
0.406648
0.409608
0.421499
0.457843
0.6517
0.529124
0.478466
0.440156
0.411932
0.393379
0.391544
0.392039
0.395206
0.406401
0.651088
0.529221
0.478221
0.43993
0.411718
0.390746
0.386682
0.384655
0.383049
0.379894
0.65087
0.529199
0.478018
0.439944
0.410826
0.391326
0.379656
0.373751
0.364362
0.337617
0.652056
0.528744
0.478123
0.439683
0.41079
0.390612
0.378542
0.369545
0.356259
0.322887
1.05609
1.05392
1.0555
1.07204
1.12765
1.2744
1.63584
2.62443
5.6171
5.25363
1.04661
1.04284
1.03466
1.04284
1.07645
1.17025
1.40513
1.99962
3.64801
3.56176
1.03134
1.02419
1.00511
1.00537
1.01477
1.04839
1.13683
1.34506
1.83312
2.92257
1.02725
1.01997
1.00025
0.959929
0.955152
0.96006
0.977727
1.02287
1.12358
1.28444
1.02719
1.01954
0.999206
0.958011
0.933734
0.935517
0.944844
0.971783
1.03728
1.18438
1.02732
1.01949
0.998917
0.957323
0.926527
0.926923
0.932497
0.951246
0.999432
1.11309
1.02638
1.01869
0.998096
0.956346
0.925082
0.90666
0.907523
0.913021
0.929468
0.970223
1.02597
1.01835
0.997821
0.956196
0.924407
0.902337
0.900788
0.903556
0.913943
0.941866
1.0257
1.0181
0.997515
0.955598
0.922621
0.901396
0.888042
0.88403
0.883875
0.888187
1.02621
1.01837
0.997446
0.954823
0.922171
0.899557
0.886048
0.875935
0.86649
0.864786
1.08587
1.1564
1.20552
1.25686
1.3636
1.59703
2.14086
3.59626
7.9149
7.36855
1.08197
1.14603
1.19181
1.22796
1.30261
1.46383
1.83
2.75169
5.30755
5.14109
1.07233
1.13649
1.16504
1.19682
1.22942
1.29674
1.44077
1.76045
2.45562
4.09529
1.07198
1.13107
1.16115
1.16814
1.18279
1.20078
1.2343
1.28983
1.39768
1.62508
1.07238
1.12987
1.15962
1.16596
1.1715
1.18288
1.20567
1.2527
1.35271
1.57331
1.07234
1.12985
1.1593
1.16541
1.16904
1.17725
1.19443
1.23083
1.3094
1.48309
1.07218
1.12892
1.1585
1.1647
1.16571
1.16812
1.17435
1.18812
1.21782
1.28161
1.07207
1.12847
1.15831
1.16442
1.16483
1.16601
1.17019
1.18054
1.20411
1.25631
1.07186
1.12825
1.15839
1.16271
1.16256
1.1628
1.16429
1.16918
1.1815
1.21004
1.07173
1.12878
1.1584
1.16183
1.16152
1.16077
1.16136
1.16392
1.17171
1.19353
1.04781
1.12626
1.19818
1.26488
1.40142
1.69317
2.36192
4.14703
9.43429
8.7336
1.04768
1.11753
1.19174
1.24136
1.34112
1.54935
2.01044
3.16935
6.44167
6.20459
1.04255
1.11591
1.17024
1.23112
1.27574
1.36531
1.55088
1.9558
2.81675
4.84004
1.04452
1.11177
1.1651
1.21559
1.25993
1.29028
1.33933
1.40153
1.52602
1.79422
1.04563
1.10981
1.1639
1.21509
1.25406
1.28329
1.31287
1.37255
1.49603
1.76364
1.04563
1.10969
1.16376
1.2145
1.25347
1.28087
1.30496
1.35329
1.45296
1.66724
1.04591
1.10882
1.16314
1.21428
1.25111
1.27627
1.29723
1.31709
1.35662
1.43722
1.04593
1.10835
1.16307
1.21412
1.25015
1.27464
1.29504
1.31151
1.34398
1.41058
1.04566
1.10828
1.16324
1.2131
1.2483
1.27214
1.29163
1.30749
1.32697
1.36653
1.04527
1.10891
1.16327
1.21249
1.24759
1.27115
1.28949
1.30602
1.32238
1.35577
1.01566
1.07839
1.16705
1.24025
1.38915
1.70657
2.4354
4.38969
10.1927
9.4073
1.01758
1.07093
1.16746
1.2219
1.33125
1.55964
2.06616
3.34625
7.00263
6.73285
1.01507
1.0754
1.14827
1.22396
1.27335
1.37258
1.57837
2.02889
2.98013
5.20665
1.01817
1.07374
1.14164
1.21285
1.27706
1.3149
1.37375
1.44063
1.57445
1.86256
1.01983
1.07121
1.14049
1.21347
1.27292
1.3149
1.34746
1.41288
1.54728
1.8369
1.01992
1.07099
1.14042
1.21287
1.27283
1.3142
1.34246
1.39588
1.50523
1.73863
1.02042
1.0702
1.13984
1.21292
1.27168
1.31076
1.34253
1.36667
1.41039
1.49885
1.02047
1.06969
1.14002
1.21288
1.27059
1.30904
1.34134
1.36249
1.3981
1.4705
1.02006
1.06978
1.14035
1.21251
1.26921
1.30759
1.33821
1.3623
1.3838
1.42724
1.01961
1.07052
1.14024
1.21208
1.26884
1.30713
1.33712
1.36279
1.38126
1.41876
1.01566
1.07839
1.16705
1.24025
1.38915
1.70658
2.43543
4.38978
10.193
9.4075
1.01758
1.07093
1.16746
1.2219
1.33125
1.55965
2.06618
3.34628
7.00287
6.733
1.01507
1.0754
1.14827
1.22396
1.27335
1.37258
1.57836
2.02887
2.98006
5.20641
1.01817
1.07374
1.14164
1.21285
1.27706
1.3149
1.37376
1.44063
1.57444
1.8625
1.01983
1.07121
1.14049
1.21347
1.27293
1.3149
1.34745
1.41285
1.54722
1.83677
1.01992
1.07099
1.14042
1.21286
1.27283
1.3142
1.34243
1.39582
1.50509
1.73835
1.02042
1.07019
1.13983
1.2129
1.27169
1.31075
1.34252
1.36665
1.41034
1.49873
1.02044
1.06968
1.14004
1.21286
1.27052
1.30903
1.34126
1.36232
1.39778
1.46988
1.01998
1.06983
1.14039
1.21257
1.26918
1.3077
1.33805
1.36216
1.38345
1.42658
1.01958
1.07053
1.14022
1.21219
1.26892
1.30717
1.3374
1.36237
1.381
1.41887
1.04781
1.12626
1.19818
1.26488
1.40144
1.69321
2.36201
4.1473
9.43517
8.73416
1.04768
1.11753
1.19175
1.24136
1.34112
1.54936
2.01047
3.16945
6.44223
6.205
1.04255
1.11591
1.17024
1.23112
1.27574
1.3653
1.55087
1.95576
2.81659
4.83945
1.04452
1.11177
1.16509
1.2156
1.25993
1.29029
1.33935
1.40153
1.52597
1.79404
1.04563
1.10981
1.1639
1.21509
1.25406
1.28329
1.31285
1.37249
1.49588
1.76329
1.04563
1.10969
1.16376
1.2145
1.25347
1.28084
1.30487
1.35308
1.45247
1.66613
1.0459
1.1088
1.16311
1.21425
1.25113
1.27625
1.29722
1.3171
1.35664
1.43722
1.04586
1.10834
1.16308
1.21407
1.24999
1.2746
1.29483
1.31118
1.34328
1.409
1.04551
1.10846
1.16335
1.2132
1.24826
1.27236
1.29132
1.3072
1.32592
1.36419
1.0452
1.10896
1.16318
1.21276
1.24778
1.27166
1.29066
1.30636
1.32331
1.35778
1.08587
1.1564
1.20553
1.25688
1.36362
1.59708
2.14099
3.59665
7.91621
7.36942
1.08197
1.14603
1.19181
1.22797
1.30262
1.46385
1.83003
2.75183
5.30836
5.14166
1.07233
1.13649
1.16503
1.19682
1.22941
1.29673
1.44075
1.76039
2.45542
4.09459
1.07198
1.13107
1.16115
1.16814
1.1828
1.20079
1.23432
1.28985
1.39762
1.6248
1.07239
1.12987
1.15962
1.16596
1.17149
1.18286
1.20563
1.25261
1.35251
1.57287
1.07235
1.12984
1.15929
1.16541
1.16901
1.17718
1.19426
1.23046
1.30857
1.48107
1.07216
1.1289
1.15848
1.16469
1.1657
1.16815
1.17444
1.18835
1.21831
1.2826
1.07204
1.1285
1.15832
1.16427
1.16467
1.16586
1.17017
1.18071
1.20436
1.25617
1.07189
1.12858
1.15856
1.16262
1.1625
1.16282
1.16467
1.17019
1.18302
1.21147
1.07171
1.12888
1.1583
1.16202
1.16192
1.16211
1.16349
1.16824
1.17992
1.20663
1.0561
1.05392
1.05551
1.07205
1.12768
1.27446
1.63599
2.62477
5.61841
5.25462
1.04661
1.04284
1.03466
1.04285
1.07646
1.17027
1.40518
1.99974
3.64857
3.56207
1.03134
1.02419
1.0051
1.00537
1.01477
1.04838
1.1368
1.345
1.83294
2.92196
1.02725
1.01997
1.00025
0.959929
0.955166
0.960073
0.977738
1.02287
1.12355
1.28418
1.02719
1.01954
0.999207
0.958014
0.933706
0.935483
0.944793
0.971687
1.03707
1.18389
1.02731
1.01948
0.998915
0.957324
0.92644
0.926813
0.932313
0.950868
0.998558
1.11091
1.02637
1.01868
0.998088
0.956361
0.92497
0.906827
0.907792
0.913542
0.930516
0.972353
1.0261
1.01843
0.997805
0.956004
0.92431
0.901847
0.902076
0.905796
0.918207
0.950567
1.02629
1.01849
0.997606
0.955183
0.922376
0.9009
0.891051
0.891839
0.896648
0.910753
1.02644
1.01844
0.997346
0.95431
0.922477
0.900648
0.887948
0.888136
0.890986
0.900349
0.661707
0.545662
0.506955
0.507543
0.515692
0.551446
0.68296
1.08577
2.31282
2.18865
0.657815
0.541401
0.495118
0.489777
0.493413
0.511907
0.577752
0.816089
1.45068
1.43086
0.654751
0.53101
0.481925
0.466124
0.466617
0.472138
0.495489
0.575381
0.77397
1.19336
0.651332
0.53018
0.479871
0.441685
0.429163
0.429594
0.434154
0.453421
0.511709
0.647292
0.652153
0.529325
0.479138
0.441246
0.415854
0.412671
0.413711
0.419697
0.440725
0.500832
0.652786
0.528799
0.478947
0.441015
0.41139
0.406284
0.406548
0.409428
0.421082
0.456792
0.651695
0.529126
0.478449
0.440153
0.411846
0.393404
0.391939
0.392506
0.395925
0.407752
0.65135
0.529359
0.478211
0.439848
0.411703
0.390203
0.388086
0.388303
0.390145
0.397217
0.651775
0.529136
0.478163
0.43973
0.410969
0.390569
0.381439
0.377976
0.377344
0.375835
0.652571
0.528372
0.47826
0.439276
0.41091
0.390814
0.379117
0.375976
0.369404
0.351424
1.12183
0.652391
0.511679
0.510519
0.562467
0.611992
0.618678
0.641939
0.771667
0.897442
1.13547
0.70821
0.587195
0.599516
0.607876
0.632007
0.687296
0.828017
0.874784
0.851751
1.11909
0.847552
0.749147
0.640817
0.5824
0.57785
0.602772
0.680479
0.678821
0.743634
1.05265
0.996381
0.853338
0.689233
0.606279
0.586729
0.594195
0.609509
0.651829
0.739116
0.928749
0.960881
0.924407
0.827953
0.684755
0.676997
0.684946
0.713236
0.776318
0.768551
0.779431
0.909261
0.908339
0.880455
0.801117
0.785234
0.803557
0.815526
0.81812
0.823361
0.501118
0.842748
0.902403
0.905525
0.908584
0.902372
0.912626
0.932761
0.914682
0.851648
0.355487
0.749116
0.886278
1.0146
1.15261
1.1485
1.14077
1.09366
0.978472
0.84021
0.184735
0.559676
0.843982
1.27651
1.30596
1.33853
1.28599
1.154
0.988276
0.856472
0.173674
0.438711
0.792955
1.52282
1.50097
1.44049
1.3228
1.14045
0.987575
0.862084
2.66458
1.62118
1.32056
1.32729
1.50463
1.61416
1.66753
1.80443
2.10693
2.2865
2.71968
1.75362
1.50764
1.54707
1.5359
1.56987
1.70882
2.01308
2.14599
2.12556
2.69977
2.07352
1.93199
1.66256
1.51247
1.51943
1.54201
1.63526
1.72845
1.87151
2.55662
2.41558
2.06868
1.74184
1.55774
1.53371
1.53567
1.56848
1.66174
1.84812
2.37326
2.35682
2.26366
2.03909
1.74159
1.7474
1.76139
1.81635
1.92472
1.90526
1.97007
2.29878
2.26794
2.17814
1.9846
1.9845
2.01354
2.03098
2.0278
2.0245
1.22792
2.165
2.30268
2.32383
2.31713
2.32746
2.33822
2.33516
2.26914
2.08936
1.11736
1.88293
2.26663
2.62104
2.89126
2.88684
2.84567
2.69623
2.3866
2.08132
0.995933
1.35994
2.17846
3.24291
3.296
3.2903
3.15224
2.81556
2.4243
2.12459
0.925931
1.21227
2.06079
3.8456
3.7776
3.55795
3.22904
2.80907
2.44276
2.14703
3.66304
2.27617
1.89976
1.91408
2.17297
2.31488
2.43051
2.68313
3.08311
3.2324
3.75244
2.45498
2.15937
2.22185
2.20316
2.23853
2.41041
2.78205
3.046
3.02983
3.74432
2.8894
2.73309
2.39242
2.18349
2.19258
2.21777
2.30497
2.47626
2.66784
3.57419
3.36825
2.8723
2.46793
2.23388
2.19914
2.20352
2.25127
2.38599
2.62501
3.31198
3.29269
3.1626
2.84606
2.47928
2.50541
2.54678
2.61965
2.71616
2.69614
2.76592
3.22681
3.19305
3.07538
2.81328
2.82263
2.8719
2.87523
2.86697
2.83782
1.68155
3.07429
3.28347
3.29857
3.30793
3.3441
3.34014
3.31681
3.19334
2.91958
1.57753
2.72693
3.22862
3.75214
4.09282
4.07926
4.01449
3.78163
3.33523
2.9478
1.3821
1.95663
3.1515
4.67614
4.7027
4.6667
4.43754
3.92994
3.40912
3.01964
1.33524
1.82041
3.0014
5.50976
5.39406
5.01755
4.53658
3.95792
3.4505
3.0582
4.25822
2.68263
2.27634
2.29831
2.5958
2.75995
2.9394
3.22815
3.70403
3.78469
4.37599
2.88968
2.5782
2.66137
2.63607
2.67243
2.85121
3.26291
3.65583
3.61897
4.37934
3.39662
3.23135
2.85958
2.62179
2.627
2.65704
2.7501
2.96181
3.17918
4.20587
3.95476
3.3662
2.92614
2.67215
2.62606
2.633
2.69555
2.86536
3.11504
3.88749
3.86644
3.70735
3.33086
2.95518
2.99382
3.06835
3.14973
3.20839
3.19541
3.24215
3.79824
3.76355
3.63439
3.34087
3.35298
3.41287
3.40838
3.39747
3.35774
1.93619
3.63521
3.90283
3.91319
3.93576
3.99956
3.98136
3.93516
3.76276
3.42372
1.81405
3.24338
3.82542
4.4791
4.84798
4.82483
4.74175
4.44392
3.91237
3.49565
1.58576
2.35468
3.75104
5.63419
5.62585
5.5533
5.2388
4.60378
4.017
3.59163
1.5432
2.2002
3.62055
6.58367
6.42669
5.94146
5.34794
4.66705
4.0778
3.64145
4.5358
2.87718
2.4621
2.48864
2.80321
2.97538
3.19519
3.45136
3.98611
4.02569
4.66934
3.09789
2.78307
2.87856
2.84795
2.88617
3.06833
3.51796
3.97397
3.91366
4.68247
3.64073
3.47121
3.08621
2.83919
2.83931
2.8739
2.9787
3.20601
3.42791
4.50806
4.23385
3.60058
3.14788
2.88875
2.83643
2.84478
2.9172
3.10796
3.35042
4.16109
4.13852
3.96329
3.55558
3.19225
3.23708
3.33651
3.41756
3.44547
3.44309
3.46386
4.06936
4.03293
3.89968
3.596
3.60785
3.66743
3.66174
3.65148
3.61756
2.04788
3.9011
4.19024
4.20869
4.23714
4.30831
4.2827
4.22299
4.02394
3.66649
1.9123
3.48029
4.11326
4.84524
5.21248
5.1833
5.08535
4.74501
4.17839
3.76253
1.66996
2.53772
4.0009
6.14704
6.12106
6.00465
5.61493
4.90971
4.30017
3.87218
1.62876
2.36473
3.89361
7.09745
6.92604
6.39248
5.73593
4.99373
4.3723
3.92764
4.53556
2.87698
2.46172
2.4884
2.8023
2.97439
3.19644
3.44319
3.9879
4.01803
4.66905
3.09769
2.7828
2.87848
2.84765
2.88611
3.06871
3.51894
3.97317
3.91545
4.68201
3.64048
3.47104
3.08616
2.83947
2.84046
2.87541
2.98063
3.2095
3.42531
4.50754
4.23325
3.60004
3.14757
2.8901
2.84012
2.84858
2.92167
3.11203
3.34668
4.16033
4.13774
3.96246
3.55472
3.19809
3.24337
3.35108
3.4306
3.454
3.45533
3.46294
4.06797
4.0289
3.89541
3.59308
3.60309
3.65696
3.65354
3.64551
3.6247
2.04723
3.89958
4.16657
4.20765
4.22957
4.28102
4.25622
4.19779
4.00799
3.67768
1.90969
3.47787
4.10497
4.86967
5.2118
5.18668
5.07768
4.71983
4.16559
3.76724
1.6688
2.54174
3.9256
6.23595
6.19552
6.04227
5.60462
4.88739
4.28911
3.87737
1.63018
2.3656
3.8819
7.06005
6.90001
6.4011
5.73642
4.97718
4.36216
3.93222
4.25756
2.68208
2.27531
2.29765
2.59319
2.75793
2.94267
3.20686
3.70411
3.76399
4.3752
2.88914
2.57747
2.66109
2.6353
2.67229
2.85216
3.26503
3.65651
3.62534
4.37818
3.39596
3.23093
2.85955
2.62279
2.62959
2.66109
2.75598
2.97184
3.17298
4.20432
3.95303
3.36476
2.92532
2.67582
2.63601
2.64331
2.70713
2.87856
3.10386
3.88508
3.86408
3.70507
3.32895
2.97054
3.01159
3.10831
3.18721
3.23072
3.22203
3.23799
3.79511
3.75398
3.62259
3.33056
3.33846
3.38217
3.38757
3.38471
3.38082
1.93547
3.63263
3.83976
3.91308
3.91445
3.92534
3.91081
3.86989
3.72163
3.44432
1.80615
3.23311
3.77297
4.5448
4.84235
4.82847
4.71988
4.37535
3.87352
3.50793
1.57996
2.35417
3.53754
5.8772
5.82722
5.65515
5.20911
4.54211
3.9861
3.60564
1.54921
2.21313
3.59909
6.49931
6.36762
5.96692
5.34492
4.62848
4.0512
3.65431
3.66223
2.2754
1.89838
1.91324
2.16915
2.31351
2.43224
2.66257
3.07658
3.20689
3.75135
2.4542
2.15839
2.22129
2.20225
2.23825
2.41061
2.77395
3.04623
3.04022
3.74303
2.88852
2.73274
2.39269
2.18529
2.19518
2.22326
2.31606
2.49104
2.66151
3.57194
3.36587
2.87038
2.46683
2.23878
2.21232
2.21724
2.26648
2.41206
2.6094
3.30784
3.28911
3.15988
2.84474
2.49732
2.53097
2.60025
2.67363
2.73725
2.72011
2.75481
3.22502
3.18359
3.05992
2.79438
2.79761
2.8268
2.85134
2.85243
2.86449
1.68565
3.07763
3.20298
3.29629
3.28027
3.2551
3.25122
3.23689
3.14182
2.93277
1.57284
2.72256
3.13385
3.8319
4.07381
4.06813
3.98079
3.69105
3.27629
2.9632
1.37606
1.95368
2.92198
4.97017
4.94046
4.7981
4.4151
3.84132
3.36567
3.03769
1.361
1.87977
2.99396
5.41
5.32572
5.0483
4.53248
3.91932
3.41675
3.07591
2.66398
1.62041
1.31922
1.32671
1.50128
1.61352
1.66789
1.79868
2.08692
2.26917
2.71879
1.7528
1.50674
1.54624
1.53532
1.5695
1.70651
1.98655
2.14172
2.13704
2.69876
2.07262
1.93199
1.66306
1.51435
1.52183
1.54785
1.65426
1.74325
1.86841
2.55483
2.41352
2.06662
1.74089
1.56216
1.54623
1.54878
1.58365
1.69417
1.83764
2.36893
2.35379
2.26221
2.03953
1.75248
1.77563
1.81235
1.86788
1.9343
1.92137
1.95647
2.30111
2.26148
2.16439
1.96298
1.95338
1.96958
2.00878
2.01294
2.02802
1.23526
2.18041
2.24206
2.31579
2.29301
2.25648
2.26083
2.2769
2.22451
2.08906
1.15239
1.90947
2.17731
2.68361
2.85772
2.85582
2.80904
2.6188
2.32669
2.09529
1.00494
1.34325
2.03708
3.48718
3.47297
3.39587
3.15494
2.72625
2.38149
2.14011
1.00331
1.3142
2.0795
3.77695
3.73272
3.57138
3.23021
2.78538
2.41312
2.16362
1.12174
0.65215
0.511176
0.5107
0.563013
0.612359
0.619362
0.64093
0.753416
0.891607
1.13528
0.707981
0.586958
0.598945
0.607849
0.631981
0.685287
0.802641
0.866931
0.857891
1.11879
0.847105
0.74959
0.641033
0.58318
0.579685
0.606425
0.697119
0.687359
0.744064
1.05202
0.995761
0.85278
0.689153
0.608059
0.593095
0.601781
0.619735
0.676539
0.737791
0.927877
0.960144
0.924441
0.829182
0.686516
0.695036
0.711545
0.738016
0.776533
0.77482
0.773848
0.914587
0.908788
0.874543
0.78719
0.765408
0.778398
0.806013
0.805458
0.808586
0.507108
0.861426
0.870388
0.894523
0.892111
0.869678
0.87951
0.91045
0.894835
0.844025
0.453862
0.751888
0.847772
1.04979
1.12899
1.12048
1.12079
1.06848
0.94773
0.847417
0.359595
0.525636
0.818669
1.38198
1.37646
1.36297
1.28739
1.11986
0.967392
0.8633
0.228415
0.478409
0.83992
1.49722
1.48106
1.43166
1.32177
1.13533
0.969507
0.867366
)
;

boundaryField
{
    inlet
    {
        type            fixedValue;
        value           uniform 1;
    }
    outlet
    {
        type            waveTransmissive;
        gamma           1.4;
        fieldInf        1;
        lInf            3;
        value           nonuniform List<scalar> 
100
(
0.908959
0.789248
0.712142
0.719405
0.773062
0.819147
0.844563
0.845827
0.86489
0.87145
2.26593
1.91644
1.73289
1.7286
1.857
1.96345
2.02485
2.04257
2.09199
2.11485
3.21627
2.72064
2.45644
2.43321
2.60549
2.73954
2.82369
2.88142
2.96124
2.9999
3.80819
3.23928
2.92047
2.88362
3.07188
3.2207
3.31934
3.41427
3.51878
3.56865
4.0856
3.49811
3.14698
3.10348
3.29512
3.4542
3.56008
3.67522
3.79345
3.84926
4.0812
3.50052
3.14716
3.10243
3.29845
3.46306
3.56689
3.68086
3.79974
3.85547
3.79667
3.24574
2.92128
2.88051
3.08003
3.24207
3.33904
3.42969
3.53617
3.58609
3.20245
2.72913
2.45868
2.42843
2.61544
2.76228
2.85017
2.90197
2.98483
3.02412
2.25756
1.92388
1.73668
1.72422
1.86729
1.97891
2.04468
2.06174
2.11399
2.13816
0.907385
0.79074
0.715492
0.718456
0.780113
0.822089
0.850564
0.855796
0.875771
0.881055
)
;
    }
    top
    {
        type            symmetryPlane;
    }
    bottom
    {
        type            symmetryPlane;
    }
    step
    {
        type            zeroGradient;
    }
    defaultFaces
    {
        type            empty;
    }
}


// ************************************************************************* //
