/*--------------------------------*- C++ -*----------------------------------*\
  =========                 |
  \\      /  F ield         | OpenFOAM: The Open Source CFD Toolbox
   \\    /   O peration     | Website:  https://openfoam.org
    \\  /    A nd           | Version:  6.0
     \\/     M anipulation  |
\*---------------------------------------------------------------------------*/
FoamFile
{
    version     2.0;
    format      ascii;
    class       surfaceScalarField;
    location    "2";
    object      phi;
}
// * * * * * * * * * * * * * * * * * * * * * * * * * * * * * * * * * * * * * //

dimensions      [1 0 -1 0 0 0 0];

internalField   nonuniform List<scalar> 
560
(
0.00840715
2.29301e-10
0.00840341
8.55462e-07
0.00839976
2.41314e-06
0.00840146
-4.39584e-07
0.00834161
5.63811e-05
0.0081776
0.000145411
0.00714391
0.00100124
0.00526111
0.0018812
0.00251279
0.00274043
0.00250674
0.00840706
9.3024e-08
0.00840306
1.97651e-06
0.00839867
5.59344e-06
0.00839637
3.22743e-06
0.00833696
0.000112202
0.00812787
0.000336873
0.00691586
0.00218143
0.0049802
0.00381447
0.00261449
0.00509735
0.00511493
0.00840722
4.52192e-08
0.00840339
2.949e-06
0.00839914
8.68754e-06
0.00839834
5.32968e-06
0.00833247
0.000174809
0.00809387
0.000558106
0.00674894
0.00349477
0.00481201
0.00574782
0.00259623
0.00730244
0.00770514
0.0084074
-1.7127e-07
0.00840405
3.6063e-06
0.00840021
1.15451e-05
0.00840057
6.3298e-06
0.00833093
0.00024199
0.00807346
0.000798501
0.00665344
0.00488375
0.00472446
0.00767257
0.00258724
0.00942878
0.0102884
0.00840762
-5.16731e-07
0.00840483
4.00534e-06
0.00840171
1.41521e-05
0.00840288
6.75199e-06
0.00833041
0.00031358
0.00807049
0.00104195
0.00662332
0.00630156
0.00470602
0.00957975
0.00261469
0.0115151
0.0129086
0.00840777
-7.93168e-07
0.00840578
4.57863e-06
0.00840312
1.74068e-05
0.00840226
9.47067e-06
0.00833467
0.000383045
0.00807248
0.00128858
0.00664157
0.00770109
0.00473766
0.0114715
0.00267103
0.0135782
0.0155874
0.0084083
-8.97969e-07
0.00840703
6.27249e-06
0.0084047
2.24979e-05
0.00840877
8.3783e-06
0.00833623
0.000460654
0.0080961
0.00151484
0.00672938
0.0090329
0.0048419
0.0133467
0.00278324
0.0156359
0.0183833
0.00840931
-4.63476e-07
0.00840667
1.18094e-05
0.00841083
2.45966e-05
0.00845784
-3.11609e-05
0.00832458
0.000599004
0.00809449
0.00173435
0.00682735
0.0102636
0.00497836
0.0151849
0.00294927
0.0176653
0.0213442
0.00839688
1.43653e-05
0.00838005
3.38316e-05
0.0083166
9.85223e-05
0.00794865
0.000355702
0.00839487
0.000146358
0.0078312
0.00229523
0.00688228
0.0111858
0.00514878
0.0169121
0.00320704
0.0196112
0.0245629
0.00844027
-1.30039e-05
0.00849373
-1.04336e-05
0.00857462
1.8188e-05
0.00913064
-0.000102776
0.00845479
0.000743969
0.00877393
0.00199808
0.00727209
0.0126619
0.0054692
0.0187069
0.00357603
0.0215108
0.0281529
0.0336086
-2.87608e-05
0.0339438
-3.23566e-05
0.0338352
-0.000125703
0.0346554
-0.000294316
0.0334265
0.000767153
0.0357203
0.0013314
0.0358723
0.0113963
0.0343545
0.0200302
0.0325336
0.0233302
0.0226962
0.0381382
0.0335459
1.43427e-07
0.0334793
-9.14379e-07
0.03358
2.243e-05
0.0344651
-1.41327e-05
0.0333109
0.00037756
0.0350701
0.000961382
0.0390092
0.0061721
0.0405316
0.018226
0.0413235
0.022393
0.0228042
0.0412463
0.0335958
9.28426e-06
0.0334741
-1.25124e-05
0.0334219
4.79097e-05
0.0339851
2.27004e-05
0.0335479
0.000381469
0.0360567
0.000721116
0.0367607
0.00391785
0.0416893
0.0124269
0.0448928
0.0190231
0.0214286
0.0462201
0.0336264
-1.98396e-07
0.0335639
1.99823e-05
0.0337837
2.46146e-05
0.0336347
8.86208e-05
0.0337512
0.00015106
0.0340412
0.000244783
0.0366962
0.00147219
0.0438416
0.00491539
0.047876
0.0148008
0.0183513
0.0507924
0.0336002
-8.48836e-07
0.033574
6.65635e-06
0.0337252
4.6008e-06
0.0334872
3.75576e-05
0.0336003
4.27973e-05
0.0344796
2.55023e-05
0.0344897
0.000852485
0.0388231
0.00166977
0.0454558
0.00722766
0.0132149
0.0502631
0.0335963
7.49593e-07
0.0335865
1.28616e-06
0.0336112
8.66086e-06
0.0335446
1.31527e-05
0.0335783
6.39954e-05
0.0338664
5.04975e-05
0.0341251
0.000289951
0.0362091
0.000629166
0.0400433
0.00251817
0.00618915
0.0466095
0.0335983
4.07127e-07
0.0336018
4.78928e-07
0.0336034
1.67065e-06
0.0336159
4.09464e-06
0.0336804
-1.12005e-06
0.0336886
4.18073e-05
0.0338814
8.68233e-05
0.0343356
0.000146516
0.0361422
0.000691948
0.0015626
0.0406876
0.0335988
1.87895e-07
0.0336011
1.74691e-08
0.0335992
9.88878e-07
0.0336093
1.03603e-07
0.0336025
4.95371e-06
0.0336033
1.67564e-06
0.033671
3.37561e-05
0.0336144
5.22118e-05
0.0342168
0.000233994
0.000537064
0.0350868
0.0335997
-7.00859e-08
0.0335993
2.64802e-07
0.0336003
-1.99882e-07
0.0335999
3.91501e-07
0.033602
3.91509e-07
0.0336162
9.62511e-07
0.0336117
1.76534e-06
0.0338032
-3.48096e-05
0.0339112
1.12968e-05
6.206e-05
0.0347309
0.0335992
0.0335992
0.0335977
0.0335989
0.033601
0.033593
0.0336308
0.0337511
0.0336466
0.0329604
0.0184931
0.0195789
0.0134731
0.00485743
0.0109425
0.00204204
0.011786
-0.00141937
0.0156793
-0.00461458
0.0179339
-0.00331032
0.019965
-0.00349834
0.022859
-0.00476135
0.0243374
-0.003034
-0.00133556
0.0251614
0.0355696
0.0192047
0.0105228
0.0179344
0.00286644
0.0169492
-0.000979998
0.0166846
-0.00507542
0.0208087
-0.00845239
0.0263753
-0.0106938
0.0308405
-0.0115216
0.0333157
-0.00739599
-0.00297894
0.0338964
0.0478375
0.0252237
0.0189439
0.0215036
0.00627829
0.0198713
3.39051e-07
0.0198963
-0.00583546
0.0233343
-0.012948
0.0295724
-0.0184721
0.0338491
-0.0182697
0.0376896
-0.0130255
-0.00520595
0.0391442
0.059169
0.0301575
0.027905
0.0255464
0.0107348
0.0236015
0.00113065
0.0253401
-0.00844176
0.0291033
-0.0177235
0.0321706
-0.0227467
0.035068
-0.0224316
0.0384233
-0.0180341
-0.00780596
0.0423495
0.0667949
0.035424
0.0346604
0.0306694
0.0151384
0.028997
0.00189535
0.0306403
-0.0110126
0.03334
-0.0213758
0.0362522
-0.0263838
0.0365442
-0.0233576
0.0344804
-0.0173573
-0.0119
0.0576355
0.0554729
0.0445185
0.0473517
0.0368565
0.0222236
0.0354019
0.00236078
0.0377605
-0.0143286
0.040329
-0.024735
0.0395507
-0.0259989
0.0376802
-0.021678
0.0365222
-0.0170403
-0.0119555
0.048639
0.0468203
0.0525669
0.0427165
0.044973
0.0289717
0.0431847
0.00311884
0.0453222
-0.0173974
0.0453555
-0.0252934
0.0426749
-0.0232403
0.0394002
-0.0187345
0.0365538
-0.0148061
-0.0103624
0.0508862
0.0307093
0.0530353
0.0389838
0.0567674
0.0243282
0.0578443
0.000959963
0.0567505
-0.0168971
0.051987
-0.0205401
0.0463209
-0.0174568
0.041461
-0.0139012
0.037478
-0.011097
-0.00763171
0.0534908
0.0109285
0.0628871
0.0272498
0.0713805
0.0153154
0.0728651
-0.00105655
0.0686475
-0.0129154
0.05766
-0.00919907
0.0499087
-0.00922597
0.0438143
-0.00746285
0.0386856
-0.00597556
-0.00413815
0.0447067
0.0682077
0.0832468
0.0820486
0.0695526
0.0612208
0.0528874
0.045958
0.0401206
)
;

boundaryField
{
    inlet
    {
        type            calculated;
        value           nonuniform List<scalar> 
20
(
-0.00840716
-0.00840716
-0.00840717
-0.00840717
-0.00840716
-0.00840713
-0.0084071
-0.00840713
-0.00840725
-0.00840857
-0.0336254
-0.0335869
-0.0335879
-0.0335992
-0.0335986
-0.0335975
-0.0335985
-0.033599
-0.0335993
-0.0335992
)
;
    }
    outlet
    {
        type            calculated;
        value           nonuniform List<scalar> 10(0.0242623 0.0335687 0.0386912 0.0397206 0.037017 0.0350552 0.0339967 0.0341538 0.0348587 0.0358219);
    }
    top
    {
        type            symmetryPlane;
        value           uniform 0;
    }
    bottom
    {
        type            symmetryPlane;
        value           uniform 0;
    }
    step
    {
        type            calculated;
        value           uniform 0;
    }
    defaultFaces
    {
        type            empty;
        value           nonuniform 0();
    }
}


// ************************************************************************* //
