/*--------------------------------*- C++ -*----------------------------------*\
  =========                 |
  \\      /  F ield         | OpenFOAM: The Open Source CFD Toolbox
   \\    /   O peration     | Website:  https://openfoam.org
    \\  /    A nd           | Version:  6.0
     \\/     M anipulation  |
\*---------------------------------------------------------------------------*/
FoamFile
{
    version     2.0;
    format      ascii;
    class       volScalarField;
    location    "2";
    object      T;
}
// * * * * * * * * * * * * * * * * * * * * * * * * * * * * * * * * * * * * * //

dimensions      [0 0 0 1 0 0 0];

internalField   nonuniform List<scalar> 
3000
(
0.874797
0.833908
0.821385
0.816764
0.825162
0.888824
1.36016
2.33364
2.59269
2.60897
0.874732
0.833961
0.821309
0.816778
0.824902
0.891408
1.35753
2.30474
2.58033
2.51211
0.874862
0.833736
0.821333
0.816572
0.824758
0.886798
1.39236
2.23204
2.5844
2.47647
0.875076
0.833427
0.821313
0.816361
0.824236
0.886321
1.35986
2.24406
2.62006
2.49364
0.875329
0.83298
0.82129
0.81602
0.8236
0.883477
1.35982
2.23626
2.61347
2.49927
0.875728
0.832325
0.82126
0.81554
0.822629
0.880394
1.34457
2.2172
2.60738
2.49751
0.876276
0.831387
0.821222
0.81477
0.821505
0.871997
1.34845
2.16921
2.59026
2.48903
0.876515
0.830647
0.82081
0.814048
0.820132
0.869121
1.3087
2.13026
2.55939
2.46495
0.876755
0.829707
0.820235
0.813104
0.818693
0.863223
1.26759
2.11864
2.53247
2.43247
0.877057
0.828506
0.8195
0.811892
0.81671
0.855973
1.20674
2.07452
2.48581
2.3606
1.00228
1.00309
1.00566
1.01949
1.06565
1.18511
1.56439
3.0586
2.83601
2.59245
1.00225
1.00306
1.00559
1.01934
1.06486
1.18533
1.56559
3.05121
2.88143
2.73872
1.00222
1.00301
1.0055
1.01908
1.06441
1.18329
1.55793
3.03297
2.88913
2.73072
1.00217
1.00292
1.00537
1.01869
1.06353
1.18123
1.55179
3.03381
2.88515
2.72187
1.00208
1.00277
1.00515
1.0181
1.06212
1.17814
1.54113
3.01554
2.87857
2.71456
1.00195
1.00256
1.00486
1.0173
1.06021
1.17387
1.52749
2.99941
2.86761
2.69788
1.00177
1.00224
1.00448
1.01619
1.05797
1.16671
1.50382
2.96037
2.85392
2.67951
1.00134
1.00167
1.00381
1.01468
1.05422
1.15887
1.47969
2.91848
2.83156
2.64177
1.00068
1.00086
1.00288
1.01272
1.04964
1.14769
1.44444
2.83683
2.79664
2.59784
0.999873
0.999846
1.00172
1.0103
1.04374
1.13325
1.39517
2.71278
2.73057
2.52819
1.03176
1.04311
1.05081
1.07479
1.13401
1.27782
1.685
2.94584
2.76755
2.80026
1.03175
1.04307
1.05073
1.07463
1.13363
1.27727
1.68335
2.94431
2.76646
2.79597
1.03172
1.043
1.05058
1.07432
1.13296
1.27575
1.6786
2.94066
2.76317
2.78636
1.03167
1.04289
1.05034
1.07381
1.13185
1.27333
1.67026
2.93117
2.75327
2.77623
1.0316
1.0427
1.04997
1.07306
1.13021
1.26971
1.65841
2.91501
2.74557
2.75811
1.03147
1.04241
1.04945
1.07202
1.12795
1.26462
1.6418
2.89289
2.73359
2.73855
1.03127
1.04202
1.04883
1.07069
1.12499
1.25764
1.61972
2.86077
2.72329
2.70708
1.03097
1.04153
1.04825
1.0691
1.1212
1.24885
1.59224
2.81813
2.70167
2.67039
1.03054
1.0409
1.04758
1.06712
1.11635
1.23721
1.55661
2.75284
2.67662
2.61519
1.03002
1.04014
1.04678
1.06469
1.11027
1.22232
1.50919
2.6637
2.62664
2.54622
1.02837
1.04859
1.06698
1.10295
1.1793
1.34952
1.80477
2.97372
2.71916
2.77782
1.02836
1.04856
1.0669
1.10278
1.17893
1.34874
1.80268
2.97198
2.71843
2.77975
1.02833
1.04851
1.06677
1.10245
1.17817
1.34709
1.79787
2.9665
2.71888
2.77343
1.02829
1.04842
1.06657
1.10193
1.17695
1.34437
1.78931
2.95723
2.71801
2.76272
1.0282
1.04828
1.06627
1.10116
1.17517
1.34033
1.77632
2.94404
2.71487
2.74447
1.02806
1.04806
1.06586
1.10012
1.1727
1.33465
1.75807
2.92542
2.71008
2.72616
1.02784
1.04778
1.0654
1.09879
1.16943
1.32697
1.73413
2.89897
2.70285
2.69449
1.02749
1.04746
1.06495
1.09715
1.16517
1.31695
1.7038
2.86325
2.68798
2.65919
1.02703
1.04707
1.06444
1.09509
1.15973
1.30396
1.66568
2.81073
2.66894
2.60423
1.02647
1.04662
1.06385
1.09257
1.15299
1.28766
1.61667
2.73467
2.62935
2.54072
1.0167
1.03653
1.05818
1.10167
1.18748
1.37295
1.85608
3.0216
2.6735
2.76368
1.01669
1.03652
1.05813
1.10151
1.18713
1.37209
1.85504
3.01872
2.67579
2.77014
1.01665
1.03651
1.05803
1.10119
1.18636
1.37023
1.85226
3.01116
2.67746
2.76559
1.01656
1.0365
1.05787
1.10069
1.18512
1.36729
1.84561
2.9976
2.67794
2.75611
1.01643
1.03648
1.05765
1.09997
1.18331
1.36313
1.83275
2.97809
2.67925
2.73499
1.01629
1.03637
1.05746
1.09901
1.18082
1.3573
1.81477
2.95046
2.67861
2.71821
1.01607
1.03622
1.05728
1.09779
1.17753
1.34953
1.79056
2.92325
2.67637
2.68131
1.01575
1.03606
1.05716
1.09628
1.17328
1.33937
1.7593
2.89111
2.6666
2.65098
1.01534
1.03588
1.05707
1.0944
1.16786
1.3263
1.72018
2.84575
2.65154
2.58614
1.01486
1.03568
1.05699
1.09208
1.16113
1.30992
1.67088
2.77908
2.61618
2.52633
1.0167
1.03653
1.05818
1.10167
1.18748
1.37294
1.85604
3.02172
2.67337
2.76369
1.01669
1.03652
1.05813
1.10151
1.18712
1.37207
1.85501
3.01881
2.67568
2.77015
1.01665
1.03651
1.05803
1.10119
1.18636
1.37022
1.85221
3.01119
2.67737
2.76561
1.01656
1.0365
1.05787
1.10068
1.18511
1.36727
1.84553
2.99764
2.67783
2.75614
1.01643
1.03648
1.05765
1.09997
1.1833
1.36311
1.83267
2.97813
2.67913
2.73503
1.01629
1.03637
1.05746
1.09901
1.18082
1.35729
1.81472
2.95052
2.6785
2.71825
1.01607
1.03622
1.05728
1.09779
1.17753
1.34953
1.79053
2.92332
2.67628
2.68135
1.01575
1.03606
1.05716
1.09628
1.17328
1.33938
1.7593
2.89117
2.66654
2.65103
1.01534
1.03588
1.05707
1.0944
1.16786
1.3263
1.72019
2.8458
2.65149
2.5862
1.01486
1.03568
1.05699
1.09208
1.16113
1.30993
1.67089
2.77913
2.61615
2.52639
1.02838
1.04859
1.06699
1.10296
1.17931
1.34953
1.80451
2.97395
2.71937
2.77835
1.02836
1.04856
1.06691
1.10279
1.17893
1.34873
1.80235
2.97209
2.71863
2.78021
1.02833
1.04851
1.06678
1.10246
1.17817
1.34707
1.79759
2.96637
2.71898
2.77383
1.02829
1.04842
1.06657
1.10193
1.17695
1.34434
1.78894
2.95718
2.71799
2.76336
1.0282
1.04828
1.06627
1.10117
1.17516
1.34031
1.77605
2.94404
2.71468
2.74512
1.02806
1.04807
1.06587
1.10013
1.1727
1.33464
1.75792
2.9255
2.70986
2.72693
1.02784
1.04779
1.0654
1.09879
1.16943
1.32697
1.73407
2.89911
2.70263
2.69507
1.02749
1.04746
1.06495
1.09715
1.16518
1.31697
1.70382
2.86345
2.68777
2.66001
1.02703
1.04707
1.06444
1.0951
1.15974
1.30399
1.66573
2.81093
2.66874
2.60482
1.02647
1.04662
1.06385
1.09257
1.153
1.28769
1.61672
2.73485
2.62915
2.54149
1.03177
1.04312
1.05082
1.07481
1.13402
1.27793
1.68482
2.9456
2.7673
2.80099
1.03176
1.04308
1.05074
1.07465
1.13367
1.27733
1.68261
2.94315
2.7659
2.79668
1.03173
1.04301
1.05059
1.07433
1.13298
1.2758
1.67827
2.94038
2.76257
2.78685
1.03168
1.04289
1.05035
1.07383
1.13192
1.27332
1.66937
2.93006
2.75329
2.77741
1.0316
1.0427
1.04998
1.07307
1.13023
1.26977
1.658
2.91418
2.74542
2.75913
1.03147
1.04242
1.04946
1.07203
1.12796
1.26466
1.64163
2.89257
2.7336
2.73979
1.03128
1.04202
1.04884
1.0707
1.12499
1.25772
1.61982
2.86057
2.72321
2.70814
1.03097
1.04153
1.04826
1.06911
1.12122
1.24891
1.5924
2.81852
2.70151
2.67185
1.03054
1.0409
1.04758
1.06713
1.11637
1.23726
1.55678
2.75325
2.67618
2.61643
1.03002
1.04014
1.04678
1.0647
1.11029
1.22237
1.50932
2.66404
2.62633
2.54768
1.00228
1.00311
1.00566
1.01951
1.06553
1.1857
1.56592
3.05325
2.83259
2.5898
1.00226
1.00308
1.0056
1.01937
1.06501
1.18555
1.56417
3.04675
2.87307
2.73054
1.00222
1.00302
1.00551
1.0191
1.06446
1.18366
1.55774
3.02266
2.88681
2.7304
1.00218
1.00293
1.0054
1.01873
1.06392
1.18115
1.54993
3.03311
2.88207
2.72594
1.00208
1.00279
1.00516
1.01814
1.06215
1.17868
1.54238
3.01502
2.87597
2.71722
1.00196
1.00257
1.00487
1.01732
1.06021
1.17418
1.52863
2.99835
2.86687
2.69821
1.00178
1.00225
1.00449
1.01621
1.05783
1.16734
1.50652
2.96449
2.85364
2.67925
1.00135
1.00168
1.00382
1.01469
1.05424
1.15902
1.48028
2.91768
2.83214
2.64064
1.00069
1.00087
1.00289
1.01273
1.04967
1.14778
1.44479
2.83686
2.79725
2.59697
0.999877
0.999851
1.00173
1.01031
1.04376
1.1333
1.39539
2.71277
2.73131
2.52702
0.874712
0.834068
0.821354
0.816841
0.825171
0.890571
1.36067
2.32685
2.59336
2.61073
0.874694
0.834023
0.821326
0.816817
0.825052
0.891256
1.3608
2.34759
2.61338
2.52702
0.874812
0.833804
0.821338
0.816615
0.824913
0.886947
1.40685
2.24013
2.60115
2.52184
0.875129
0.833423
0.821351
0.816379
0.824411
0.885858
1.34979
2.29547
2.60923
2.51575
0.875292
0.833069
0.821284
0.816099
0.823662
0.885358
1.34564
2.27009
2.60987
2.50922
0.875694
0.832405
0.821258
0.815602
0.822685
0.881799
1.33457
2.22999
2.60465
2.50321
0.876219
0.831493
0.821194
0.814853
0.821483
0.874569
1.33186
2.17848
2.59153
2.4926
0.876498
0.830686
0.820813
0.814071
0.820182
0.869348
1.31184
2.11977
2.56148
2.46646
0.87675
0.829725
0.82024
0.813116
0.81872
0.863313
1.26801
2.11393
2.5329
2.43353
0.877056
0.828517
0.819504
0.811901
0.816728
0.856025
1.20706
2.07314
2.4859
2.361
0.878491
0.824008
0.817459
0.807626
0.809044
0.829628
1.01028
1.74761
2.23638
2.22267
0.876746
0.821636
0.811055
0.801197
0.799242
0.808933
0.862589
1.37253
1.80408
1.96556
0.868317
0.825053
0.79782
0.795171
0.7888
0.790124
0.798262
0.967518
1.34479
1.58679
0.873479
0.818145
0.798242
0.774341
0.771786
0.766112
0.766323
0.779368
0.932034
1.24263
0.870385
0.821183
0.795686
0.774235
0.76144
0.759683
0.756417
0.759026
0.77255
0.944574
0.86872
0.823063
0.794003
0.774925
0.757582
0.756638
0.753582
0.753971
0.760157
0.80486
0.871085
0.820346
0.795892
0.772446
0.756526
0.746585
0.746199
0.743259
0.746767
0.741565
0.872157
0.819123
0.796203
0.770823
0.756514
0.7437
0.744026
0.740337
0.73892
0.723575
0.872483
0.818382
0.795146
0.771934
0.753806
0.745226
0.738067
0.734869
0.723289
0.758908
0.869729
0.821077
0.794986
0.772851
0.754095
0.745448
0.735093
0.730694
0.709923
0.776045
0.997803
0.996438
0.998168
1.00329
1.02701
1.09013
1.27444
2.05577
2.49635
2.406
0.995831
0.990503
0.991297
0.994021
1.00765
1.05134
1.15177
1.58018
2.07737
2.16002
0.990706
0.9823
0.980467
0.981701
0.984304
0.998454
1.03225
1.18065
1.5893
1.79985
0.989607
0.982244
0.973653
0.965188
0.965334
0.966301
0.971074
0.986088
1.11541
1.19184
0.989099
0.981983
0.973339
0.961151
0.958207
0.959143
0.961751
0.972383
1.00009
1.10413
0.988804
0.981895
0.973061
0.960013
0.955404
0.956527
0.958066
0.965538
0.985572
1.05461
0.988438
0.982228
0.972646
0.960186
0.951353
0.949368
0.950344
0.95126
0.960803
0.969765
0.988677
0.982285
0.972584
0.959965
0.950537
0.947178
0.948043
0.948972
0.954806
0.96336
0.98836
0.982168
0.972467
0.959632
0.94973
0.945551
0.943222
0.942823
0.94329
0.956544
0.988108
0.981698
0.972044
0.959932
0.950139
0.944253
0.941132
0.940214
0.934876
0.948594
1.02851
1.03788
1.04424
1.05731
1.09207
1.17662
1.38124
2.18358
2.46174
2.4046
1.02744
1.03402
1.03998
1.0475
1.07071
1.12879
1.26406
1.76297
2.15296
2.209
1.02509
1.02948
1.03258
1.03548
1.04323
1.06527
1.11621
1.27886
1.52303
1.80944
1.02317
1.03024
1.02896
1.0265
1.02675
1.02987
1.03833
1.06129
1.09255
1.18654
1.02325
1.02993
1.02871
1.02408
1.02426
1.02494
1.03109
1.04717
1.08004
1.2032
1.02322
1.02987
1.02861
1.02351
1.02347
1.02394
1.02785
1.03983
1.06658
1.1531
1.02303
1.02976
1.02842
1.02291
1.02143
1.02213
1.02178
1.02442
1.0339
1.0551
1.02304
1.02971
1.02829
1.02262
1.02123
1.02151
1.02075
1.02227
1.02957
1.04667
1.02295
1.02963
1.02802
1.02211
1.02068
1.02007
1.01933
1.01889
1.02228
1.03167
1.02289
1.02963
1.02786
1.02197
1.02051
1.01931
1.01842
1.0175
1.02072
1.0326
1.02491
1.04526
1.06188
1.08477
1.13241
1.23648
1.47387
2.3133
2.52311
2.43423
1.02352
1.04285
1.05794
1.07442
1.10849
1.1819
1.34288
1.91418
2.24758
2.29112
1.02306
1.0382
1.05324
1.06575
1.07958
1.10954
1.17284
1.36978
1.63754
1.91518
1.02306
1.04119
1.04652
1.05695
1.07031
1.07918
1.08978
1.11372
1.14646
1.26104
1.0237
1.04058
1.04517
1.05665
1.06905
1.07499
1.08229
1.10021
1.1367
1.28304
1.02373
1.04058
1.04501
1.05632
1.06873
1.07378
1.07915
1.09296
1.12252
1.23198
1.02393
1.04016
1.04459
1.05597
1.06853
1.07234
1.0738
1.07743
1.08892
1.1163
1.02398
1.03981
1.04446
1.0562
1.0684
1.07173
1.07261
1.07518
1.08456
1.10625
1.02387
1.03956
1.04458
1.05627
1.06765
1.07085
1.07131
1.07255
1.07842
1.09047
1.02368
1.03985
1.0447
1.05591
1.06728
1.07068
1.07093
1.07192
1.07664
1.08737
1.01364
1.03497
1.05654
1.08465
1.14011
1.25721
1.51882
2.40203
2.54281
2.43525
1.01281
1.03317
1.05456
1.07527
1.1158
1.1999
1.37954
2.00159
2.29846
2.32466
1.01368
1.02915
1.05251
1.06949
1.08689
1.1221
1.19432
1.4173
1.70743
1.97013
1.01411
1.03557
1.04362
1.06022
1.08355
1.09603
1.10798
1.13281
1.16877
1.29514
1.01455
1.03537
1.04237
1.05994
1.08374
1.09262
1.10075
1.11986
1.15918
1.31897
1.01455
1.03542
1.04229
1.0595
1.08381
1.09201
1.09814
1.11283
1.14473
1.26829
1.01476
1.0351
1.04196
1.05917
1.08394
1.09204
1.09339
1.09724
1.11086
1.14308
1.01492
1.03462
1.04172
1.05959
1.08388
1.09147
1.09234
1.09508
1.10706
1.1324
1.01493
1.03426
1.04171
1.05993
1.08331
1.09081
1.09143
1.09259
1.10163
1.11615
1.01469
1.03466
1.04195
1.05947
1.08291
1.09078
1.09134
1.09243
1.10065
1.11311
1.01364
1.03497
1.05654
1.08466
1.14011
1.25721
1.51883
2.40212
2.54278
2.43531
1.01281
1.03317
1.05456
1.07527
1.1158
1.1999
1.37955
2.00163
2.29848
2.32469
1.01368
1.02915
1.05251
1.06949
1.08689
1.1221
1.19432
1.41731
1.70741
1.97012
1.01411
1.03557
1.04362
1.06022
1.08355
1.09603
1.10799
1.13281
1.16877
1.29512
1.01455
1.03537
1.04237
1.05994
1.08374
1.09262
1.10075
1.11985
1.15916
1.3189
1.01455
1.03542
1.04229
1.0595
1.08381
1.09201
1.09813
1.11281
1.14469
1.26818
1.01476
1.0351
1.04196
1.05916
1.08395
1.09203
1.09339
1.09723
1.11084
1.14303
1.01493
1.03458
1.04169
1.05963
1.08386
1.09145
1.09231
1.09502
1.10696
1.13225
1.01493
1.03423
1.0417
1.05997
1.08331
1.09083
1.09142
1.09254
1.10155
1.11608
1.01467
1.03465
1.04195
1.05947
1.08294
1.09081
1.09139
1.09238
1.10063
1.11325
1.02491
1.04526
1.06188
1.08477
1.13242
1.2365
1.4739
2.31357
2.52296
2.43453
1.02352
1.04285
1.05794
1.07442
1.10849
1.18191
1.34288
1.91441
2.2475
2.29124
1.02306
1.0382
1.05324
1.06575
1.07958
1.10953
1.17284
1.36977
1.63761
1.91513
1.02306
1.04119
1.04652
1.05695
1.07031
1.07918
1.08979
1.11371
1.14644
1.26095
1.0237
1.04058
1.04517
1.05665
1.06905
1.07499
1.08228
1.10019
1.13665
1.28289
1.02373
1.04058
1.04501
1.05632
1.06873
1.07377
1.07912
1.09289
1.12241
1.23107
1.02392
1.04015
1.04459
1.05596
1.06854
1.07233
1.07379
1.07741
1.08888
1.11625
1.02397
1.03973
1.04445
1.05627
1.06835
1.07168
1.07253
1.07505
1.08433
1.10583
1.02384
1.03952
1.04461
1.05635
1.06764
1.07088
1.07128
1.07242
1.07818
1.09009
1.02361
1.03988
1.04475
1.05595
1.06734
1.07076
1.07109
1.07206
1.07695
1.08803
1.02851
1.03788
1.04424
1.05731
1.09208
1.17664
1.38127
2.18403
2.46148
2.40522
1.02744
1.03402
1.03998
1.0475
1.07071
1.1288
1.26404
1.76354
2.15263
2.20926
1.02509
1.02948
1.03258
1.03548
1.04323
1.06527
1.11622
1.27878
1.52326
1.80948
1.02317
1.03024
1.02896
1.0265
1.02676
1.02988
1.03833
1.06128
1.09253
1.18635
1.02325
1.02993
1.02871
1.02408
1.02426
1.02494
1.03107
1.04714
1.07995
1.20335
1.02322
1.02987
1.02861
1.0235
1.02346
1.02393
1.0278
1.0397
1.0663
1.15208
1.02303
1.02975
1.02842
1.0229
1.02146
1.02214
1.02182
1.02449
1.03403
1.05529
1.02301
1.02963
1.02821
1.02257
1.0213
1.02153
1.02069
1.02224
1.02957
1.04623
1.02308
1.02959
1.0279
1.02217
1.02086
1.02026
1.01938
1.01855
1.02189
1.03037
1.02303
1.02963
1.02788
1.02208
1.02062
1.01949
1.01911
1.018
1.02053
1.03189
0.997805
0.99644
0.99817
1.0033
1.02702
1.09016
1.27453
2.05538
2.49726
2.40577
0.99583
0.990504
0.991299
0.994023
1.00765
1.05136
1.1518
1.58032
2.07766
2.16031
0.990706
0.982299
0.980467
0.981701
0.984302
0.998451
1.03224
1.18063
1.5894
1.79999
0.98961
0.982242
0.973651
0.965194
0.965337
0.966301
0.971074
0.986093
1.1155
1.19178
0.9891
0.981986
0.973331
0.961147
0.958199
0.959132
0.961734
0.972344
1
1.10382
0.988807
0.981906
0.973041
0.959998
0.955366
0.956508
0.958027
0.965388
0.985168
1.05316
0.988488
0.982194
0.972707
0.960216
0.951275
0.949418
0.950385
0.951469
0.961339
0.970558
0.988678
0.98157
0.972916
0.959971
0.95077
0.947085
0.948464
0.949213
0.956234
0.963846
0.989093
0.981242
0.97188
0.960675
0.949858
0.945924
0.944475
0.944909
0.945033
0.952687
0.988956
0.981191
0.972115
0.96064
0.949141
0.944911
0.943032
0.943947
0.940962
0.954706
0.878491
0.824013
0.81746
0.80763
0.809052
0.829658
1.01039
1.74869
2.2356
2.22199
0.876739
0.821643
0.811061
0.801194
0.799244
0.808941
0.862625
1.37226
1.80368
1.96506
0.868316
0.825052
0.797819
0.79517
0.788799
0.790121
0.79825
0.96749
1.34441
1.58643
0.873479
0.818146
0.798236
0.774348
0.771791
0.766105
0.76631
0.779361
0.931811
1.24199
0.870395
0.821154
0.795682
0.774253
0.761425
0.759659
0.756409
0.759018
0.772489
0.944048
0.868741
0.823039
0.793948
0.774953
0.757572
0.756595
0.753553
0.753888
0.759852
0.803731
0.871125
0.820422
0.795983
0.772183
0.756438
0.746757
0.74638
0.74343
0.747284
0.742647
0.871586
0.819421
0.79725
0.770701
0.756756
0.743448
0.744474
0.741928
0.743569
0.73695
0.869865
0.820088
0.797205
0.771572
0.757004
0.742838
0.739547
0.738236
0.732388
0.730455
0.868464
0.823271
0.794022
0.774546
0.754096
0.742815
0.736683
0.737211
0.722234
0.743242
2.10615
2.0005
2.01371
2.23792
2.05812
2.12186
2.12936
2.23125
2.36475
2.27391
2.00258
1.95339
2.10121
2.0889
2.24044
2.21031
2.28729
2.48845
2.43008
2.20381
1.8576
1.82039
1.84976
1.85722
1.838
1.78455
1.89081
1.95414
1.81481
1.81275
1.69858
1.76575
1.75294
1.70491
1.6985
1.59064
1.64499
1.62987
1.64502
1.66558
1.31449
1.63344
1.6918
1.67209
1.63152
1.64743
1.69442
1.68004
1.66596
1.57635
1.26899
1.34471
1.53524
1.60266
1.59804
1.65235
1.73802
1.61278
1.53724
1.48513
1.11858
1.27422
1.34911
1.37395
1.49347
1.51342
1.52269
1.49339
1.45646
1.42215
0.863558
1.36228
1.34472
1.40719
1.52209
1.51445
1.49585
1.48108
1.4206
1.37886
0.54528
1.34408
1.34409
1.46961
1.50094
1.52767
1.52046
1.48061
1.3933
1.35158
0.52871
1.17163
1.25883
1.47903
1.52776
1.53835
1.44733
1.39032
1.32133
1.29393
2.2998
2.23872
2.26973
2.55186
2.5705
2.58825
2.60912
2.72868
2.80818
2.5642
2.21024
2.20252
2.37463
2.38512
2.33106
2.27223
2.42531
2.62609
2.58691
2.33739
2.01873
2.09351
2.2056
2.1595
2.08803
2.08729
2.08064
2.0833
2.02451
1.94469
1.87733
1.9523
1.93334
1.92187
1.91455
1.87185
1.87483
1.8569
1.83365
1.79054
1.62782
1.81719
1.86197
1.85451
1.84906
1.86134
1.8577
1.82042
1.76813
1.68343
1.50104
1.6097
1.71744
1.74399
1.74935
1.80662
1.80956
1.73667
1.66667
1.61961
1.28266
1.49643
1.55731
1.62915
1.70235
1.7472
1.71279
1.6633
1.60847
1.55175
1.12737
1.42342
1.50156
1.62427
1.68571
1.70994
1.67399
1.64077
1.52582
1.45331
0.933557
1.23313
1.46308
1.5969
1.64453
1.64085
1.62197
1.56854
1.45047
1.39874
0.867325
1.15876
1.47395
1.62605
1.64394
1.64721
1.53475
1.46022
1.39053
1.34246
2.30682
2.26431
2.30775
2.59173
2.72682
2.64468
2.68049
2.85095
2.93281
2.67898
2.22087
2.23119
2.41532
2.41333
2.33713
2.29848
2.46871
2.67421
2.66221
2.43115
2.0227
2.16609
2.27692
2.23229
2.15612
2.15528
2.1315
2.12776
2.10086
1.99875
1.90925
1.98384
1.96604
1.96386
1.95585
1.95117
1.94258
1.93049
1.88111
1.83272
1.73145
1.87529
1.91055
1.90833
1.90843
1.93203
1.92445
1.88622
1.80268
1.73755
1.586
1.71607
1.79328
1.81593
1.83231
1.89905
1.86814
1.80072
1.71839
1.68482
1.41089
1.62142
1.67287
1.77912
1.80533
1.85408
1.78816
1.73392
1.65618
1.61458
1.28328
1.52477
1.61317
1.7386
1.79939
1.78433
1.74562
1.71304
1.58671
1.52897
1.13323
1.33732
1.54975
1.69526
1.75722
1.74173
1.70024
1.62397
1.50335
1.46733
1.04304
1.23361
1.48081
1.67476
1.72057
1.71982
1.61169
1.52422
1.45494
1.41839
2.34441
2.31999
2.37712
2.7179
2.62146
2.63651
2.70279
2.87075
2.97615
2.73722
2.27349
2.291
2.49375
2.49145
2.39874
2.37715
2.49156
2.65175
2.70509
2.499
2.10351
2.25793
2.37182
2.32104
2.26009
2.26023
2.23553
2.22501
2.18671
2.07412
2.00737
2.08086
2.06437
2.06379
2.05882
2.06948
2.04984
2.03237
1.9647
1.91503
1.8567
1.99084
2.01893
2.01448
2.01731
2.05436
2.0357
1.99223
1.90142
1.83552
1.68485
1.84157
1.92027
1.96209
1.97492
2.03842
1.9744
1.9017
1.82895
1.78857
1.52731
1.74638
1.80326
1.91169
1.96908
2.01668
1.92779
1.84244
1.76052
1.71144
1.41346
1.61943
1.71993
1.86616
1.95368
1.92202
1.86045
1.81611
1.68261
1.62813
1.25664
1.51006
1.68072
1.83406
1.89084
1.86829
1.81881
1.71409
1.59779
1.56673
1.21679
1.38661
1.57106
1.78734
1.82719
1.82832
1.72195
1.6138
1.54976
1.5127
2.35743
2.35074
2.42012
2.8
2.68294
2.69725
2.75656
2.91157
3.01611
2.64015
2.29736
2.32416
2.54252
2.54151
2.46324
2.45931
2.56663
2.70932
2.7514
2.50762
2.14865
2.31458
2.43641
2.3844
2.33688
2.35829
2.33094
2.31254
2.23182
2.13394
2.054
2.13042
2.12456
2.13119
2.13547
2.16894
2.13861
2.10495
2.00416
1.9651
1.92307
2.04927
2.0792
2.08556
2.09425
2.13394
2.10363
2.06102
1.95527
1.89455
1.7436
1.90449
1.99431
2.04225
2.05531
2.11958
2.03311
1.97319
1.89283
1.85323
1.58992
1.81388
1.88058
1.99836
2.06463
2.07296
2.00007
1.91618
1.82876
1.77867
1.48038
1.68038
1.78459
1.94038
2.0462
2.01253
1.93372
1.88439
1.75199
1.70095
1.31441
1.61362
1.74607
1.9188
1.98154
1.94974
1.8863
1.7724
1.66959
1.64252
1.29397
1.47969
1.63074
1.84654
1.88322
1.88646
1.78816
1.6788
1.62547
1.58765
2.3574
2.35077
2.42008
2.80026
2.68374
2.6983
2.75821
2.91071
3.01859
2.63843
2.29731
2.32412
2.54259
2.54194
2.46376
2.45993
2.5671
2.71329
2.76051
2.51204
2.14864
2.31435
2.43636
2.38487
2.33728
2.35865
2.3307
2.31239
2.23269
2.13404
2.05383
2.1304
2.12458
2.13142
2.13625
2.17012
2.13911
2.10606
2.00605
1.96582
1.9231
2.04899
2.07876
2.08695
2.09448
2.13425
2.10617
2.06367
1.95837
1.89741
1.74352
1.90477
1.99426
2.04052
2.05288
2.11774
2.03311
1.97281
1.89296
1.85541
1.58935
1.8121
1.87923
1.99566
2.0607
2.07402
1.99777
1.91353
1.82711
1.78083
1.47804
1.68571
1.78506
1.93975
2.0475
2.01485
1.93613
1.88431
1.75046
1.70295
1.31374
1.61708
1.73126
1.92338
1.99078
1.95723
1.88918
1.7673
1.66804
1.64403
1.29757
1.47644
1.61737
1.83589
1.87795
1.88548
1.78953
1.67433
1.62345
1.58759
2.34475
2.32044
2.37726
2.71783
2.61939
2.6355
2.70457
2.86822
2.97641
2.72303
2.27376
2.29128
2.49382
2.49254
2.40095
2.3777
2.49125
2.65296
2.70399
2.49869
2.10354
2.25787
2.37143
2.32147
2.26102
2.26001
2.23451
2.22497
2.18904
2.07339
2.00746
2.0807
2.06405
2.06399
2.06055
2.07321
2.05391
2.03676
1.97181
1.91564
1.85604
1.99106
2.01871
2.01663
2.02074
2.05633
2.04135
1.99978
1.91008
1.84251
1.6869
1.84167
1.91845
1.95943
1.97084
2.03367
1.97386
1.89912
1.82974
1.79468
1.52352
1.74263
1.80333
1.90846
1.9583
2.01021
1.92018
1.83506
1.75477
1.71614
1.40985
1.63756
1.7171
1.86112
1.95585
1.92807
1.86763
1.8164
1.67773
1.63515
1.25915
1.52218
1.63462
1.8452
1.91478
1.88714
1.82559
1.70206
1.59813
1.57594
1.22382
1.40225
1.54126
1.76636
1.81565
1.82537
1.72801
1.60707
1.5524
1.52117
2.30737
2.26472
2.30825
2.59108
2.71663
2.64382
2.68077
2.84878
2.93444
2.64907
2.2214
2.23133
2.41508
2.41494
2.33651
2.29686
2.46809
2.66475
2.65547
2.4301
2.02253
2.1663
2.27656
2.23297
2.15677
2.15376
2.12849
2.12526
2.10132
1.99748
1.91059
1.9828
1.9644
1.96326
1.95809
1.95514
1.94624
1.93503
1.89222
1.82979
1.72844
1.87884
1.91057
1.91168
1.91256
1.93474
1.93329
1.89888
1.81192
1.74129
1.58936
1.71094
1.79239
1.81485
1.82763
1.89197
1.86214
1.79936
1.71901
1.68781
1.41348
1.62077
1.67996
1.77585
1.79327
1.83677
1.77928
1.71718
1.64046
1.61704
1.28677
1.56203
1.61179
1.72868
1.79684
1.79336
1.75613
1.70669
1.56751
1.53293
1.1534
1.38918
1.47124
1.70095
1.78907
1.76965
1.71597
1.6001
1.49429
1.47388
1.07179
1.25734
1.43859
1.67669
1.72693
1.72482
1.62319
1.50548
1.45002
1.42376
2.29889
2.23732
2.26848
2.55045
2.55551
2.58024
2.60206
2.71795
2.80189
2.57784
2.20949
2.20109
2.37266
2.38707
2.33138
2.27211
2.41513
2.61125
2.58907
2.35183
2.01805
2.09332
2.20498
2.16049
2.08799
2.08549
2.07851
2.08482
2.03217
1.94298
1.87814
1.94998
1.93052
1.92127
1.91526
1.87986
1.88065
1.86403
1.84609
1.7889
1.62552
1.82029
1.86248
1.85732
1.84909
1.86562
1.87134
1.83433
1.77416
1.68269
1.50317
1.60123
1.71393
1.73986
1.74429
1.79522
1.799
1.73673
1.66769
1.61388
1.26464
1.49622
1.55755
1.65188
1.69646
1.72927
1.70527
1.64888
1.5963
1.55356
1.13342
1.47727
1.52439
1.61369
1.68072
1.71383
1.67531
1.62813
1.50572
1.45797
1.02445
1.33319
1.38611
1.57339
1.68051
1.68035
1.65015
1.53798
1.43632
1.40763
0.951297
1.14543
1.41009
1.65124
1.67571
1.66494
1.54314
1.4384
1.3887
1.35524
2.10534
2.00096
2.01499
2.24022
2.06101
2.11794
2.1217
2.20956
2.34681
2.28962
2.00248
1.9544
2.10121
2.09089
2.24098
2.21404
2.28769
2.44436
2.40909
2.19797
1.85734
1.82049
1.85084
1.85765
1.83725
1.78578
1.8885
1.97281
1.82008
1.81413
1.69832
1.76589
1.75293
1.7067
1.69683
1.59961
1.65814
1.65004
1.672
1.67049
1.3151
1.63484
1.69375
1.67515
1.63496
1.65523
1.71804
1.69926
1.67554
1.58076
1.27699
1.34478
1.5418
1.60081
1.5881
1.62549
1.72452
1.62506
1.53217
1.4652
1.10352
1.30255
1.32184
1.38517
1.4718
1.47136
1.52173
1.47638
1.44125
1.41195
0.911311
1.34367
1.33216
1.42994
1.52112
1.50722
1.50196
1.48335
1.41333
1.38529
0.761977
1.30053
1.31852
1.432
1.50255
1.55164
1.53834
1.49496
1.38293
1.36085
0.573664
1.15275
1.36456
1.48923
1.51594
1.50954
1.45986
1.37293
1.29942
1.29319
)
;

boundaryField
{
    inlet
    {
        type            fixedValue;
        value           uniform 1;
    }
    outlet
    {
        type            inletOutlet;
        inletValue      uniform 1;
        value           nonuniform List<scalar> 
100
(
2.27376
2.20387
1.81296
1.66558
1.57629
1.48512
1.42215
1.37886
1.35157
1.29392
2.56426
2.33743
1.94471
1.79053
1.68337
1.61959
1.55174
1.45329
1.39873
1.34245
2.67904
2.43122
1.99875
1.83271
1.73751
1.68479
1.61458
1.52897
1.46732
1.41838
2.73715
2.4991
2.07412
1.91502
1.83546
1.7886
1.71143
1.62813
1.56672
1.51269
2.64007
2.50772
2.13394
1.96507
1.89448
1.85332
1.77866
1.70095
1.64251
1.58764
2.63835
2.51213
2.13405
1.96579
1.89737
1.85548
1.78083
1.70294
1.64402
1.58759
2.72296
2.4988
2.07339
1.91562
1.84248
1.79473
1.71614
1.63515
1.57594
1.52117
2.64912
2.43018
1.99747
1.82977
1.74126
1.68785
1.61704
1.53292
1.47387
1.42375
2.57789
2.3519
1.94301
1.78887
1.68266
1.61388
1.55355
1.45796
1.40762
1.35523
2.28945
2.19814
1.8143
1.6705
1.58075
1.46513
1.41197
1.38529
1.36085
1.29318
)
;
    }
    top
    {
        type            symmetryPlane;
    }
    bottom
    {
        type            symmetryPlane;
    }
    step
    {
        type            zeroGradient;
    }
    defaultFaces
    {
        type            empty;
    }
}


// ************************************************************************* //
