/*--------------------------------*- C++ -*----------------------------------*\
  =========                 |
  \\      /  F ield         | OpenFOAM: The Open Source CFD Toolbox
   \\    /   O peration     | Website:  https://openfoam.org
    \\  /    A nd           | Version:  6.0
     \\/     M anipulation  |
\*---------------------------------------------------------------------------*/
FoamFile
{
    version     2.0;
    format      ascii;
    class       volScalarField;
    location    "2";
    object      T;
}
// * * * * * * * * * * * * * * * * * * * * * * * * * * * * * * * * * * * * * //

dimensions      [0 0 0 1 0 0 0];

internalField   nonuniform List<scalar> 
300
(
1.02285
0.902278
1.07258
1.18806
1.79417
2.60798
2.66358
2.6753
2.6953
2.7003
1.02274
0.902603
1.07235
1.18713
1.79149
2.60424
2.66095
2.6736
2.69508
2.69871
1.02252
0.90319
1.0718
1.18498
1.78617
2.59702
2.6551
2.6685
2.69281
2.69462
1.02216
0.904184
1.07085
1.18174
1.77741
2.58614
2.64768
2.6621
2.68858
2.68939
1.02164
0.905652
1.06947
1.17721
1.76499
2.57115
2.6359
2.65142
2.67781
2.6749
1.02096
0.907658
1.06756
1.1715
1.74812
2.55105
2.62308
2.64274
2.6693
2.66344
1.02011
0.910096
1.06515
1.1643
1.72717
2.52583
2.60299
2.62452
2.64984
2.63993
1.01893
0.91318
1.0622
1.1528
1.70102
2.49556
2.58689
2.61291
2.6365
2.61687
1.01676
0.920174
1.05717
1.1581
1.66368
2.4564
2.54969
2.58921
2.60865
2.58095
1.01722
0.910447
1.05573
1.10251
1.65446
2.42404
2.51575
2.55959
2.58286
2.53345
1.00878
0.940194
1.03759
1.04757
1.56584
2.2656
2.41555
2.45393
2.42165
2.36904
1.0037
1.01194
1.03207
1.07073
1.2952
1.77824
2.23791
2.37883
2.30385
2.27635
1.00281
1.0103
1.02194
1.06486
1.16922
1.39956
1.91492
2.23632
2.22996
2.17009
1.00503
1.00402
1.02701
0.970098
1.08727
1.16392
1.56258
1.93917
2.09859
2.08596
1.00142
1.00206
1.00781
0.986151
1.04744
1.04872
1.31335
1.65875
1.88699
1.93574
1.00043
1.00163
1.00169
1.00957
1.01265
1.03999
1.10613
1.22942
1.51568
1.70673
1.00014
1.00053
0.999217
1.00243
1.00327
1.01243
1.03321
1.06252
1.2048
1.39318
1.00005
1.00021
1.00033
1.00109
1.00195
1.00694
1.01225
1.03352
1.08824
1.21206
1.00007
1.00006
1.00039
1.00041
1.00217
1.00104
1.01182
1.00147
1.04768
1.06263
1.00005
1.00005
1.00032
1.0003
1.00212
1.00219
1.01195
1.00368
1.04113
1.07431
2.07902
2.04868
2.10245
2.18549
2.23289
2.28951
2.4257
2.47712
2.58278
2.71335
2.04936
1.99945
1.98456
1.9849
1.9903
2.00851
2.05275
2.09017
2.16934
2.21809
2.02836
1.94291
1.88428
1.8836
1.88018
1.86525
1.87168
1.90297
1.95839
1.97981
1.96783
1.90013
1.83429
1.83402
1.81924
1.79572
1.76891
1.77758
1.78098
1.81416
1.9185
1.86095
1.81609
1.81206
1.79398
1.77307
1.72087
1.68301
1.66008
1.66963
1.83224
1.85004
1.8346
1.83391
1.81177
1.7734
1.69204
1.61993
1.55011
1.55787
1.761
1.8115
1.8476
1.87534
1.8219
1.76415
1.6426
1.56318
1.48508
1.47525
1.66975
1.83109
1.85647
1.89026
1.8188
1.73666
1.609
1.52673
1.43098
1.40851
1.56424
1.85831
1.8852
1.86453
1.80106
1.71747
1.58607
1.49315
1.38761
1.36277
1.51374
1.90725
1.9325
1.89415
1.81723
1.70101
1.56267
1.46577
1.3641
1.3346
)
;

boundaryField
{
    inlet
    {
        type            fixedValue;
        value           uniform 1;
    }
    outlet
    {
        type            inletOutlet;
        inletValue      uniform 1;
        value           nonuniform List<scalar> 10(2.71322 2.21799 1.97977 1.8141 1.6696 1.55785 1.47522 1.40849 1.36278 1.33463);
    }
    top
    {
        type            symmetryPlane;
    }
    bottom
    {
        type            symmetryPlane;
    }
    step
    {
        type            zeroGradient;
    }
    defaultFaces
    {
        type            empty;
    }
}


// ************************************************************************* //
