/*--------------------------------*- C++ -*----------------------------------*\
  =========                 |
  \\      /  F ield         | OpenFOAM: The Open Source CFD Toolbox
   \\    /   O peration     | Website:  https://openfoam.org
    \\  /    A nd           | Version:  6.0
     \\/     M anipulation  |
\*---------------------------------------------------------------------------*/
FoamFile
{
    version     2.0;
    format      ascii;
    class       volVectorField;
    location    "2";
    object      U;
}
// * * * * * * * * * * * * * * * * * * * * * * * * * * * * * * * * * * * * * //

dimensions      [0 1 -1 0 0 0 0];

internalField   nonuniform List<vector> 
300
(
(3.00118 1.41961e-08 0)
(2.99422 4.36997e-05 0)
(3.00839 0.00015548 0)
(2.79783 -1.39151e-05 0)
(2.40126 0.00293673 0)
(1.64753 0.00584125 0)
(0.552192 0.0179407 0)
(0.360655 0.0304421 0)
(0.32876 0.0497759 0)
(0.262532 0.0556286 0)
(3.00119 5.7361e-06 0)
(2.99427 0.000149543 0)
(3.00839 0.000527751 0)
(2.79864 0.000235285 0)
(2.40362 0.00883148 0)
(1.65135 0.0191975 0)
(0.555025 0.0541961 0)
(0.359471 0.0823622 0)
(0.325068 0.11469 0)
(0.254689 0.112749 0)
(3.00123 8.50166e-06 0)
(2.9944 0.000264401 0)
(3.00845 0.000954533 0)
(2.80032 0.000659363 0)
(2.40959 0.0151461 0)
(1.66174 0.035788 0)
(0.565542 0.097636 0)
(0.363269 0.140554 0)
(0.322033 0.185196 0)
(0.244465 0.186427 0)
(3.00128 -7.75149e-06 0)
(2.9946 0.000351195 0)
(3.00855 0.00135361 0)
(2.80298 0.000896704 0)
(2.41982 0.0219828 0)
(1.68023 0.054632 0)
(0.58489 0.14559 0)
(0.373409 0.199934 0)
(0.322669 0.25402 0)
(0.235916 0.265345 0)
(3.00133 -4.22866e-05 0)
(2.99487 0.00040637 0)
(3.00868 0.00171702 0)
(2.80667 0.00101117 0)
(2.43451 0.0293494 0)
(1.70692 0.0750263 0)
(0.611693 0.196806 0)
(0.388324 0.25988 0)
(0.327252 0.321581 0)
(0.230336 0.345632 0)
(3.0014 -8.04677e-05 0)
(2.99521 0.000458218 0)
(3.00882 0.00210053 0)
(2.81152 0.00121738 0)
(2.45415 0.0369725 0)
(1.74293 0.0963433 0)
(0.645921 0.25035 0)
(0.407641 0.320875 0)
(0.336098 0.389889 0)
(0.228262 0.428886 0)
(3.00148 -0.00010384 0)
(2.99563 0.000572593 0)
(3.00901 0.00264401 0)
(2.8175 0.00140114 0)
(2.47886 0.0457699 0)
(1.78797 0.119665 0)
(0.687709 0.306012 0)
(0.431711 0.383525 0)
(0.35009 0.460386 0)
(0.230585 0.518171 0)
(3.00161 -8.31771e-05 0)
(2.99617 0.000772057 0)
(3.00919 0.0027414 0)
(2.82501 -0.00241686 0)
(2.51032 0.0503553 0)
(1.84298 0.140793 0)
(0.735044 0.361574 0)
(0.459513 0.447759 0)
(0.369926 0.534002 0)
(0.238368 0.617524 0)
(3.00178 0.000854507 0)
(2.99663 0.00286224 0)
(3.00821 0.00904223 0)
(2.83125 0.0229847 0)
(2.53018 0.043358 0)
(1.89468 0.179917 0)
(0.772904 0.417869 0)
(0.485808 0.513465 0)
(0.396123 0.610636 0)
(0.253492 0.733432 0)
(3.00267 8.32666e-05 0)
(2.99904 0.00124419 0)
(3.01505 0.00762493 0)
(2.83842 0.0158825 0)
(2.60365 0.0472183 0)
(2.00539 0.196692 0)
(0.857164 0.474208 0)
(0.531935 0.577767 0)
(0.436655 0.686941 0)
(0.28009 0.877756 0)
(3.0019 -0.00249995 0)
(2.99982 -0.00342249 0)
(3.0087 -0.00781875 0)
(2.8676 -0.0286499 0)
(2.70974 0.0711058 0)
(2.21264 0.172372 0)
(1.08322 0.601673 0)
(0.762473 0.722951 0)
(0.752253 0.833987 0)
(0.737721 1.04216 0)
(2.99827 -0.00168683 0)
(2.99134 -0.00215273 0)
(2.98659 -0.00593739 0)
(2.92383 -0.0175435 0)
(2.85676 0.0635922 0)
(2.5221 0.127297 0)
(1.46456 0.542688 0)
(1.01673 0.756513 0)
(0.984824 0.868575 0)
(1.04051 0.969583 0)
(2.9985 0.00055926 0)
(2.99393 -0.000371019 0)
(2.98845 0.00431214 0)
(2.95562 0.00277037 0)
(2.9289 0.0483957 0)
(2.69952 0.0949097 0)
(1.9655 0.380633 0)
(1.42566 0.73525 0)
(1.24216 0.874265 0)
(1.25292 0.959261 0)
(2.99797 0.000538257 0)
(2.99631 0.000555892 0)
(2.99079 0.00431203 0)
(2.98133 0.00672782 0)
(2.98465 0.032053 0)
(2.84807 0.0577679 0)
(2.4895 0.241223 0)
(1.96531 0.599447 0)
(1.61361 0.815662 0)
(1.53856 0.935267 0)
(2.99934 -6.27085e-05 0)
(2.99898 0.00145793 0)
(2.9967 0.00210999 0)
(2.9933 0.00727774 0)
(2.99558 0.012673 0)
(2.91729 0.0127699 0)
(2.82894 0.108182 0)
(2.53979 0.304876 0)
(2.00315 0.691246 0)
(1.83028 0.877138 0)
(2.99979 -5.92924e-06 0)
(2.99921 0.000454519 0)
(2.99854 0.00061243 0)
(2.9955 0.00264783 0)
(2.9923 0.00551283 0)
(2.97052 0.003561 0)
(2.9503 0.0609648 0)
(2.83427 0.117159 0)
(2.50275 0.395731 0)
(2.24505 0.671793 0)
(2.99993 6.8834e-05 0)
(2.99981 0.000124427 0)
(2.99963 0.0005774 0)
(2.99984 0.00107498 0)
(2.99682 0.00346597 0)
(2.98999 0.00586431 0)
(2.98867 0.022665 0)
(2.94206 0.0386833 0)
(2.85949 0.13902 0)
(2.6864 0.33438 0)
(2.99997 3.54182e-05 0)
(2.99989 2.83855e-05 0)
(2.99981 0.000137207 0)
(2.99935 0.000164736 0)
(2.99868 -4.11012e-06 0)
(2.99612 0.00176995 0)
(2.99436 0.00612624 0)
(2.97413 0.00871944 0)
(2.94867 0.0426272 0)
(2.86455 0.090732 0)
(2.99997 7.01315e-06 0)
(2.99995 1.30895e-05 0)
(2.99982 4.32448e-05 0)
(2.99966 1.8565e-05 0)
(2.99898 0.000303718 0)
(2.99819 0.000233151 0)
(2.99801 0.00188428 0)
(2.99019 0.000452064 0)
(2.98346 0.0126698 0)
(2.93763 0.0280146 0)
(2.99999 -4.17195e-06 0)
(2.99994 1.23564e-05 0)
(2.99982 -9.78954e-06 0)
(2.9997 1.21475e-05 0)
(2.99897 1.88033e-05 0)
(2.99823 6.56256e-06 0)
(2.99466 4.56804e-05 0)
(2.98845 -0.00252786 0)
(2.9865 -0.00128773 0)
(2.94092 -0.00038148 0)
(1.59134 0.867451 0)
(1.83082 0.564665 0)
(1.85664 0.309529 0)
(1.82617 0.0403933 0)
(1.78563 -0.117223 0)
(1.72246 -0.113942 0)
(1.66316 -0.0950335 0)
(1.62637 -0.0907853 0)
(1.63945 -0.0555665 0)
(1.77026 -0.0293488 0)
(1.65801 0.683397 0)
(1.871 0.294118 0)
(1.93195 0.0341195 0)
(1.94894 -0.159003 0)
(1.96342 -0.244315 0)
(1.95341 -0.254038 0)
(1.93398 -0.262564 0)
(1.92854 -0.213786 0)
(1.95251 -0.111454 0)
(2.0499 -0.0374747 0)
(1.67924 0.688354 0)
(1.90088 0.378875 0)
(2.00759 0.162689 0)
(2.04196 0.0193608 0)
(2.05719 -0.141367 0)
(2.0669 -0.312397 0)
(2.09314 -0.406663 0)
(2.1223 -0.362109 0)
(2.15457 -0.205954 0)
(2.23624 -0.0677272 0)
(1.74464 0.783405 0)
(1.93524 0.509026 0)
(2.04496 0.24963 0)
(2.08521 0.0259341 0)
(2.10934 -0.214086 0)
(2.14461 -0.422859 0)
(2.20093 -0.516157 0)
(2.26623 -0.490129 0)
(2.31641 -0.33462 0)
(2.38897 -0.124121 0)
(1.84074 0.851774 0)
(1.97261 0.580143 0)
(2.07387 0.292587 0)
(2.12073 0.0304159 0)
(2.15322 -0.239758 0)
(2.20702 -0.457664 0)
(2.28444 -0.554269 0)
(2.36798 -0.528323 0)
(2.4389 -0.412331 0)
(2.51688 -0.20781 0)
(1.97341 0.835467 0)
(2.0189 0.670895 0)
(2.1045 0.371059 0)
(2.15554 0.0497918 0)
(2.19329 -0.259229 0)
(2.25825 -0.465285 0)
(2.35041 -0.533488 0)
(2.44861 -0.501839 0)
(2.53078 -0.422654 0)
(2.59989 -0.28965 0)
(2.12645 0.776115 0)
(2.08046 0.685125 0)
(2.11943 0.413788 0)
(2.16807 0.056402 0)
(2.21949 -0.260728 0)
(2.30431 -0.425974 0)
(2.41076 -0.458316 0)
(2.51148 -0.430639 0)
(2.59611 -0.381991 0)
(2.66054 -0.295345 0)
(2.26113 0.721181 0)
(2.13162 0.606744 0)
(2.13404 0.34347 0)
(2.17079 0.0234191 0)
(2.24021 -0.222524 0)
(2.3424 -0.325029 0)
(2.45776 -0.345996 0)
(2.55766 -0.330458 0)
(2.64146 -0.298915 0)
(2.70207 -0.250205 0)
(2.36819 0.510185 0)
(2.16186 0.436783 0)
(2.15314 0.223228 0)
(2.19478 0.00196736 0)
(2.2737 -0.139663 0)
(2.38055 -0.187345 0)
(2.49472 -0.202821 0)
(2.59228 -0.200415 0)
(2.67402 -0.186303 0)
(2.73156 -0.163687 0)
(2.40594 0.128304 0)
(2.15491 0.18894 0)
(2.15083 0.12203 0)
(2.20081 0.0561889 0)
(2.29126 0.0108444 0)
(2.41186 -0.00113116 0)
(2.52155 -0.0120614 0)
(2.61643 -0.0200181 0)
(2.69714 -0.0244791 0)
(2.75348 -0.0236362 0)
)
;

boundaryField
{
    inlet
    {
        type            fixedValue;
        value           uniform (3 0 0);
    }
    outlet
    {
        type            inletOutlet;
        inletValue      uniform (3 0 0);
        value           nonuniform List<vector> 10((1.77026 -0.0293488 0) (2.0499 -0.0374747 0) (2.23624 -0.0677272 0) (2.38897 -0.124121 0) (2.51688 -0.20781 0) (2.59989 -0.28965 0) (2.66054 -0.295345 0) (2.70207 -0.250205 0) (2.73156 -0.163687 0) (2.75348 -0.0236362 0));
    }
    top
    {
        type            symmetryPlane;
    }
    bottom
    {
        type            symmetryPlane;
    }
    step
    {
        type            slip;
    }
    defaultFaces
    {
        type            empty;
    }
}


// ************************************************************************* //
