/*--------------------------------*- C++ -*----------------------------------*\
  =========                 |
  \\      /  F ield         | OpenFOAM: The Open Source CFD Toolbox
   \\    /   O peration     | Website:  https://openfoam.org
    \\  /    A nd           | Version:  6.0
     \\/     M anipulation  |
\*---------------------------------------------------------------------------*/
FoamFile
{
    version     2.0;
    format      ascii;
    class       volVectorField;
    location    "2";
    object      U;
}
// * * * * * * * * * * * * * * * * * * * * * * * * * * * * * * * * * * * * * //

dimensions      [0 1 -1 0 0 0 0];

internalField   nonuniform List<vector> 
3000
(
(3.09252 7.08225e-07 -0.0762565)
(3.11488 1.49483e-05 -0.0830197)
(3.1186 6.65556e-05 -0.0851286)
(3.11433 0.000120533 -0.0864812)
(3.09457 0.000164679 -0.0910828)
(3.00303 -0.000148366 -0.103807)
(2.56529 0.00231959 -0.158355)
(1.57024 0.00775804 -0.281863)
(0.280966 0.0266505 -0.318088)
(0.281818 0.0484514 -0.311375)
(3.09252 3.23695e-05 -0.0762508)
(3.1149 6.05454e-05 -0.0830242)
(3.11864 0.000257074 -0.0851223)
(3.11436 0.000502429 -0.0864734)
(3.09449 0.000938487 -0.0910258)
(3.00298 0.00186853 -0.103984)
(2.57121 0.00849481 -0.158)
(1.58381 0.0298638 -0.278758)
(0.340442 0.0626909 -0.316647)
(0.33189 0.0950402 -0.301833)
(3.09253 8.75855e-05 -0.0762623)
(3.11494 0.000125966 -0.0829955)
(3.11873 0.000486567 -0.0851329)
(3.11452 0.000961803 -0.0864442)
(3.09495 0.00189396 -0.0909899)
(3.00466 0.00465571 -0.103477)
(2.57867 0.0146531 -0.161918)
(1.60005 0.0375568 -0.27148)
(0.325952 0.0875097 -0.316488)
(0.335454 0.130788 -0.296493)
(3.09256 0.000135215 -0.0762817)
(3.11499 0.000196639 -0.0829543)
(3.11886 0.000735986 -0.0851407)
(3.11474 0.00144293 -0.0864062)
(3.0955 0.00276984 -0.0908892)
(3.00662 0.00630755 -0.103348)
(2.5852 0.0201522 -0.158151)
(1.61321 0.0420113 -0.272287)
(0.29627 0.131979 -0.317931)
(0.327122 0.186385 -0.29546)
(3.09259 0.000198421 -0.0763052)
(3.11508 0.000285551 -0.082895)
(3.11907 0.00108195 -0.0851532)
(3.11507 0.0021203 -0.0863484)
(3.09626 0.004038 -0.0907598)
(3.009 0.00895323 -0.102936)
(2.59467 0.0283506 -0.158042)
(1.62384 0.0635378 -0.270368)
(0.308735 0.199552 -0.314389)
(0.330838 0.266017 -0.292559)
(3.09265 0.000294685 -0.0763414)
(3.1152 0.000424907 -0.0828063)
(3.11937 0.00158893 -0.0851714)
(3.11554 0.00308963 -0.0862685)
(3.09734 0.00584612 -0.0905737)
(3.01248 0.0132295 -0.102456)
(2.6085 0.0399426 -0.156107)
(1.65735 0.0917894 -0.267152)
(0.330263 0.281237 -0.310771)
(0.340277 0.361868 -0.288641)
(3.09272 0.000413706 -0.0763884)
(3.11539 0.000689694 -0.0826782)
(3.1198 0.00227631 -0.0852038)
(3.11622 0.00423414 -0.0861602)
(3.09899 0.00761557 -0.0903615)
(3.01784 0.0163112 -0.101422)
(2.62748 0.0522763 -0.156375)
(1.69997 0.119305 -0.260811)
(0.365498 0.373033 -0.305694)
(0.354511 0.473749 -0.283829)
(3.09285 0.000571455 -0.0763892)
(3.11567 0.00107738 -0.0825569)
(3.12035 0.00313727 -0.0852106)
(3.11697 0.00558885 -0.0860578)
(3.10056 0.00958838 -0.0900623)
(3.0237 0.0194321 -0.100756)
(2.65536 0.0656256 -0.151564)
(1.76265 0.143875 -0.254999)
(0.416553 0.476614 -0.298886)
(0.373654 0.604137 -0.277124)
(3.09304 0.000761453 -0.0763735)
(3.11605 0.00146746 -0.0824004)
(3.12106 0.00410924 -0.0852162)
(3.11793 0.00723068 -0.0859343)
(3.10262 0.0123142 -0.0897158)
(3.03141 0.0250356 -0.0996563)
(2.6906 0.0845498 -0.146618)
(1.8214 0.189208 -0.250945)
(0.475937 0.610957 -0.291957)
(0.39652 0.768127 -0.269574)
(3.09328 0.000984866 -0.0763557)
(3.11654 0.00187068 -0.0822055)
(3.12195 0.00525304 -0.0852292)
(3.11915 0.00926674 -0.0857858)
(3.10528 0.0158931 -0.0892719)
(3.04186 0.0324749 -0.0982958)
(2.74134 0.105148 -0.139446)
(1.91819 0.246505 -0.242855)
(0.555157 0.771499 -0.282682)
(0.411847 0.974042 -0.258171)
(3.00391 3.38507e-06 -0.0133182)
(3.01126 2.5873e-05 -0.0199169)
(3.0111 8.78433e-05 -0.0219613)
(3.00259 0.000227548 -0.0240832)
(2.96837 0.000516659 -0.0277367)
(2.86677 0.00119459 -0.0341796)
(2.51393 0.00304902 -0.0487236)
(0.782841 0.0103531 -0.103713)
(-0.359708 0.0220501 -0.100379)
(0.491379 -0.0829718 -0.0909073)
(3.00392 3.88321e-05 -0.013318)
(3.01129 0.000116284 -0.0199163)
(3.01116 0.00030757 -0.0219607)
(3.00273 0.000729003 -0.0240778)
(2.96888 0.00160974 -0.0277077)
(2.86657 0.0035342 -0.0341763)
(2.51338 0.00868313 -0.0487844)
(0.793664 0.028821 -0.103511)
(-0.425699 0.0714814 -0.101873)
(0.0783365 0.0446053 -0.0942171)
(3.00394 9.83212e-05 -0.0133209)
(3.01136 0.000245456 -0.0199132)
(3.01124 0.000580093 -0.0219627)
(3.00294 0.00130049 -0.0240722)
(2.96929 0.00279853 -0.0276954)
(2.86836 0.00596827 -0.0341176)
(2.51851 0.0139413 -0.0485698)
(0.84941 0.0475244 -0.103028)
(-0.399109 0.13037 -0.1019)
(0.0848638 0.167878 -0.0929304)
(3.00397 0.000151345 -0.013326)
(3.01147 0.00037917 -0.0199076)
(3.01138 0.000891861 -0.0219639)
(3.00326 0.00198244 -0.0240607)
(2.97002 0.00421439 -0.0276598)
(2.87023 0.00891832 -0.0340347)
(2.52508 0.0205684 -0.0483346)
(0.840693 0.0710657 -0.102837)
(-0.394552 0.199409 -0.100752)
(0.0854478 0.284958 -0.0910069)
(3.00402 0.00022479 -0.0133333)
(3.01163 0.000564585 -0.0198978)
(3.01158 0.00132168 -0.0219649)
(3.00375 0.00290324 -0.0240443)
(2.97117 0.00608666 -0.0276063)
(2.87301 0.0127326 -0.0339076)
(2.53383 0.0293202 -0.0479176)
(0.88245 0.098338 -0.101785)
(-0.360654 0.276464 -0.0993311)
(0.0828048 0.398309 -0.0890308)
(3.00409 0.000358062 -0.0133441)
(3.01188 0.000870518 -0.0198803)
(3.01187 0.00194586 -0.0219669)
(3.00443 0.0041273 -0.0240246)
(2.97274 0.00848232 -0.0275375)
(2.87681 0.0175547 -0.0337381)
(2.54594 0.0403348 -0.0473867)
(0.926493 0.132903 -0.100726)
(-0.317758 0.363993 -0.0977566)
(0.0846476 0.514558 -0.0868021)
(3.00422 0.000666808 -0.0133593)
(3.01222 0.00150341 -0.0198511)
(3.01228 0.00293833 -0.021984)
(3.00534 0.00570481 -0.024008)
(2.9747 0.0113174 -0.0274638)
(2.88311 0.02327 -0.0334786)
(2.56539 0.0537863 -0.046535)
(1.01743 0.173387 -0.0988547)
(-0.248251 0.462457 -0.0960834)
(0.0868145 0.63986 -0.0844375)
(3.00452 0.00112582 -0.0133759)
(3.01269 0.00241107 -0.0198096)
(3.01287 0.00426436 -0.0220277)
(3.00654 0.00765212 -0.0239857)
(2.97758 0.014668 -0.0273202)
(2.88988 0.0301093 -0.033144)
(2.58683 0.0702529 -0.0456339)
(1.11439 0.223675 -0.0967618)
(-0.166518 0.577051 -0.0941785)
(0.0906134 0.77911 -0.0816709)
(3.005 0.00153552 -0.0133971)
(3.01334 0.00323198 -0.0197573)
(3.01364 0.00556459 -0.0220908)
(3.00803 0.00974938 -0.0239595)
(2.98113 0.0185231 -0.0271417)
(2.89941 0.0382323 -0.0326785)
(2.61703 0.0906213 -0.0443509)
(1.24596 0.28762 -0.0931481)
(-0.0651685 0.716 -0.091954)
(0.0942588 0.940019 -0.0789257)
(3.00559 0.00189863 -0.0134244)
(3.01414 0.00397532 -0.0196965)
(3.01459 0.00682895 -0.0221766)
(3.00986 0.0119146 -0.0239341)
(2.98566 0.0225119 -0.0269231)
(2.91177 0.0463845 -0.0321108)
(2.65848 0.108551 -0.042729)
(1.46014 0.332565 -0.0883756)
(0.0764228 0.867311 -0.0893455)
(0.102383 1.12405 -0.0762978)
(2.97277 2.05757e-06 0.000720344)
(2.96468 2.57095e-05 -0.00226329)
(2.95797 8.74578e-05 -0.0034393)
(2.93813 0.000225288 -0.00515282)
(2.88831 0.000526855 -0.00770987)
(2.76058 0.00121396 -0.0118537)
(2.36786 0.00289861 -0.0204745)
(0.822481 0.00878953 -0.0441101)
(-0.375785 0.0252194 -0.045971)
(-0.272058 0.0437143 -0.0455932)
(2.97278 1.503e-05 0.000720079)
(2.96471 0.000100641 -0.00226347)
(2.95804 0.00028901 -0.0034401)
(2.93827 0.000694019 -0.00515398)
(2.88862 0.00157515 -0.00771065)
(2.76109 0.00357249 -0.0118653)
(2.36909 0.00856939 -0.0204812)
(0.825963 0.0256431 -0.0441203)
(-0.380463 0.071257 -0.0460223)
(-0.217469 0.116164 -0.0440607)
(2.9728 3.52348e-05 0.000716919)
(2.96477 0.000207464 -0.00226391)
(2.95817 0.000541977 -0.00344506)
(2.93854 0.00123544 -0.00515585)
(2.8892 0.00273434 -0.00770673)
(2.76252 0.00613475 -0.0118436)
(2.37328 0.0147926 -0.0204252)
(0.837749 0.0457152 -0.0439774)
(-0.371962 0.135441 -0.0457823)
(-0.199379 0.22486 -0.0428778)
(2.97284 5.2341e-05 0.000711424)
(2.96487 0.00034027 -0.00226353)
(2.95837 0.000862936 -0.00345354)
(2.93897 0.00191673 -0.00515764)
(2.89014 0.00417594 -0.0076956)
(2.76482 0.00931256 -0.0118068)
(2.38086 0.0224517 -0.0202809)
(0.866366 0.0696716 -0.0437464)
(-0.345718 0.209929 -0.0451783)
(-0.181864 0.342773 -0.041642)
(2.9729 7.83265e-05 0.000703465)
(2.96503 0.000545313 -0.00226091)
(2.95868 0.00131991 -0.00346639)
(2.93961 0.00281884 -0.00516132)
(2.89155 0.00599429 -0.00768007)
(2.7682 0.0132238 -0.0117491)
(2.39163 0.0317653 -0.0200722)
(0.908697 0.096971 -0.0433182)
(-0.305988 0.288797 -0.0444793)
(-0.161174 0.455735 -0.0402831)
(2.97301 0.000138719 0.000691435)
(2.96527 0.000894037 -0.00225403)
(2.95912 0.00188365 -0.00348717)
(2.94049 0.00386503 -0.00517006)
(2.89349 0.00812749 -0.00766202)
(2.77295 0.0179094 -0.0116722)
(2.40665 0.0430591 -0.0197827)
(0.966047 0.129178 -0.0426957)
(-0.253981 0.37327 -0.0437491)
(-0.136978 0.569621 -0.0389892)
(2.97318 0.000301589 0.000672302)
(2.96559 0.00151543 -0.00224071)
(2.95966 0.0024943 -0.00352622)
(2.94162 0.00493674 -0.00519018)
(2.89603 0.010528 -0.0076442)
(2.7794 0.023575 -0.0115648)
(2.42681 0.0570379 -0.0194187)
(1.04005 0.168197 -0.0418839)
(-0.189541 0.467312 -0.0431034)
(-0.108256 0.689178 -0.0375053)
(2.97347 0.000549042 0.000632816)
(2.96597 0.00232436 -0.00222701)
(2.96018 0.00328422 -0.00359565)
(2.94299 0.0062645 -0.0052244)
(2.89927 0.0134393 -0.0076242)
(2.78744 0.0304411 -0.0114525)
(2.45174 0.0740472 -0.0189947)
(1.13306 0.214748 -0.0409463)
(-0.111362 0.574229 -0.0423939)
(-0.0760405 0.818079 -0.0361644)
(2.97389 0.000768474 0.000572217)
(2.96644 0.00304504 -0.00221499)
(2.9608 0.00414656 -0.00369495)
(2.94468 0.00779968 -0.00527183)
(2.90342 0.016764 -0.00759902)
(2.79799 0.0382498 -0.0113043)
(2.48423 0.0938165 -0.018482)
(1.25324 0.269709 -0.0398508)
(-0.0164886 0.700051 -0.0418473)
(-0.0407918 0.962592 -0.0347105)
(2.9744 0.000951118 0.000496639)
(2.967 0.00364634 -0.00220443)
(2.96153 0.00501156 -0.0038223)
(2.94677 0.00943409 -0.00533372)
(2.9086 0.0202229 -0.00757224)
(2.81147 0.0460074 -0.0111424)
(2.52658 0.112124 -0.0179267)
(1.41777 0.315954 -0.0387856)
(0.103986 0.843542 -0.0416643)
(-0.00346053 1.12715 -0.0338076)
(2.97615 1.08769e-06 0.00240988)
(2.95971 2.32409e-05 0.00255278)
(2.94442 7.76526e-05 0.00200558)
(2.91371 0.000203682 0.00106277)
(2.84772 0.000492688 -0.000537138)
(2.69299 0.00115372 -0.00320062)
(2.24949 0.00279463 -0.00827731)
(0.62668 0.00827751 -0.0204935)
(-0.583087 0.0226047 -0.0222072)
(-0.375153 0.0610194 -0.0209144)
(2.97616 3.43952e-06 0.0024101)
(2.95974 8.40641e-05 0.00255252)
(2.94448 0.000217569 0.00200139)
(2.91385 0.000591745 0.00105915)
(2.84805 0.00148428 -0.000540213)
(2.69372 0.00354525 -0.0032028)
(2.25144 0.0086936 -0.00827533)
(0.629222 0.0258053 -0.0204951)
(-0.584981 0.0707876 -0.022208)
(-0.352224 0.151117 -0.0204745)
(2.97618 5.81711e-06 0.00241013)
(2.95978 0.000173436 0.00255179)
(2.94459 0.00037164 0.00198962)
(2.91413 0.0010169 0.00105203)
(2.8487 0.00259554 -0.000540849)
(2.69529 0.00626985 -0.00319253)
(2.25599 0.0155745 -0.00824341)
(0.641213 0.047352 -0.0204191)
(-0.573378 0.138802 -0.0220929)
(-0.324041 0.269542 -0.0197008)
(2.97622 8.13219e-06 0.00241042)
(2.95986 0.000303514 0.00255112)
(2.94476 0.000600806 0.00196872)
(2.91458 0.00157534 0.0010397)
(2.84975 0.00396141 -0.000541461)
(2.69788 0.00953409 -0.0031749)
(2.26398 0.0237798 -0.00818211)
(0.668888 0.0730125 -0.0203032)
(-0.544738 0.217964 -0.0218636)
(-0.297565 0.391544 -0.0189307)
(2.97629 1.41025e-05 0.00241146)
(2.95998 0.000513709 0.00255099)
(2.94501 0.000931465 0.00193586)
(2.91523 0.00229134 0.00101955)
(2.8513 0.00562391 -0.000544298)
(2.70172 0.0134468 -0.00315175)
(2.27599 0.0335616 -0.00808631)
(0.712235 0.102435 -0.0201093)
(-0.50193 0.300244 -0.0215819)
(-0.268991 0.507461 -0.0181258)
(2.9764 3.34501e-05 0.00241333)
(2.96017 0.000857021 0.00255177)
(2.94535 0.00131047 0.00188345)
(2.9161 0.00304838 0.000987141)
(2.85342 0.00747271 -0.000550232)
(2.7071 0.0180144 -0.0031192)
(2.29282 0.0452061 -0.00794997)
(0.770983 0.136238 -0.0198208)
(-0.447058 0.385714 -0.0213281)
(-0.238074 0.623054 -0.0174017)
(2.97658 8.45987e-05 0.00241493)
(2.96041 0.00137565 0.00255216)
(2.94573 0.00165008 0.00181308)
(2.91723 0.00368071 0.000941371)
(2.85624 0.0093619 -0.000562424)
(2.71431 0.0232539 -0.00308206)
(2.31494 0.0591055 -0.00778553)
(0.845948 0.175599 -0.0194708)
(-0.380294 0.479037 -0.0211296)
(-0.205049 0.742643 -0.0165772)
(2.97687 0.000161229 0.00241063)
(2.96068 0.00198626 0.0025469)
(2.9461 0.0020295 0.001735)
(2.91862 0.00440185 0.000884489)
(2.8599 0.0115879 -0.000585493)
(2.72365 0.0295109 -0.00305165)
(2.34289 0.0756982 -0.00761011)
(0.939118 0.221306 -0.019096)
(-0.300754 0.583508 -0.0209577)
(-0.170452 0.870302 -0.0158829)
(2.97726 0.000230906 0.00239967)
(2.96101 0.00252432 0.00253559)
(2.94652 0.00243388 0.00163328)
(2.92036 0.00529773 0.000810262)
(2.86458 0.0142366 -0.000616703)
(2.73562 0.0367148 -0.00301862)
(2.37813 0.0947201 -0.00742165)
(1.05589 0.274122 -0.0187187)
(-0.206154 0.70313 -0.0208825)
(-0.134948 1.00952 -0.0149693)
(2.97773 0.000282418 0.00238394)
(2.96139 0.00292949 0.00251881)
(2.947 0.00287508 0.00150864)
(2.92249 0.00641159 0.000719926)
(2.87038 0.0173028 -0.000654658)
(2.75063 0.0445732 -0.00298515)
(2.42295 0.114399 -0.00723605)
(1.21194 0.325269 -0.0184547)
(-0.0910926 0.847469 -0.0213528)
(-0.0979008 1.16237 -0.0143508)
(2.98598 4.0215e-06 0.00102734)
(2.96968 2.50493e-05 0.00165162)
(2.95066 4.36883e-05 0.00141838)
(2.91426 0.00014821 0.00104651)
(2.84017 0.000422956 0.000468212)
(2.67123 0.00108172 -0.000443728)
(2.19437 0.00270653 -0.00213557)
(0.500793 0.00798937 -0.00612127)
(-0.71708 0.0212132 -0.00668957)
(-0.475532 0.0744767 -0.00613697)
(2.98599 1.40683e-05 0.00102764)
(2.9697 8.83832e-05 0.00165158)
(2.9507 0.000109969 0.00141491)
(2.91439 0.000413941 0.00104446)
(2.84048 0.0012709 0.000467584)
(2.67196 0.00336283 -0.000442174)
(2.19639 0.00857721 -0.0021334)
(0.502956 0.0256994 -0.00611881)
(-0.715347 0.0705042 -0.00669603)
(-0.442119 0.170915 -0.00604189)
(2.98601 2.91448e-05 0.00102846)
(2.96972 0.000183739 0.00165127)
(2.95078 0.00017606 0.00140769)
(2.91466 0.000687511 0.00103979)
(2.84116 0.00220796 0.000466438)
(2.67358 0.00596877 -0.000437871)
(2.20111 0.0155392 -0.00212531)
(0.514996 0.0480753 -0.00609178)
(-0.701104 0.140147 -0.00666219)
(-0.409066 0.295854 -0.00579093)
(2.98605 5.25678e-05 0.00103007)
(2.96975 0.000331154 0.00165078)
(2.95088 0.000295174 0.00139545)
(2.91509 0.00104735 0.00103151)
(2.84225 0.00333023 0.00046379)
(2.67625 0.00900927 -0.000432407)
(2.2094 0.0237758 -0.0021101)
(0.543863 0.0747555 -0.0060439)
(-0.669687 0.220889 -0.00659377)
(-0.378123 0.422307 -0.0055194)
(2.98612 8.99138e-05 0.00103296)
(2.9698 0.000568105 0.00165016)
(2.95103 0.000459949 0.00137612)
(2.91571 0.0014655 0.00101802)
(2.84382 0.00463007 0.000458496)
(2.68022 0.012588 -0.000427267)
(2.22192 0.0335315 -0.00208261)
(0.589071 0.105236 -0.0059702)
(-0.623817 0.304027 -0.00653294)
(-0.343306 0.54168 -0.00523153)
(2.98624 0.000145857 0.00103775)
(2.96988 0.000923564 0.00164914)
(2.95121 0.00063215 0.00134567)
(2.91653 0.00186067 0.000996816)
(2.84599 0.00603129 0.000450166)
(2.68574 0.0167218 -0.000419906)
(2.23938 0.0449637 -0.00204382)
(0.649802 0.139556 -0.0058639)
(-0.566087 0.389294 -0.00648022)
(-0.306704 0.659461 -0.00498889)
(2.98642 0.000218636 0.00104452)
(2.96997 0.00138657 0.00164627)
(2.95139 0.00076904 0.00130593)
(2.91758 0.00217799 0.000968611)
(2.84885 0.00750219 0.000437869)
(2.6931 0.0214678 -0.000413647)
(2.26212 0.0584152 -0.00199948)
(0.724897 0.178801 -0.0057622)
(-0.497576 0.481909 -0.00646111)
(-0.267328 0.781206 -0.00469283)
(2.9867 0.000297373 0.00105222)
(2.97008 0.00188847 0.00163879)
(2.95153 0.000861324 0.00126268)
(2.91887 0.00247975 0.000938286)
(2.85253 0.00919907 0.00042304)
(2.70266 0.0271186 -0.000410627)
(2.29108 0.0743963 -0.00195548)
(0.818429 0.224044 -0.00566383)
(-0.417315 0.585526 -0.00644582)
(-0.228041 0.910315 -0.00447058)
(2.98705 0.000365343 0.00106044)
(2.97018 0.00232095 0.00162692)
(2.95165 0.00090043 0.00120793)
(2.92048 0.00282792 0.000899811)
(2.85722 0.0112044 0.000403868)
(2.71486 0.0336825 -0.000408941)
(2.32729 0.0928003 -0.00191082)
(0.935364 0.275689 -0.00556972)
(-0.321741 0.701077 -0.00644867)
(-0.188016 1.05095 -0.00406383)
(2.98747 0.000410931 0.00106905)
(2.97027 0.00261646 0.00161111)
(2.95178 0.00101059 0.00114196)
(2.92247 0.00348897 0.000853884)
(2.86304 0.0138626 0.000381826)
(2.73006 0.041504 -0.000406568)
(2.37261 0.113511 -0.00186759)
(1.08466 0.330314 -0.00553749)
(-0.205928 0.847235 -0.00672536)
(-0.143334 1.217 -0.0037049)
(2.98598 4.08526e-06 -0.00102746)
(2.96968 2.55286e-05 -0.00165243)
(2.95066 4.44467e-05 -0.0014194)
(2.91427 0.000149476 -0.00104791)
(2.84017 0.000425137 -0.000470313)
(2.67124 0.0010861 0.000440212)
(2.19448 0.00271434 0.00213077)
(0.50106 0.00797497 0.00612429)
(-0.716949 0.021144 0.00669013)
(-0.475636 0.0745524 0.00613099)
(2.98599 1.42445e-05 -0.00102771)
(2.9697 8.95717e-05 -0.00165218)
(2.9507 0.000111083 -0.00141575)
(2.9144 0.000415506 -0.00104561)
(2.84049 0.00127358 -0.000469136)
(2.67198 0.00336766 0.00044025)
(2.19649 0.00858295 0.00213305)
(0.503169 0.0256744 0.00613254)
(-0.715244 0.0703811 0.00669499)
(-0.442187 0.170958 0.00603622)
(2.98601 2.92964e-05 -0.00102845)
(2.96972 0.000184833 -0.00165164)
(2.95078 0.000176889 -0.00140851)
(2.91466 0.000688641 -0.0010407)
(2.84116 0.00220982 -0.000467374)
(2.67359 0.00597148 0.000437353)
(2.20121 0.0155415 0.00212814)
(0.515152 0.0480454 0.00611461)
(-0.701045 0.140004 0.00665991)
(-0.409147 0.295826 0.00578986)
(2.98605 5.2605e-05 -0.00103002)
(2.96975 0.000331402 -0.00165102)
(2.95088 0.000295517 -0.00139624)
(2.91509 0.00104802 -0.00103235)
(2.84225 0.00333143 -0.000464531)
(2.67627 0.00901053 0.000432592)
(2.20948 0.0237752 0.00211538)
(0.543956 0.0747112 0.00607171)
(-0.669673 0.220739 0.00658656)
(-0.378254 0.422222 0.00551214)
(2.98612 8.98394e-05 -0.00103292)
(2.9698 0.000567519 -0.00165047)
(2.95103 0.000459564 -0.00137685)
(2.91571 0.0014647 -0.00101869)
(2.84383 0.00462809 -0.000458906)
(2.68023 0.0125817 0.000427776)
(2.222 0.0335096 0.00208761)
(0.589112 0.105153 0.00599269)
(-0.623847 0.303884 0.00652086)
(-0.343465 0.541559 0.00522001)
(2.98624 0.000145705 -0.00103776)
(2.96988 0.000922594 -0.00164955)
(2.95121 0.000631675 -0.00134629)
(2.91653 0.00185927 -0.000997435)
(2.84599 0.00602717 -0.000450742)
(2.68575 0.0167102 0.000419541)
(2.23943 0.0449285 0.00204524)
(0.649816 0.139444 0.00587256)
(-0.566141 0.389174 0.00646571)
(-0.30687 0.659341 0.00497732)
(2.98642 0.000218497 -0.00104456)
(2.96997 0.00138577 -0.00164677)
(2.95139 0.000768611 -0.00130632)
(2.91758 0.00217637 -0.00096913)
(2.84885 0.00749698 -0.00043866)
(2.69311 0.0214534 0.000412243)
(2.26215 0.0583739 0.00199749)
(0.724897 0.178685 0.00575906)
(-0.497633 0.481809 0.00644586)
(-0.267505 0.781081 0.00468416)
(2.9867 0.000297303 -0.00105229)
(2.97008 0.00188819 -0.00163926)
(2.95153 0.000861046 -0.00126296)
(2.91887 0.00247842 -0.00093889)
(2.85253 0.00919446 -0.000424295)
(2.70266 0.0271055 0.000408024)
(2.29108 0.0743589 0.00195001)
(0.818417 0.223942 0.00565073)
(-0.417364 0.585443 0.00642972)
(-0.228214 0.910197 0.00446279)
(2.98705 0.000365349 -0.00106051)
(2.97018 0.00232107 -0.00162732)
(2.95165 0.000900439 -0.00120817)
(2.92048 0.00282741 -0.000900418)
(2.85722 0.0112023 -0.000405209)
(2.71486 0.033676 0.000406092)
(2.32729 0.09278 0.00190461)
(0.935346 0.275623 0.00555412)
(-0.321778 0.701011 0.00643325)
(-0.188196 1.05082 0.00405899)
(2.98747 0.000410975 -0.00106911)
(2.97027 0.00261676 -0.00161143)
(2.95178 0.00101086 -0.00114216)
(2.92247 0.00348924 -0.000854416)
(2.86304 0.0138627 -0.000383011)
(2.73006 0.0415034 0.000404055)
(2.37259 0.113507 0.00186213)
(1.08462 0.330287 0.0055233)
(-0.205955 0.847189 0.00671086)
(-0.14351 1.21688 0.00370553)
(2.97615 1.35192e-06 -0.0024105)
(2.95971 2.49139e-05 -0.00255386)
(2.94442 7.99448e-05 -0.00200683)
(2.91371 0.000205742 -0.00106446)
(2.84772 0.000494352 0.000534579)
(2.69301 0.00115757 0.00319648)
(2.24973 0.00280984 0.00826865)
(0.627739 0.00832505 0.0204846)
(-0.582812 0.0224623 0.0221999)
(-0.374649 0.0614896 0.020899)
(2.97616 4.30896e-06 -0.0024105)
(2.95973 8.79467e-05 -0.00255333)
(2.94448 0.000222077 -0.00200254)
(2.91385 0.000596974 -0.00106113)
(2.84805 0.00149157 0.000536552)
(2.69376 0.00356036 0.00319585)
(2.25175 0.00872363 0.00826403)
(0.630275 0.0257908 0.020521)
(-0.584437 0.0704796 0.0222058)
(-0.352051 0.151537 0.0204734)
(2.97618 7.1362e-06 -0.00241036)
(2.95978 0.000178305 -0.00255241)
(2.94459 0.000377566 -0.00199053)
(2.91413 0.00102375 -0.00105379)
(2.84871 0.00260281 0.000537559)
(2.69532 0.00627851 0.00318669)
(2.25625 0.0155836 0.00823452)
(0.642038 0.047289 0.0204319)
(-0.572992 0.138347 0.0220884)
(-0.32442 0.269665 0.0197085)
(2.97622 8.63276e-06 -0.00241039)
(2.95986 0.000304912 -0.00255154)
(2.94476 0.000603383 -0.00196958)
(2.91458 0.00157955 -0.00104178)
(2.84976 0.00396758 0.00053717)
(2.69793 0.00954253 0.00316681)
(2.26431 0.0237877 0.00817037)
(0.669651 0.0729252 0.0203333)
(-0.544461 0.21752 0.0218482)
(-0.298142 0.391399 0.0189201)
(2.97628 1.3385e-05 -0.0024116)
(2.95998 0.000511061 -0.00255157)
(2.94501 0.000929379 -0.00193667)
(2.91523 0.00229143 -0.00102116)
(2.8513 0.00562824 0.000541319)
(2.70176 0.013455 0.00314668)
(2.27624 0.0335494 0.00807858)
(0.712677 0.102198 0.0201279)
(-0.501816 0.299838 0.0215655)
(-0.269607 0.507246 0.0181145)
(2.9764 3.2463e-05 -0.00241357)
(2.96017 0.00085403 -0.00255239)
(2.94535 0.00130877 -0.00188421)
(2.9161 0.00304771 -0.000988407)
(2.85342 0.00747173 0.000548041)
(2.70713 0.0180068 0.00311546)
(2.29297 0.0451556 0.00794308)
(0.771234 0.135929 0.019819)
(-0.447037 0.385388 0.0213085)
(-0.238675 0.622889 0.0173937)
(2.97658 8.37699e-05 -0.00241525)
(2.96041 0.00137365 -0.00255282)
(2.94573 0.00164916 -0.00181367)
(2.91723 0.0036789 -0.000942311)
(2.85624 0.0093551 0.000560874)
(2.71431 0.0232316 0.00307947)
(2.31501 0.0590236 0.00777902)
(0.846041 0.175266 0.0194575)
(-0.380325 0.478762 0.0211084)
(-0.205609 0.742528 0.0165706)
(2.97687 0.000160843 -0.00241091)
(2.96068 0.00198626 -0.00254743)
(2.9461 0.0020298 -0.00173547)
(2.91862 0.00440028 -0.000885404)
(2.8599 0.0115802 0.000583703)
(2.72364 0.0294872 0.00304798)
(2.34288 0.0756201 0.00760117)
(0.939159 0.221025 0.0190678)
(-0.300776 0.583267 0.0209352)
(-0.170954 0.87024 0.015876)
(2.97726 0.00023097 -0.0023999)
(2.96101 0.00252535 -0.002536)
(2.94652 0.00243511 -0.00163366)
(2.92036 0.00529859 -0.000811022)
(2.86458 0.0142359 0.000615181)
(2.73561 0.0367094 0.00301545)
(2.37809 0.0946947 0.00741416)
(1.05586 0.273986 0.0186953)
(-0.206166 0.702939 0.0208609)
(-0.135389 1.00953 0.0149624)
(2.97773 0.000282649 -0.0023841)
(2.96139 0.00293074 -0.00251913)
(2.947 0.00287664 -0.00150894)
(2.92249 0.00641373 -0.000720529)
(2.87037 0.0173061 0.000653448)
(2.75061 0.044579 0.00298265)
(2.4229 0.114407 0.00723041)
(1.21182 0.325241 0.0184385)
(-0.0911213 0.847337 0.0213328)
(-0.0982827 1.16243 0.0143479)
(2.97277 3.89731e-06 -0.000722197)
(2.96467 2.922e-05 0.00226216)
(2.95797 9.06534e-05 0.00343784)
(2.93812 0.000225731 0.00515059)
(2.8883 0.000519513 0.00770613)
(2.76052 0.00118089 0.0118529)
(2.36801 0.00283843 0.0204652)
(0.825151 0.00921863 0.0440751)
(-0.371135 0.026296 0.045915)
(-0.266919 0.0452929 0.0455486)
(2.97278 1.87102e-05 -0.000721255)
(2.9647 0.000108006 0.00226255)
(2.95803 0.000297595 0.00343859)
(2.93826 0.000702102 0.0051511)
(2.88859 0.00158254 0.00770464)
(2.7611 0.00357939 0.0118501)
(2.36986 0.00860207 0.0204375)
(0.831147 0.025672 0.0441489)
(-0.375862 0.0711768 0.0459927)
(-0.217665 0.117995 0.0440907)
(2.9728 4.16634e-05 -0.000717798)
(2.96476 0.000220569 0.00226314)
(2.95816 0.000558894 0.00344371)
(2.93853 0.00125219 0.00515289)
(2.88919 0.00274657 0.00770045)
(2.76251 0.00613882 0.0118301)
(2.37357 0.0147861 0.0203931)
(0.840354 0.0455416 0.0439412)
(-0.369394 0.134608 0.0457406)
(-0.201321 0.225381 0.0428799)
(2.97284 5.43232e-05 -0.00071148)
(2.96486 0.000344668 0.00226306)
(2.95836 0.00087002 0.00345213)
(2.93895 0.00192615 0.0051541)
(2.8901 0.00418721 0.00768796)
(2.76488 0.00932614 0.0117845)
(2.38186 0.0224429 0.0202227)
(0.87108 0.0695493 0.04373)
(-0.34274 0.209109 0.0451453)
(-0.18321 0.342533 0.0416097)
(2.9729 7.42816e-05 -0.000704212)
(2.96502 0.000537967 0.00226023)
(2.95868 0.00131357 0.00346498)
(2.9396 0.00282069 0.00515806)
(2.89154 0.0060177 0.00767304)
(2.76819 0.0132995 0.0117366)
(2.39208 0.0318945 0.0200309)
(0.91184 0.0965054 0.0432804)
(-0.303513 0.288114 0.044461)
(-0.16221 0.45548 0.0402686)
(2.973 0.000135838 -0.000692352)
(2.96527 0.000888563 0.00225335)
(2.95912 0.00187988 0.00348591)
(2.94049 0.00386678 0.00516748)
(2.89348 0.00814318 0.00765686)
(2.77293 0.0179565 0.0116643)
(2.40685 0.043125 0.0197576)
(0.967813 0.128718 0.0426503)
(-0.252113 0.372751 0.0437236)
(-0.137835 0.569468 0.0389906)
(2.97318 0.000300356 -0.000673408)
(2.96559 0.00151297 0.00224004)
(2.95965 0.00249338 0.00352499)
(2.94162 0.00493756 0.00518804)
(2.89604 0.0105319 0.00764022)
(2.77934 0.0235826 0.0115633)
(2.42675 0.0570245 0.0194037)
(1.04103 0.16766 0.0418394)
(-0.188078 0.466867 0.0430697)
(-0.108905 0.68904 0.0375065)
(2.97347 0.000549892 -0.000633587)
(2.96597 0.00232655 0.00222652)
(2.96018 0.00328748 0.00359475)
(2.94298 0.00626859 0.005223)
(2.89926 0.0134434 0.00762177)
(2.7874 0.0304385 0.0114485)
(2.45162 0.0740194 0.0189854)
(1.13313 0.214397 0.0408977)
(-0.110344 0.57387 0.0423551)
(-0.0765624 0.817994 0.0361676)
(2.97389 0.000769745 -0.00057276)
(2.96644 0.0030483 0.00221463)
(2.96079 0.00415104 0.00369432)
(2.94468 0.00780655 0.00527096)
(2.90341 0.0167757 0.00759761)
(2.79795 0.0382721 0.0113019)
(2.48409 0.0938593 0.0184773)
(1.25291 0.269715 0.0398249)
(-0.0158786 0.699829 0.0418092)
(-0.0412479 0.962674 0.0347045)
(2.9744 0.000952195 -0.000497034)
(2.967 0.00364911 0.00220417)
(2.96153 0.00501538 0.00382184)
(2.94676 0.00944019 0.00533311)
(2.90859 0.020234 0.00757127)
(2.81144 0.0460307 0.0111406)
(2.52647 0.112179 0.0179233)
(1.41737 0.316082 0.0387726)
(0.104276 0.843436 0.0416334)
(-0.00391104 1.12739 0.0338016)
(3.0039 9.03496e-06 0.0133163)
(3.01125 3.19278e-05 0.0199174)
(3.0111 9.34238e-05 0.021959)
(3.00259 0.000232808 0.0240803)
(2.96843 0.000520019 0.0277263)
(2.86628 0.00112335 0.0341831)
(2.51269 0.0027176 0.0487665)
(0.788637 0.0117175 0.103463)
(-0.357294 0.026173 0.100134)
(0.506381 -0.0664331 0.0906978)
(3.00391 4.78125e-05 0.0133168)
(3.01127 0.000127861 0.0199164)
(3.01115 0.000320252 0.0219586)
(3.00271 0.00074489 0.0240753)
(2.96877 0.00163696 0.0277058)
(2.86648 0.00353413 0.0341655)
(2.51384 0.00866529 0.0486949)
(0.781849 0.0293437 0.103193)
(-0.434708 0.0731854 0.101365)
(0.0811543 0.047993 0.093867)
(3.00393 0.000113301 0.0133199)
(3.01135 0.000268447 0.0199133)
(3.01124 0.000605995 0.0219603)
(3.00293 0.0013259 0.0240691)
(2.96924 0.00283014 0.0276889)
(2.86808 0.00602611 0.0341081)
(2.51797 0.0139619 0.0485046)
(0.86679 0.0468208 0.102389)
(-0.390129 0.129529 0.101624)
(0.0757032 0.166598 0.0927391)
(3.00396 0.000155144 0.013326)
(3.01146 0.000386953 0.0199075)
(3.01136 0.000901933 0.0219617)
(3.00322 0.001992 0.0240579)
(2.9698 0.00422009 0.0276634)
(2.87042 0.00893107 0.0340121)
(2.52659 0.0204252 0.0482)
(0.833584 0.0709567 0.102424)
(-0.393419 0.19943 0.100601)
(0.0744118 0.284722 0.0909696)
(3.00401 0.000214482 0.0133324)
(3.01162 0.000551544 0.0198981)
(3.01158 0.00131176 0.0219619)
(3.00374 0.00290466 0.0240403)
(2.97114 0.00610938 0.0275962)
(2.8726 0.012858 0.0338973)
(2.53314 0.0297559 0.0478855)
(0.880009 0.0982048 0.101395)
(-0.360864 0.276402 0.0992413)
(0.0761441 0.399703 0.0890325)
(3.00409 0.000352794 0.0133432)
(3.01187 0.000863133 0.0198806)
(3.01187 0.00194126 0.0219643)
(3.00443 0.00413505 0.0240209)
(2.97273 0.00851947 0.0275285)
(2.87656 0.0176927 0.0337266)
(2.54535 0.040721 0.0473766)
(0.927896 0.133179 0.100462)
(-0.317181 0.36376 0.0977038)
(0.0814426 0.516139 0.0867534)
(3.00421 0.000666504 0.0133582)
(3.01221 0.00150198 0.0198515)
(3.01228 0.00294033 0.0219814)
(3.00535 0.00571962 0.0240043)
(2.97477 0.0113609 0.0274505)
(2.88258 0.023395 0.0334782)
(2.56395 0.0541275 0.0465872)
(1.00905 0.174414 0.0988541)
(-0.252468 0.462868 0.0960248)
(0.0859589 0.641306 0.0843785)
(3.00452 0.00113054 0.0133753)
(3.01269 0.00241713 0.0198097)
(3.01287 0.00427579 0.0220262)
(3.00653 0.00767816 0.0239841)
(2.97757 0.0147294 0.0273172)
(2.88975 0.0302218 0.0331411)
(2.58627 0.0705268 0.0456401)
(1.11534 0.2242 0.0967081)
(-0.168854 0.577292 0.0941377)
(0.0910121 0.780094 0.0815947)
(3.005 0.00153924 0.0133969)
(3.01333 0.00323818 0.0197574)
(3.01364 0.00557521 0.02209)
(3.00802 0.00976977 0.0239588)
(2.98112 0.0185657 0.0271411)
(2.89933 0.0383282 0.0326783)
(2.61675 0.0908318 0.0443582)
(1.24611 0.288274 0.0931418)
(-0.0667503 0.716347 0.0919278)
(0.0952627 0.940569 0.0788548)
(3.00559 0.00190102 0.0134243)
(3.01414 0.00397972 0.0196965)
(3.01458 0.00683614 0.022176)
(3.00986 0.0119271 0.0239337)
(2.98565 0.0225358 0.0269229)
(2.91172 0.0464355 0.0321109)
(2.65832 0.108669 0.0427322)
(1.45986 0.333041 0.0883633)
(0.0751297 0.86773 0.0893344)
(0.103628 1.12435 0.0762182)
(3.09251 7.55382e-06 0.0762485)
(3.11487 1.86208e-05 0.0830374)
(3.11857 7.77919e-05 0.0851215)
(3.11427 0.000150127 0.0864862)
(3.09433 0.000256079 0.0910754)
(3.00235 0.000310415 0.103948)
(2.56526 0.00223533 0.158449)
(1.55827 0.00424557 0.281129)
(0.282459 0.0199534 0.3181)
(0.287022 0.0413439 0.311234)
(3.09251 4.18713e-05 0.0762471)
(3.11489 6.86156e-05 0.0830314)
(3.11861 0.000273166 0.0851202)
(3.11432 0.000538061 0.0864756)
(3.09437 0.00102882 0.0910394)
(3.00254 0.00220802 0.103959)
(2.56852 0.0083263 0.158445)
(1.55144 0.0298501 0.282847)
(0.295191 0.0598467 0.319716)
(0.30792 0.0820248 0.303041)
(3.09253 0.000100671 0.0762577)
(3.11493 0.000138689 0.0830033)
(3.11871 0.000502363 0.085129)