/*--------------------------------*- C++ -*----------------------------------*\
  =========                 |
  \\      /  F ield         | OpenFOAM: The Open Source CFD Toolbox
   \\    /   O peration     | Website:  https://openfoam.org
    \\  /    A nd           | Version:  6.0
     \\/     M anipulation  |
\*---------------------------------------------------------------------------*/
FoamFile
{
    version     2.0;
    format      ascii;
    class       volScalarField;
    location    "2";
    object      p;
}
// * * * * * * * * * * * * * * * * * * * * * * * * * * * * * * * * * * * * * //

dimensions      [1 -1 -2 0 0 0 0];

internalField   nonuniform List<scalar> 
2700
(
1
1
1
1
1.00001
1.00002
1.00005
1.00011
1.00025
1.00054
1.00118
1.00257
1.00558
1.01216
1.0265
1.05793
1.12747
1.28446
1.65456
2.60828
5.57822
22.4354
19.6501
16.4653
14.5959
13.6761
13.4927
13.5893
13.762
13.7813
1
1
1
1
1.00001
1.00002
1.00005
1.00011
1.00025
1.00054
1.00118
1.00257
1.00559
1.01216
1.0265
1.05794
1.12749
1.28452
1.6547
2.60873
5.58038
22.4281
19.642
16.4565
14.5854
13.6596
13.4862
13.5786
13.7733
13.7783
1
1
1
1
1.00001
1.00002
1.00005
1.00011
1.00025
1.00054
1.00118
1.00257
1.00559
1.01216
1.02651
1.05796
1.12753
1.28462
1.65496
2.60952
5.58464
22.4128
19.6248
16.4368
14.561
13.6251
13.4707
13.5647
13.7835
13.7782
1
1
1
1
1.00001
1.00002
1.00005
1.00011
1.00025
1.00054
1.00118
1.00257
1.00559
1.01217
1.02652
1.05799
1.1276
1.28477
1.65531
2.61062
5.59087
22.3892
19.5984
16.4066
14.524
13.5804
13.4504
13.5482
13.7776
13.7813
1
1
1
1
1.00001
1.00002
1.00005
1.00011
1.00025
1.00054
1.00118
1.00257
1.00559
1.01217
1.02654
1.05802
1.12768
1.28495
1.65576
2.612
5.59894
22.3568
19.5629
16.3667
14.4766
13.5289
13.4273
13.5274
13.7579
13.7795
1
1
1
1
1.00001
1.00002
1.00005
1.00011
1.00025
1.00054
1.00118
1.00257
1.0056
1.01218
1.02656
1.05806
1.12777
1.28517
1.6563
2.61363
5.60866
22.3154
19.5181
16.3176
14.4195
13.4717
13.4008
13.5037
13.7412
13.7926
1
1
1
1
1.00001
1.00002
1.00005
1.00011
1.00025
1.00054
1.00118
1.00257
1.0056
1.01219
1.02658
1.05811
1.12788
1.28541
1.6569
2.61548
5.61989
22.2647
19.4642
16.2596
14.3535
13.4102
13.3699
13.4772
13.7263
13.7942
1
1
1
1
1.00001
1.00002
1.00005
1.00012
1.00025
1.00054
1.00118
1.00258
1.00561
1.0122
1.0266
1.05816
1.12799
1.28568
1.65756
2.61751
5.63246
22.2045
19.4002
16.1946
14.2775
13.3459
13.333
13.4472
13.7073
13.784
1
1
1
1
1.00001
1.00002
1.00005
1.00012
1.00025
1.00055
1.00119
1.00258
1.00561
1.01222
1.02663
1.05822
1.12812
1.28597
1.65827
2.61969
5.64615
22.1345
19.3265
16.1215
14.1941
13.2796
13.2869
13.4141
13.6805
13.7566
1
1
1
1
1.00001
1.00002
1.00005
1.00012
1.00025
1.00055
1.00119
1.00258
1.00562
1.01223
1.02665
1.05828
1.12825
1.28628
1.65902
2.622
5.66071
22.0543
19.2441
16.0387
14.1042
13.2111
13.2325
13.38
13.6432
13.7162
1
1
1
1
1.00001
1.00002
1.00005
1.00012
1.00025
1.00055
1.00119
1.00258
1.00562
1.01224
1.02668
1.05834
1.12839
1.2866
1.65979
2.62439
5.67591
21.9638
19.1528
15.9469
14.0075
13.1389
13.1732
13.343
13.5941
13.6668
1
1
1
1
1.00001
1.00002
1.00005
1.00012
1.00025
1.00055
1.00119
1.00259
1.00563
1.01225
1.02671
1.0584
1.12853
1.28692
1.66057
2.62682
5.69152
21.8625
19.0524
15.8462
13.9042
13.0627
13.1093
13.3004
13.5358
13.6109
1
1
1
1
1.00001
1.00002
1.00005
1.00012
1.00025
1.00055
1.00119
1.00259
1.00563
1.01227
1.02674
1.05846
1.12867
1.28724
1.66135
2.62926
5.70728
21.7503
18.9428
15.7369
13.7943
12.9824
13.0401
13.2505
13.4681
13.5455
1
1
1
1
1.00001
1.00002
1.00005
1.00012
1.00025
1.00055
1.00119
1.00259
1.00564
1.01228
1.02677
1.05852
1.1288
1.28755
1.66212
2.63165
5.72295
21.6268
18.8236
15.6191
13.678
12.8978
12.9658
13.1931
13.3921
13.472
1
1
1
1
1.00001
1.00002
1.00005
1.00012
1.00025
1.00055
1.00119
1.00259
1.00565
1.01229
1.02679
1.05858
1.12893
1.28785
1.66285
2.63395
5.73825
21.4918
18.6948
15.493
13.5556
12.8088
12.8858
13.1271
13.3065
13.3883
1
1
1
1
1.00001
1.00002
1.00005
1.00012
1.00025
1.00055
1.00119
1.0026
1.00565
1.0123
1.02682
1.05864
1.12906
1.28813
1.66353
2.63611
5.75288
21.345
18.5563
15.3584
13.4273
12.7155
12.8002
13.0525
13.2121
13.296
1
1
1
1
1.00001
1.00002
1.00005
1.00012
1.00025
1.00055
1.00119
1.0026
1.00565
1.01231
1.02684
1.05868
1.12916
1.28838
1.66413
2.63807
5.76652
21.1859
18.4079
15.2155
13.2932
12.6174
12.7084
12.968
13.1073
13.1925
1
1
1
1
1.00001
1.00002
1.00005
1.00012
1.00025
1.00055
1.0012
1.0026
1.00566
1.01232
1.02686
1.05872
1.12925
1.28859
1.66465
2.63977
5.77886
21.0144
18.2494
15.0645
13.154
12.5147
12.6104
12.8738
12.9927
13.0785
1
1
1
1
1.00001
1.00002
1.00005
1.00012
1.00025
1.00055
1.0012
1.0026
1.00566
1.01233
1.02687
1.05875
1.12932
1.28875
1.66505
2.64113
5.78952
20.8298
18.0808
14.9055
13.0096
12.4071
12.5055
12.7683
12.8662
12.9509
1
1
1
1
1.00001
1.00002
1.00005
1.00012
1.00025
1.00055
1.0012
1.0026
1.00566
1.01233
1.02688
1.05877
1.12937
1.28886
1.6653
2.64209
5.79813
20.632
17.9017
14.7389
12.8612
12.2943
12.3938
12.6514
12.728
12.8093
1
1
1
1
1.00001
1.00002
1.00005
1.00012
1.00025
1.00055
1.0012
1.0026
1.00566
1.01233
1.02688
1.05878
1.12938
1.28889
1.66539
2.64258
5.80427
20.4202
17.7123
14.5648
12.7089
12.1764
12.2744
12.5211
12.5755
12.6498
1
1
1
1
1.00001
1.00002
1.00005
1.00012
1.00025
1.00055
1.0012
1.0026
1.00566
1.01233
1.02687
1.05877
1.12935
1.28884
1.66528
2.64254
5.80747
20.194
17.5119
14.3842
12.5543
12.0529
12.147
12.3766
12.4083
12.4697
1
1
1
1
1.00001
1.00002
1.00005
1.00012
1.00025
1.00055
1.0012
1.0026
1.00566
1.01232
1.02686
1.05873
1.12929
1.28869
1.66495
2.64192
5.80726
19.9527
17.3012
14.1973
12.3982
11.9241
12.0111
12.2149
12.224
12.2636
1
1
1
1
1.00001
1.00002
1.00005
1.00012
1.00025
1.00055
1.00119
1.0026
1.00565
1.01231
1.02683
1.05868
1.12917
1.28843
1.66435
2.64054
5.80307
19.6961
17.0792
14.0062
12.2428
11.7895
11.8661
12.0327
12.0183
12.0278
1
1
1
1
1.00001
1.00002
1.00005
1.00012
1.00025
1.00055
1.00119
1.00259
1.00564
1.01229
1.02679
1.05859
1.12898
1.28802
1.6634
2.63817
5.79409
19.4238
16.8467
13.8117
12.0898
11.6495
11.7133
11.8262
11.7865
11.7505
1
1
1
1
1.00001
1.00002
1.00005
1.00012
1.00025
1.00055
1.00119
1.00259
1.00563
1.01226
1.02674
1.05847
1.12872
1.28743
1.66201
2.63458
5.77959
19.1353
16.6034
13.6176
11.942
11.5038
11.551
11.5963
11.5204
11.4165
1
1
1
1
1.00001
1.00002
1.00005
1.00012
1.00025
1.00055
1.00119
1.00258
1.00562
1.01223
1.02666
1.05831
1.12836
1.28662
1.6601
2.62954
5.75864
18.829
16.351
13.4269
11.8022
11.3524
11.3724
11.3489
11.2035
11.0061
1
1
1
1
1.00001
1.00002
1.00005
1.00011
1.00025
1.00054
1.00118
1.00257
1.0056
1.01218
1.02657
1.0581
1.1279
1.28557
1.65758
2.62277
5.73025
18.5031
16.0922
13.2462
11.6726
11.1993
11.1735
11.0785
10.8176
10.4897
1
1
1
1
1.00001
1.00002
1.00005
1.00011
1.00025
1.00054
1.00118
1.00256
1.00557
1.01213
1.02645
1.05784
1.12731
1.28423
1.65437
2.61403
5.69307
18.1514
15.8361
13.0809
11.5552
11.0447
10.9545
10.7615
10.3571
9.81981
1
1
1
1
1.00001
1.00002
1.00005
1.00011
1.00025
1.00054
1.00117
1.00255
1.00554
1.01206
1.0263
1.05752
1.1266
1.2826
1.65041
2.60307
5.64639
17.7641
15.6041
12.9394
11.4463
10.8764
10.6991
10.3906
9.80462
8.88488
1
1
1
1
1.00001
1.00002
1.00005
1.00011
1.00024
1.00053
1.00115
1.00251
1.00545
1.01187
1.02588
1.05658
1.12448
1.2777
1.63829
2.56845
5.50188
16.6375
15.1465
12.6747
11.2052
10.4466
10.0453
9.48977
8.43437
6.08823
1
1
1
1
1.00001
1.00002
1.00005
1.00011
1.00024
1.00051
1.00112
1.00243
1.00529
1.01152
1.02511
1.05489
1.12075
1.26922
1.61796
2.51292
5.28107
15.1631
14.1196
11.9855
10.5922
9.78214
9.23885
8.54366
7.53063
5.45711
1
1
1
1
1.00001
1.00002
1.00005
1.0001
1.00023
1.00049
1.00107
1.00233
1.00506
1.01102
1.02404
1.05255
1.11558
1.2575
1.58996
2.43735
5.00096
13.5706
12.886
11.3148
9.98425
9.15042
8.5443
7.84765
6.99105
5.49309
1
1
1
1
1.00001
1.00002
1.00004
1.0001
1.00021
1.00046
1.001
1.00217
1.00472
1.01028
1.02242
1.04901
1.10774
1.23975
1.54771
2.32502
4.62053
11.881
11.5874
10.7058
9.51557
8.67646
8.04056
7.39357
6.67612
5.59551
1
1
1
1
1.00001
1.00002
1.00004
1.00009
1.00019
1.00041
1.00088
1.00192
1.00419
1.00913
1.01992
1.04355
1.09568
1.2125
1.48323
2.1567
4.08691
9.983
10.2838
9.99385
9.28256
8.39397
7.71346
7.10737
6.482
5.60758
1
1
1
1
1.00001
1.00001
1.00003
1.00007
1.00015
1.00033
1.00072
1.00157
1.00342
1.00745
1.01624
1.0355
1.07791
1.17248
1.38932
1.91624
3.36818
7.81015
9.96813
9.74123
9.14729
8.27038
7.55573
6.94723
6.36828
5.6032
1
1
1
1
1
1.00001
1.00002
1.00005
1.0001
1.00022
1.00049
1.00105
1.00229
1.00496
1.01078
1.02344
1.05111
1.11202
1.24848
1.56541
2.35916
4.47124
9.27573
9.22517
8.94336
8.28671
7.53807
6.88996
6.31256
5.60339
1
1
1
1
1
1.00001
1.00002
1.00003
1.00007
1.00016
1.00035
1.00076
1.00165
1.00359
1.00781
1.01699
1.03704
1.08109
1.17913
1.40354
1.94849
3.42425
7.65666
8.78785
8.65106
8.25203
7.55421
6.89083
6.287
5.6047
1
1
1
1
1
1
1.00001
1.00002
1.00005
1.0001
1.00022
1.00047
1.00103
1.00223
1.00482
1.01046
1.02269
1.04937
1.10796
1.23876
1.54078
2.29183
4.22461
8.23077
8.22217
8.08129
7.64626
6.91382
6.28806
5.60952
1
1
1
1
1
1
1.00001
1.00001
1.00003
1.00007
1.00015
1.00033
1.00071
1.00154
1.00334
1.00726
1.01578
1.03436
1.07513
1.16563
1.37179
1.86804
3.1808
6.78722
7.86289
7.78937
7.54548
6.98938
6.30015
5.62338
1
1
1
1
1
1
1
1.00001
1.00002
1.00004
1.00009
1.00019
1.00042
1.00091
1.00197
1.00426
1.00922
1.02
1.04345
1.09484
1.20903
1.47041
2.10785
3.71496
7.10558
7.35874
7.2692
6.95671
6.33008
5.66333
1
1
1
1
1
1
1
1.00001
1.00001
1.00003
1.00006
1.00012
1.00027
1.00058
1.00126
1.00274
1.00595
1.01293
1.02812
1.06135
1.13475
1.30031
1.69083
2.68876
5.34317
6.78822
6.77912
6.70165
6.39634
5.76447
1
1
1
1
1
1
1
1
1.00001
1.00001
1.00003
1.00007
1.00015
1.00032
1.00069
1.00149
1.00322
1.00697
1.01509
1.03274
1.07127
1.15629
1.34806
1.80062
2.91398
5.52734
6.31511
6.30326
6.22973
5.95431
1
1
1
1
1
1
1
1
1
1.00001
1.00002
1.00003
1.00007
1.00016
1.00034
1.00072
1.00156
1.00336
1.00724
1.01563
1.03378
1.07323
1.1599
1.35435
1.80819
2.90144
5.27181
5.96872
5.94267
5.82354
1
1
1
1
1
1
1
1
1
1
1.00001
1.00002
1.00003
1.00007
1.00016
1.00034
1.00074
1.0016
1.00343
1.00739
1.01592
1.03433
1.0743
1.16194
1.3583
1.81511
2.92039
5.20046
5.59399
5.53254
1
1
1
1
1
1
1
1
1
1
1
1.00001
1.00002
1.00004
1.00008
1.00018
1.00039
1.00084
1.00182
1.00393
1.0085
1.01838
1.03984
1.08672
1.19048
1.42636
1.98954
3.37981
4.87824
5.02632
1
1
1
1
1
1
1
1
1
1
1
1
1.00001
1.00002
1.00004
1.00009
1.00018
1.0004
1.00086
1.00185
1.00399
1.00861
1.0186
1.04025
1.08745
1.19163
1.42715
1.97935
3.28879
4.07204
1
1
1
1
1
1
1
1
1
1
1
1
1
1.00001
1.00001
1.00003
1.00006
1.00014
1.00029
1.00062
1.00132
1.00281
1.00597
1.01269
1.02698
1.05746
1.12276
1.26351
1.56716
2.0221
1
1
1
1
1
1
1
1
1
1
1
1
1
1
1.00001
1.00001
1.00003
1.00006
1.00013
1.00027
1.00057
1.00122
1.00261
1.00558
1.0119
1.02544
1.05451
1.11735
1.25505
1.56568
1
1
1
1
1
1
1
1
1
1
1
1
1
1
1
1.00001
1.00002
1.00004
1.00008
1.00017
1.00036
1.00078
1.00168
1.00364
1.00788
1.0171
1.03719
1.0812
1.17906
1.40283
1
1
1
1
1
1
1
1
1
1
1
1
1
1
1
1
1.00001
1.00002
1.00004
1.00008
1.00018
1.00038
1.00081
1.00174
1.00375
1.00807
1.01736
1.03741
1.08092
1.17616
1
1
1
1
1
1
1
1
1
1
1
1
1
1
1
1
1.00001
1.00001
1.00003
1.00006
1.00013
1.00029
1.00063
1.00136
1.00295
1.0064
1.01388
1.03017
1.0658
1.14454
1
1
1
1
1
1
1
1
1
1
1
1
1
1
1
1
1
1.00001
1.00002
1.00005
1.0001
1.00022
1.00049
1.00106
1.0023
1.005
1.01087
1.02367
1.05167
1.11349
1
1
1
1
1
1
1
1
1
1
1
1
1
1
1
1
1
1.00001
1.00001
1.00003
1.00006
1.00014
1.0003
1.00066
1.00142
1.00308
1.00666
1.01444
1.03129
1.06811
1
1
1
1
1
1
1
1
1
1
1
1
1
1
1
1
1
1
1.00001
1.00002
1.00005
1.00011
1.00023
1.0005
1.00109
1.00237
1.00516
1.01121
1.0244
1.05332
1
1
1
1
1
1
1
1
1
1
1
1
1
1
1
1
1
1
1.00001
1.00001
1.00003
1.00007
1.00015
1.00033
1.00071
1.00154
1.00334
1.00723
1.01566
1.03403
1
1
1
1
1
1
1
1
1
1
1
1
1
1
1
1
1
1
1.00001
1.00001
1.00003
1.00006
1.00012
1.00026
1.00056
1.00122
1.00264
1.00574
1.01244
1.02707
1
1
1
1
1
1
1
1
1
1
1
1
1
1
1
1
1
1
1
1.00001
1.00002
1.00004
1.00009
1.00019
1.00042
1.0009
1.00195
1.00421
1.00909
1.01967
1
1
1
1
1
1
1
1
1
1
1
1
1
1
1
1
1
1
1
1.00001
1.00002
1.00004
1.00008
1.00017
1.00036
1.00078
1.00169
1.00365
1.00788
1.01707
1
1
1
1
1
1
1
1
1
1
1
1
1
1
1
1
1
1
1
1.00001
1.00001
1.00003
1.00007
1.00015
1.00033
1.00071
1.00154
1.00335
1.00728
1.01584
2.46096
1.57051
1.29347
1.30064
1.44664
1.56936
1.56891
1.56767
1.56877
1.57395
1.58719
1.61547
1.6748
1.78405
1.99361
2.16925
2.42062
2.82581
3.44563
4.30813
4.32379
4.37865
4.38386
4.38257
4.39848
4.28215
4.13438
4.03915
4.06455
4.1523
2.71732
1.82282
1.55712
1.56334
1.54004
1.54257
1.54531
1.55168
1.56578
1.59126
1.61097
1.64316
1.70134
1.81823
1.97354
2.25972
2.50725
2.83382
3.2287
4.00468
4.09808
4.13966
4.13391
4.13643
4.10721
4.09393
4.14101
4.13355
4.0234
3.94751
3.31413
2.47786
2.147
1.75055
1.56633
1.55855
1.56385
1.57776
1.60604
1.61293
1.62708
1.6567
1.71746
1.8459
1.99992
2.21295
2.44027
2.71396
3.36059
4.19248
4.3446
4.56209
4.53093
4.48082
4.42096
4.43487
4.36309
4.0978
4.10196
4.03312
4.18146
2.98841
2.25419
1.83754
1.64294
1.60225
1.59919
1.60112
1.60654
1.61778
1.64041
1.68567
1.74746
1.88673
1.9762
2.17296
2.42312
2.75357
3.21682
4.10697
4.42494
4.4146
4.38735
4.39562
4.36056
4.16357
4.09572
4.0031
4.072
4.32696
4.33953
3.27329
2.49963
2.06791
1.84513
1.71941
1.63733
1.63666
1.63889
1.64685
1.66533
1.70374
1.76557
1.88995
1.98903
2.17338
2.37478
2.70385
3.06533
3.49364
4.28825
4.83562
5.09809
5.01165
4.85997
4.49341
4.16716
4.09384
4.11738
4.11847
4.4577
3.54815
2.81263
2.29014
1.96148
1.77554
1.66434
1.65145
1.65323
1.66022
1.67794
1.71554
1.78732
1.88276
2.04672
2.17745
2.37214
2.63333
2.88765
3.09007
3.35694
3.6192
3.84953
4.04115
4.4894
4.57424
4.49094
4.27823
4.25804
4.14899
4.58241
3.78014
3.05165
2.48443
2.11486
1.89412
1.74933
1.70407
1.70556
1.71062
1.72274
1.74854
1.80136
1.89219
2.077
2.2105
2.40585
2.62523
2.79722
2.90324
2.98416
3.07889
3.20195
3.43897
3.86395
4.22251
4.49532
4.45568
4.31611
4.19273
4.66473
3.94588
3.25147
2.67087
2.26884
2.0145
1.83959
1.74385
1.73865
1.74058
1.74807
1.76766
1.81087
1.89934
2.07559
2.22688
2.44246
2.62653
2.73687
2.78958
2.81737
2.85743
2.91163
3.10051
3.35556
3.54445
3.97052
4.36355
4.1269
3.88136
4.70951
4.05848
3.41324
2.83918
2.41792
2.13905
1.93844
1.80562
1.7912
1.79301
1.79959
1.81649
1.85348
1.92842
2.07851
2.28583
2.57514
2.64808
2.68845
2.68244
2.66654
2.67986
2.68202
2.69026
2.72178
2.83402
2.87135
2.85776
3.13019
4.23947
4.73718
4.13808
3.54143
2.98567
2.55919
2.26521
2.04562
1.88737
1.84837
1.84992
1.85585
1.87081
1.90313
1.97132
2.12165
2.44532
2.57655
2.63251
2.624
2.58734
2.50795
2.4312
2.44967
2.38591
2.38542
2.37929
2.39827
2.41569
2.2672
2.20213
4.77871
4.20492
3.64803
3.11586
2.69404
2.3918
2.16054
1.98316
1.92518
1.92665
1.93292
1.94945
1.98693
2.06667
2.22773
2.50245
2.57068
2.58839
2.58215
2.55769
2.49145
2.26652
2.23147
2.24867
2.21124
2.15118
2.1742
2.29671
2.27257
2.0396
4.83932
4.26695
3.73987
3.23366
2.82463
2.52139
2.28595
2.09308
2.02104
2.02323
2.03223
2.05632
2.11303
2.24586
2.4267
2.55839
2.5748
2.58075
2.57165
2.54047
2.44796
2.27461
2.01038
2.03203
2.07533
2.01004
1.99275
2.00454
2.08899
2.10915
4.9284
4.32411
3.81712
3.33957
2.95194
2.65406
2.41967
2.21025
2.15807
2.16283
2.17976
2.22252
2.31862
2.44772
2.54083
2.58839
2.58743
2.58324
2.56985
2.53651
2.43785
2.23521
1.96308
1.84298
1.85546
1.91338
1.9005
1.91065
1.90347
2.00662
5.0181
4.38499
3.89552
3.44647
3.08449
2.79615
2.56301
2.36711
2.37311
2.38745
2.40617
2.44121
2.49034
2.53515
2.6206
2.62799
2.62761
2.62023
2.60675
2.55327
2.41452
2.15525
1.94433
1.78704
1.75813
1.78048
1.83207
1.83244
1.84256
1.90923
5.00223
4.45483
3.99248
3.57082
3.23067
2.9521
2.7177
2.56196
2.55256
2.53979
2.53891
2.54733
2.56493
2.62044
2.69784
2.71147
2.71243
2.70035
2.64094
2.51191
2.30075
2.07893
1.91215
1.77588
1.68336
1.68764
1.71569
1.75194
1.78485
1.85217
4.92308
4.57262
4.13583
3.7299
3.39231
3.11251
2.87172
2.66264
2.59065
2.59025
2.59727
2.61773
2.64988
2.72361
2.83613
2.84466
2.82366
2.75903
2.62411
2.4087
2.19233
1.99868
1.87137
1.7683
1.66563
1.63098
1.62752
1.64548
1.69678
1.80889
4.71148
4.59411
4.3319
3.93407
3.55153
3.24742
2.98245
2.75287
2.67501
2.67726
2.68613
2.71072
2.7666
2.84998
2.99124
2.97701
2.9318
2.78121
2.5797
2.36104
2.1117
1.95557
1.84712
1.74855
1.67409
1.58198
1.57408
1.5772
1.58781
1.6831
4.48639
4.53176
4.42846
4.17969
3.71458
3.36237
3.08016
2.83668
2.77414
2.77708
2.78935
2.82391
2.90873
3.09493
3.13126
3.13907
3.00451
2.75898
2.55681
2.3318
2.08724
1.92421
1.83276
1.7353
1.66585
1.57335
1.53869
1.51425
1.52056
1.57773
3.97852
4.4325
4.39622
4.24989
3.92272
3.48654
3.184
2.94787
2.92099
2.92602
2.94739
3.01241
3.23753
3.55037
3.5001
3.31178
2.95697
2.75038
2.55375
2.32098
2.08724
1.8983
1.81888
1.72854
1.64799
1.56744
1.52266
1.45122
1.43495
1.41316
3.19791
4.36034
4.33196
4.2381
4.02683
3.64646
3.32214
3.17985
3.19034
3.22588
3.31717
3.55111
3.97587
3.90062
3.67853
3.25294
2.94332
2.74923
2.54744
2.317
2.10019
1.90728
1.78745
1.71055
1.64002
1.55267
1.47341
1.43248
1.39532
1.34725
1.85304
4.18835
4.2283
4.20048
4.09948
3.87221
3.58142
3.59396
3.64537
3.79116
4.12864
4.31718
4.23492
4.06336
3.74593
3.22622
2.94985
2.75466
2.54455
2.31019
2.09561
1.92048
1.76928
1.66619
1.5975
1.52229
1.44676
1.41503
1.37708
1.34947
1.68996
3.77828
4.17927
4.16591
4.11772
4.00555
3.9126
3.92876
3.98737
4.13217
4.40498
4.38692
4.32328
4.17818
3.79992
3.25369
2.96615
2.76286
2.53974
2.3086
2.09462
1.91657
1.77161
1.63988
1.54119
1.48734
1.42893
1.39176
1.35842
1.33838
1.51863
3.0943
4.07783
4.15133
4.14376
4.11933
4.11948
4.13917
4.21344
4.40157
4.60403
4.60389
4.57357
4.30951
3.72699
3.28033
2.98412
2.76663
2.53891
2.31063
2.09817
1.91381
1.76588
1.63331
1.53112
1.44795
1.3985
1.36142
1.33867
1.30842
1.28692
2.10296
3.84206
4.12218
4.19755
4.23507
4.31665
4.45129
4.58512
4.86586
5.38788
5.26486
4.83803
4.23238
3.7159
3.30687
3.01674
2.77092
2.53584
2.31369
2.10354
1.90999
1.75659
1.62039
1.52697
1.4389
1.37273
1.32647
1.31135
1.28684
1.22014
1.84987
3.34061
4.05899
4.28552
4.43285
4.73816
5.14389
5.48327
6.09428
5.96509
5.52642
4.80697
4.26014
3.75537
3.35475
3.04174
2.77629
2.52789
2.31027
2.10792
1.9053
1.74544
1.60482
1.51134
1.42995
1.36977
1.3202
1.29626
1.25764
1.13586
1.49831
2.31429
3.91321
4.28496
4.8383
5.73921
6.82532
6.88589
6.71957
6.21426
5.57598
4.86212
4.28798
3.78823
3.38749
3.0606
2.77744
2.52578
2.30606
2.10878
1.90604
1.73449
1.58787
1.4884
1.41204
1.36032
1.31211
1.28705
1.24535
1.10755
1.38835
2.04311
3.53537
4.29089
5.77364
7.92152
7.84502
7.588
7.16545
6.24368
5.60032
4.89806
4.30691
3.80317
3.40291
3.06927
2.77787
2.52385
2.30488
2.1077
1.90641
1.72907
1.57431
1.46813
1.39214
1.34598
1.29845
1.27357
1.24249
1.07685
1.27119
1.71053
2.71944
4.37525
7.94102
8.07988
8.01129
7.80631
7.35708
6.44973
5.64598
4.93023
4.30685
3.80244
3.40638
3.07168
2.77822
2.52136
2.30132
2.10742
1.90682
1.72588
1.56537
1.4585
1.38415
1.33317
1.28948
1.26237
1.22761
1.06642
1.23231
1.60123
2.47283
4.45414
8.53653
8.4622
8.29285
8.10722
7.65391
6.70024
5.74271
4.96776
4.30228
3.78835
3.39789
3.06475
2.77178
2.51342
2.29091
2.10147
1.90086
1.71706
1.55527
1.44934
1.37843
1.32657
1.28487
1.25986
1.22045
1.06209
1.2172
1.55839
2.34734
4.26314
8.61142
9.00506
8.9104
8.57702
7.8842
6.83758
5.84271
5.04824
4.35386
3.81964
3.41737
3.07483
2.77687
2.51391
2.28801
2.09986
1.89609
1.71214
1.54998
1.4425
1.37188
1.32095
1.28111
1.25663
1.21782
)
;

boundaryField
{
    inlet
    {
        type            fixedValue;
        value           uniform 1;
    }
    outlet
    {
        type            waveTransmissive;
        gamma           1.4;
        fieldInf        1;
        lInf            3;
        value           nonuniform List<scalar> 
30
(
4.01864
3.98139
4.08491
4.19955
4.34216
4.38003
4.32322
4.15444
3.56206
2.26079
2.07504
1.98278
1.89933
1.8016
1.74136
1.69649
1.60234
1.50517
1.42935
1.36626
1.33962
1.32839
1.30907
1.29115
1.27424
1.25638
1.24971
1.24064
1.23137
1.22792
)
;
    }
    top
    {
        type            symmetryPlane;
    }
    bottom
    {
        type            symmetryPlane;
    }
    step
    {
        type            zeroGradient;
    }
    defaultFaces
    {
        type            empty;
    }
}


// ************************************************************************* //
