/*--------------------------------*- C++ -*----------------------------------*\
  =========                 |
  \\      /  F ield         | OpenFOAM: The Open Source CFD Toolbox
   \\    /   O peration     | Website:  https://openfoam.org
    \\  /    A nd           | Version:  6.0
     \\/     M anipulation  |
\*---------------------------------------------------------------------------*/
FoamFile
{
    version     2.0;
    format      ascii;
    class       surfaceScalarField;
    location    "2";
    object      phi;
}
// * * * * * * * * * * * * * * * * * * * * * * * * * * * * * * * * * * * * * //

dimensions      [1 0 -1 0 0 0 0];

internalField   nonuniform List<scalar> 
5280
(
0.00279994
-4.46379e-14
0.00279994
-2.72672e-13
0.00279994
-8.90204e-13
0.00279994
-2.35006e-12
0.00279994
-5.6455e-12
0.00279994
-1.29561e-11
0.00279994
-2.9067e-11
0.00279994
-6.44886e-11
0.00279994
-1.42322e-10
0.00279994
-3.13384e-10
0.00279994
-6.89616e-10
0.00279994
-1.51823e-09
0.00279995
-3.34774e-09
0.00279995
-7.40703e-09
0.00279997
-1.65033e-08
0.00280002
-3.73011e-08
0.00280012
-8.68092e-08
0.00280035
-2.13877e-07
0.002801
-5.8312e-07
0.00280274
-1.9663e-06
0.0028136
-9.27516e-06
0.00268935
9.89103e-05
0.00248073
0.000199761
0.00220719
0.000269061
0.00184408
0.000360394
0.00129064
0.000551743
0.000707178
0.000583099
-7.30906e-05
0.000779733
0.000244531
-0.000322059
0.000242722
0.00279994
-8.76823e-14
0.00279994
-5.3564e-13
0.00279994
-1.7487e-12
0.00279994
-4.61565e-12
0.00279994
-1.10847e-11
0.00279994
-2.54274e-11
0.00279994
-5.70131e-11
0.00279994
-1.26401e-10
0.00279994
-2.78723e-10
0.00279994
-6.13128e-10
0.00279994
-1.34768e-09
0.00279994
-2.96304e-09
0.00279994
-6.52332e-09
0.00279995
-1.44056e-08
0.00279997
-3.20186e-08
0.00280001
-7.213e-08
0.00280011
-1.67031e-07
0.00280032
-4.08005e-07
0.0028009
-1.09301e-06
0.00280229
-3.58776e-06
0.00281268
-1.80848e-05
0.00267425
0.000212021
0.00245948
0.000405682
0.00217977
0.000544284
0.00181543
0.000722014
0.00136101
0.00100446
0.000918453
0.00102521
0.000647721
0.00105018
-8.65158e-05
0.000413863
0.000156634
0.00279994
-1.27888e-13
0.00279994
-7.81341e-13
0.00279994
-2.55081e-12
0.00279994
-6.73153e-12
0.00279994
-1.61603e-11
0.00279994
-3.70514e-11
0.00279994
-8.30216e-11
0.00279994
-1.83916e-10
0.00279994
-4.05172e-10
0.00279994
-8.90346e-10
0.00279994
-1.95469e-09
0.00279994
-4.29186e-09
0.00279994
-9.43456e-09
0.00279995
-2.07987e-08
0.00279997
-4.61357e-08
0.00280001
-1.0368e-07
0.00280009
-2.39335e-07
0.00280029
-5.81939e-07
0.00280081
-1.54672e-06
0.00280202
-5.03098e-06
0.00281177
-2.6257e-05
0.00266177
0.000336755
0.00244007
0.00061855
0.00215947
0.000820397
0.00180637
0.00107235
0.00140326
0.00140579
0.00101472
0.00141322
0.000643406
0.00142172
-6.84637e-06
0.00106396
0.000150464
0.00279994
-1.64469e-13
0.00279994
-1.0049e-12
0.00279994
-3.2806e-12
0.00279994
-8.65593e-12
0.00279994
-2.07735e-11
0.00279994
-4.76069e-11
0.00279994
-1.06612e-10
0.00279994
-2.36013e-10
0.00279994
-5.19535e-10
0.00279994
-1.14065e-09
0.00279994
-2.50178e-09
0.00279994
-5.4873e-09
0.00279994
-1.20484e-08
0.00279995
-2.65271e-08
0.00279997
-5.87588e-08
0.0028
-1.3183e-07
0.00280008
-3.03707e-07
0.00280025
-7.36427e-07
0.00280072
-1.94857e-06
0.00280178
-6.31139e-06
0.00281089
-3.38122e-05
0.00265122
0.000471257
0.00242318
0.000837724
0.00214346
0.00109565
0.00180385
0.00140914
0.00143398
0.00177377
0.0010711
0.00177546
0.000705015
0.00178789
0.00015329
0.00161512
0.000300921
0.00279994
-1.96953e-13
0.00279994
-1.20345e-12
0.00279994
-3.92872e-12
0.00279994
-1.03646e-11
0.00279994
-2.48682e-11
0.00279994
-5.69714e-11
0.00279994
-1.27529e-10
0.00279994
-2.82176e-10
0.00279994
-6.20803e-10
0.00279994
-1.36214e-09
0.00279994
-2.98561e-09
0.00279994
-6.5439e-09
0.00279994
-1.43578e-08
0.00279995
-3.15868e-08
0.00279996
-6.99081e-08
0.00279999
-1.56702e-07
0.00280006
-3.60623e-07
0.00280022
-8.73233e-07
0.00280064
-2.30561e-06
0.00280156
-7.4565e-06
0.00280998
-4.06871e-05
0.00264173
0.000614439
0.00240849
0.00106222
0.00213118
0.00136833
0.00180263
0.00173487
0.00145827
0.00211631
0.00111215
0.00212085
0.00077725
0.00212284
0.000493419
0.00189843
0.000792267
0.00279994
-2.25062e-13
0.00279994
-1.37524e-12
0.00279994
-4.48942e-12
0.00279994
-1.18426e-11
0.00279994
-2.84097e-11
0.00279994
-6.50694e-11
0.00279994
-1.45614e-10
0.00279994
-3.22082e-10
0.00279994
-7.08329e-10
0.00279994
-1.55355e-09
0.00279994
-3.40363e-09
0.00279994
-7.45666e-09
0.00279994
-1.63525e-08
0.00279995
-3.59571e-08
0.00279996
-7.95379e-08
0.00279999
-1.78185e-07
0.00280005
-4.09793e-07
0.00280019
-9.91433e-07
0.00280056
-2.61401e-06
0.00280133
-8.44906e-06
0.00280908
-4.69153e-05
0.00263349
0.000765168
0.00239526
0.00129147
0.00212071
0.00163847
0.00180198
0.00205065
0.00147872
0.00243766
0.00114148
0.00245725
0.000816093
0.00244817
0.000505137
0.00220927
0.00129602
0.00279994
-2.48599e-13
0.00279994
-1.51908e-12
0.00279994
-4.95883e-12
0.00279994
-1.308e-11
0.00279994
-3.13747e-11
0.00279994
-7.18505e-11
0.00279994
-1.60761e-10
0.00279994
-3.55515e-10
0.00279994
-7.81677e-10
0.00279994
-1.71399e-09
0.00279994
-3.75411e-09
0.00279994
-8.22204e-09
0.00279994
-1.80252e-08
0.00279995
-3.96212e-08
0.00279996
-8.76091e-08
0.00279998
-1.96178e-07
0.00280003
-4.50928e-07
0.00280015
-1.09011e-06
0.00280047
-2.87026e-06
0.00280107
-9.27348e-06
0.00280817
-5.25071e-05
0.00262745
0.00092113
0.00238036
0.0015297
0.00211662
0.00189778
0.00179853
0.00236569
0.00149731
0.00273683
0.00115775
0.00279572
0.000832133
0.00277345
0.000502851
0.00253861
0.00179767
0.00279994
-2.67405e-13
0.00279994
-1.63396e-12
0.00279994
-5.33369e-12
0.00279994
-1.40682e-11
0.00279994
-3.3744e-11
0.00279994
-7.72735e-11
0.00279994
-1.72887e-10
0.00279994
-3.82314e-10
0.00279994
-8.40554e-10
0.00279994
-1.84297e-09
0.00279994
-4.03634e-09
0.00279994
-8.8395e-09
0.00279994
-1.93772e-08
0.00279995
-4.25893e-08
0.00279995
-9.41627e-08
0.00279997
-2.10829e-07
0.00280002
-4.84533e-07
0.00280012
-1.17106e-06
0.00280038
-3.08202e-06
0.00280086
-9.95952e-06
0.00280705
-5.72219e-05
0.00261874
0.00108483
0.00237345
0.00176655
0.00210297
0.00216317
0.00180038
0.00266552
0.00151619
0.00301896
0.00116397
0.0031466
0.000842263
0.00309464
0.000490414
0.00289064
0.00228704
0.00279994
-2.81272e-13
0.00279994
-1.71863e-12
0.00279994
-5.60984e-12
0.00279994
-1.47965e-11
0.00279994
-3.54917e-11
0.00279994
-8.12801e-11
0.00279994
-1.81865e-10
0.00279994
-4.02202e-10
0.00279994
-8.84365e-10
0.00279994
-1.93923e-09
0.00279994
-4.24758e-09
0.00279994
-9.30308e-09
0.00279994
-2.03956e-08
0.00279994
-4.48323e-08
0.00279995
-9.91325e-08
0.00279997
-2.2198e-07
0.0028
-5.10213e-07
0.00280008
-1.2332e-06
0.0028003
-3.24538e-06
0.00280062
-1.04901e-05
0.00280582
-6.09819e-05
0.00261034
0.00125601
0.0023682
0.00200013
0.00209203
0.0024345
0.00179791
0.00295653
0.00151938
0.00329557
0.00117892
0.00348555
0.000874107
0.00339878
0.000486116
0.00327874
0.00277192
0.00279994
-2.89926e-13
0.00279994
-1.77139e-12
0.00279994
-5.7818e-12
0.00279994
-1.52503e-11
0.00279994
-3.65831e-11
0.00279994
-8.37907e-11
0.00279994
-1.87515e-10
0.00279994
-4.14781e-10
0.00279994
-9.12225e-10
0.00279994
-2.00078e-09
0.00279994
-4.38342e-09
0.00279994
-9.60281e-09
0.00279994
-2.10575e-08
0.00279994
-4.62974e-08
0.00279995
-1.02394e-07
0.00279996
-2.29328e-07
0.00279998
-5.27194e-07
0.00280004
-1.27437e-06
0.0028002
-3.35352e-06
0.00280035
-1.08427e-05
0.0028046
-6.38244e-05
0.00260433
0.00143226
0.00235966
0.00223616
0.00208552
0.00270392
0.00179429
0.0032446
0.00151468
0.00357321
0.00119311
0.00380555
0.000881849
0.00370938
0.000479528
0.00368097
0.00324995
0.00279994
-2.9303e-13
0.00279994
-1.79021e-12
0.00279994
-5.84292e-12
0.00279994
-1.54121e-11
0.00279994
-3.69763e-11
0.00279994
-8.47094e-11
0.00279994
-1.89624e-10
0.00279994
-4.19582e-10
0.00279994
-9.23109e-10
0.00279994
-2.02539e-09
0.00279994
-4.439e-09
0.00279994
-9.72817e-09
0.00279994
-2.13402e-08
0.00279994
-4.69357e-08
0.00279994
-1.03842e-07
0.00279995
-2.32648e-07
0.00279997
-5.34999e-07
0.0028
-1.29358e-06
0.0028001
-3.40454e-06
0.00280008
-1.10162e-05
0.00280331
-6.56943e-05
0.00259852
0.00161335
0.00235218
0.00247387
0.00207837
0.00297301
0.00179195
0.00352782
0.00151272
0.00385033
0.00119989
0.00411663
0.00087631
0.00403223
0.00047424
0.00408281
0.00372234
0.00279994
-2.90185e-13
0.00279994
-1.77263e-12
0.00279994
-5.78518e-12
0.00279994
-1.52609e-11
0.00279994
-3.66208e-11
0.00279994
-8.39213e-11
0.00279994
-1.87936e-10
0.00279994
-4.16042e-10
0.00279994
-9.15785e-10
0.00279994
-2.01039e-09
0.00279994
-4.40849e-09
0.00279994
-9.66651e-09
0.00279994
-2.12162e-08
0.00279994
-4.66873e-08
0.00279994
-1.03345e-07
0.00279994
-2.3165e-07
0.00279995
-5.32959e-07
0.00279996
-1.28921e-06
0.00279999
-3.39408e-06
0.00279979
-1.09977e-05
0.00280195
-6.65407e-05
0.00259343
0.00179851
0.00234435
0.00271431
0.00207247
0.00324025
0.00178988
0.00380719
0.00151137
0.00412681
0.00120298
0.0044233
0.000869221
0.00436516
0.000466756
0.00448482
0.00418691
0.00279994
-2.80909e-13
0.00279994
-1.71573e-12
0.00279994
-5.59905e-12
0.00279994
-1.47715e-11
0.00279994
-3.54567e-11
0.00279994
-8.12898e-11
0.00279994
-1.82146e-10
0.00279994
-4.03491e-10
0.00279994
-8.88792e-10
0.00279994
-1.95259e-09
0.00279994
-4.28498e-09
0.00279994
-9.40277e-09
0.00279994
-2.06527e-08
0.00279994
-4.54805e-08
0.00279994
-1.00745e-07
0.00279993
-2.25979e-07
0.00279993
-5.20261e-07
0.00279991
-1.25926e-06
0.00279987
-3.31673e-06
0.00279947
-1.07709e-05
0.0028005
-6.62946e-05
0.00258875
0.00198728
0.00233679
0.0029577
0.00206697
0.00350542
0.00178853
0.00408238
0.00151145
0.00440167
0.00120761
0.00472524
0.000865053
0.0047068
0.000462311
0.00488693
0.00464674
0.00279994
-2.64641e-13
0.00279994
-1.61605e-12
0.00279994
-5.27329e-12
0.00279994
-1.39145e-11
0.00279994
-3.34134e-11
0.00279994
-7.66538e-11
0.00279994
-1.71898e-10
0.00279994
-3.81144e-10
0.00279994
-8.40421e-10
0.00279994
-1.84827e-09
0.00279994
-4.06042e-09
0.00279994
-8.91955e-09
0.00279994
-1.96121e-08
0.00279993
-4.32338e-08
0.00279993
-9.58658e-08
0.00279992
-2.15247e-07
0.0027999
-4.96037e-07
0.00279986
-1.20172e-06
0.00279974
-3.16752e-06
0.00279914
-1.03228e-05
0.0027989
-6.48363e-05
0.00258386
0.00217974
0.0023302
0.00320288
0.00206171
0.00376928
0.0017879
0.00435297
0.00151229
0.00467521
0.00120991
0.00502572
0.000860883
0.0050548
0.000457932
0.00528902
0.00510186
0.00279994
-2.40714e-13
0.00279994
-1.46953e-12
0.00279994
-4.79467e-12
0.00279994
-1.26549e-11
0.00279994
-3.04077e-11
0.00279994
-6.98242e-11
0.00279994
-1.56769e-10
0.00279994
-3.48078e-10
0.00279994
-7.68653e-10
0.00279994
-1.69305e-09
0.00279994
-3.72525e-09
0.00279994
-8.19604e-09
0.00279994
-1.80489e-08
0.00279993
-3.98475e-08
0.00279993
-8.84862e-08
0.00279991
-1.98958e-07
0.00279988
-4.59127e-07
0.0027998
-1.11371e-06
0.00279961
-2.93837e-06
0.00279876
-9.62757e-06
0.00279718
-6.20685e-05
0.00257945
0.00237533
0.00232366
0.00345031
0.00205689
0.0040315
0.0017881
0.00461852
0.00151497
0.00494616
0.00121555
0.0053233
0.000860268
0.00540907
0.000456762
0.00569149
0.00555556
0.00279994
-2.08353e-13
0.00279994
-1.27143e-12
0.00279994
-4.1477e-12
0.00279994
-1.09521e-11
0.00279994
-2.63426e-11
0.00279994
-6.05803e-11
0.00279994
-1.36272e-10
0.00279994
-3.03223e-10
0.00279994
-6.71166e-10
0.00279994
-1.48191e-09
0.00279994
-3.26863e-09
0.00279994
-7.20885e-09
0.00279993
-1.59127e-08
0.00279993
-3.52128e-08
0.00279992
-7.83701e-08
0.0027999
-1.76595e-07
0.00279985
-4.08375e-07
0.00279974
-9.92539e-07
0.00279946
-2.6226e-06
0.00279836
-8.66775e-06
0.00279528
-5.7848e-05
0.00257455
0.00257441
0.00231801
0.00369861
0.00205307
0.0042919
0.00178924
0.00487921
0.0015185
0.00521479
0.00121956
0.00562018
0.000860452
0.00576697
0.000456197
0.00609449
0.0060084
0.00279994
-1.66635e-13
0.00279994
-1.01613e-12
0.00279994
-3.31407e-12
0.00279994
-8.75807e-12
0.00279994
-2.11036e-11
0.00279994
-4.86621e-11
0.00279994
-1.0983e-10
0.00279994
-2.45323e-10
0.00279994
-5.45235e-10
0.00279994
-1.20894e-09
0.00279994
-2.67785e-09
0.00279994
-5.93056e-09
0.00279993
-1.31443e-08
0.00279993
-2.92012e-08
0.00279991
-6.5237e-08
0.00279989
-1.47534e-07
0.00279983
-3.42355e-07
0.00279968
-8.34737e-07
0.00279929
-2.21086e-06
0.00279791
-7.41511e-06
0.00279323
-5.20683e-05
0.00257039
0.00277609
0.00231167
0.00394928
0.0020493
0.00454992
0.00179197
0.00513342
0.00152424
0.0054805
0.00122806
0.00591446
0.000864974
0.00612915
0.000458821
0.00649927
0.00646386
0.00279994
-1.14469e-13
0.00279994
-6.9694e-13
0.00279994
-2.27197e-12
0.00279994
-6.01541e-12
0.00279994
-1.4554e-11
0.00279994
-3.37602e-11
0.00279994
-7.6761e-11
0.00279994
-1.72888e-10
0.00279994
-3.87641e-10
0.00279994
-8.67234e-10
0.00279994
-1.93804e-09
0.00279994
-4.32933e-09
0.00279993
-9.67547e-09
0.00279992
-2.16666e-08
0.00279991
-4.87728e-08
0.00279987
-1.11095e-07
0.00279979
-2.59556e-07
0.0027996
-6.36799e-07
0.00279911
-1.69421e-06
0.00279742
-5.84489e-06
0.00279101
-4.45858e-05
0.00256539
0.00298112
0.00230661
0.00420016
0.00204699
0.00480523
0.00179553
0.00538186
0.00153137
0.0057426
0.00123597
0.00620794
0.000870144
0.00649338
0.000462998
0.00690485
0.00692293
0.00279994
-5.05349e-14
0.00279994
-3.05748e-13
0.00279994
-9.94914e-13
0.00279994
-2.65459e-12
0.00279994
-6.52842e-12
0.00279994
-1.54992e-11
0.00279994
-3.62347e-11
0.00279994
-8.41118e-11
0.00279994
-1.9448e-10
0.00279994
-4.4838e-10
0.00279994
-1.03119e-09
0.00279993
-2.36653e-09
0.00279993
-5.42365e-09
0.00279992
-1.24326e-08
0.0027999
-2.86009e-08
0.00279986
-6.6471e-08
0.00279976
-1.58246e-07
0.00279952
-3.94975e-07
0.00279892
-1.06475e-06
0.00279691
-3.93962e-06
0.00278864
-3.52787e-05
0.00256132
0.00318838
0.00230015
0.00445368
0.00204432
0.00505694
0.00180151
0.00562171
0.00154145
0.00600077
0.00124868
0.00649897
0.000881135
0.00686016
0.000469938
0.00731442
0.00738937
0.00279994
2.68032e-14
0.00279994
1.67392e-13
0.00279994
5.49539e-13
0.00279994
1.4097e-12
0.00279994
3.17675e-12
0.00279994
6.58317e-12
0.00279994
1.27725e-11
0.00279994
2.32455e-11
0.00279994
3.9124e-11
0.00279994
5.82236e-11
0.00279994
6.58285e-11
0.00279993
8.41728e-12
0.00279993
-2.77329e-10
0.00279992
-1.25158e-09
0.00279989
-4.16647e-09
0.00279984
-1.24157e-08
0.00279972
-3.56491e-08
0.00279943
-1.03471e-07
0.00279871
-3.13797e-07
0.00279637
-1.70525e-06
0.00278608
-2.39793e-05
0.00255578
0.00339928
0.00229541
0.0047066
0.00204319
0.00530516
0.0018085
0.00585373
0.0015536
0.00625375
0.00126307
0.00678753
0.000892043
0.00722923
0.00048025
0.00772447
0.00786545
0.00279994
1.19496e-13
0.00279994
7.34508e-13
0.00279994
2.40066e-12
0.00279994
6.28049e-12
0.00279994
1.4806e-11
0.00279994
3.30377e-11
0.00279994
7.14657e-11
0.00279994
1.51768e-10
0.00279994
3.18628e-10
0.00279994
6.63918e-10
0.00279994
1.37617e-09
0.00279993
2.84177e-09
0.00279993
5.85321e-09
0.00279991
1.20438e-08
0.00279988
2.48246e-08
0.00279982
5.15425e-08
0.00279968
1.08857e-07
0.00279934
2.38004e-07
0.00279849
5.54734e-07
0.00279588
8.18148e-07
0.00278343
-1.05503e-05
0.0025513
0.00361258
0.00228802
0.0049627
0.00204206
0.00554734
0.00181872
0.00607434
0.00156982
0.00650102
0.00128232
0.00707362
0.000910918
0.00759991
0.000493004
0.00814066
0.00835491
0.00279994
2.30062e-13
0.00279994
1.41093e-12
0.00279994
4.60852e-12
0.00279994
1.20901e-11
0.00279994
2.86776e-11
0.00279994
6.4596e-11
0.00279994
1.41486e-10
0.00279994
3.05089e-10
0.00279994
6.51986e-10
0.00279994
1.38596e-09
0.00279994
2.93686e-09
0.00279993
6.21196e-09
0.00279992
1.31314e-08
0.00279991
2.77873e-08
0.00279987
5.9039e-08
0.0027998
1.26712e-07
0.00279963
2.7788e-07
0.00279924
6.35321e-07
0.00279825
1.55949e-06
0.0027953
3.69673e-06
0.00278027
5.42629e-06
0.00254457
0.00383018
0.00228273
0.00521758
0.00204195
0.00578449
0.00183071
0.00628316
0.00158982
0.0067402
0.00130677
0.00735493
0.000928999
0.00797585
0.000511768
0.00855619
0.00886253
0.00279994
3.61466e-13
0.00279994
2.21465e-12
0.00279994
7.23186e-12
0.00279994
1.89956e-11
0.00279994
4.51786e-11
0.00279994
1.02178e-10
0.00279994
2.2499e-10
0.00279994
4.88239e-10
0.00279994
1.05094e-09
0.00279994
2.25182e-09
0.00279993
4.81239e-09
0.00279993
1.02711e-08
0.00279992
2.19178e-08
0.0027999
4.68405e-08
0.00279986
1.00559e-07
0.00279977
2.18216e-07
0.00279957
4.84439e-07
0.00279908
1.12373e-06
0.00279785
2.80885e-06
0.00279414
7.3383e-06
0.00277588
2.46094e-05
0.00253873
0.00404993
0.00227343
0.00547626
0.00204283
0.0060117
0.00184672
0.00647699
0.00161545
0.00697
0.00133814
0.00763082
0.000957771
0.00835544
0.000524263
0.00898814
0.00938338
0.00279994
5.16175e-13
0.00279994
3.16059e-12
0.00279994
1.03193e-11
0.00279994
2.71281e-11
0.00279994
6.46354e-11
0.00279994
1.46572e-10
0.00279994
3.23858e-10
0.00279994
7.0568e-10
0.00279994
1.52607e-09
0.00279994
3.28652e-09
0.00279993
7.06199e-09
0.00279993
1.51593e-08
0.00279992
3.2545e-08
0.0027999
6.99942e-08
0.00279984
1.51276e-07
0.00279973
3.30645e-07
0.00279948
7.39972e-07
0.00279887
1.73318e-06
0.00279731
4.38811e-06
0.00279257
1.20163e-05
0.00277025
4.78231e-05
0.00252944
0.00427409
0.00226563
0.00573374
0.00204362
0.00623046
0.00186603
0.00665246
0.00164743
0.0071873
0.00138223
0.00789452
0.000996851
0.00873917
0.000560238
0.00942331
0.00993985
0.00279994
6.95077e-13
0.00279994
4.25399e-12
0.00279994
1.38882e-11
0.00279994
3.65351e-11
0.00279994
8.71726e-11
0.00279994
1.98097e-10
0.00279994
4.38897e-10
0.00279994
9.59439e-10
0.00279994
2.08239e-09
0.00279994
4.50239e-09
0.00279993
9.71549e-09
0.00279993
2.09479e-08
0.00279991
4.51808e-08
0.00279989
9.76387e-08
0.00279983
2.12089e-07
0.00279969
4.66046e-07
0.00279938
1.04913e-06
0.00279864
2.47421e-06
0.00279672
6.32044e-06
0.00279093
1.77571e-05
0.00276442
7.51908e-05
0.00251867
0.00450387
0.00225204
0.00599428
0.00204752
0.00643202
0.00189007
0.00680799
0.00168621
0.0073899
0.00142884
0.00815074
0.00105797
0.00910895
0.00059743
0.00988259
0.010534
0.00279994
8.96615e-13
0.00279994
5.48525e-12
0.00279994
1.79069e-11
0.00279994
4.7136e-11
0.00279994
1.12607e-10
0.00279994
2.56365e-10
0.00279994
5.69332e-10
0.00279994
1.24804e-09
0.00279994
2.71724e-09
0.00279994
5.89493e-09
0.00279993
1.27661e-08
0.00279993
2.76286e-08
0.00279991
5.98214e-08
0.00279988
1.29795e-07
0.00279981
2.83102e-07
0.00279965
6.2475e-07
0.00279929
1.41278e-06
0.00279841
3.34879e-06
0.00279613
8.60776e-06
0.00278927
2.45648e-05
0.00275772
0.000107573
0.00250095
0.00474536
0.00223774
0.0062517
0.00205093
0.00661586
0.00191996
0.00693714
0.00173433
0.00757457
0.00147313
0.00841092
0.00112994
0.00945084
0.000644923
0.0103665
0.0111755
0.00279994
1.116e-12
0.00279994
6.82499e-12
0.00279994
2.22799e-11
0.00279994
5.868e-11
0.00279994
1.40345e-10
0.00279994
3.20048e-10
0.00279994
7.12278e-10
0.00279994
1.56535e-09
0.00279994
3.41779e-09
0.00279994
7.43775e-09
0.00279993
1.61604e-08
0.00279992
3.50963e-08
0.00279991
7.62653e-08
0.00279987
1.66096e-07
0.00279979
3.63689e-07
0.00279961
8.05854e-07
0.00279919
1.83024e-06
0.00279818
4.35956e-06
0.00279552
1.12753e-05
0.00278744
3.25879e-05
0.0027508
0.000145011
0.00247684
0.0050047
0.00221669
0.00650628
0.00206155
0.00676852
0.00195634
0.00704072
0.00180431
0.00772559
0.00154941
0.00866487
0.00121719
0.00978214
0.000695372
0.0108875
0.0118678
0.00279994
1.34472e-12
0.00279994
8.22096e-12
0.00279994
2.68355e-11
0.00279994
7.07127e-11
0.00279994
1.6929e-10
0.00279994
3.86623e-10
0.00279994
8.62071e-10
0.00279994
1.89883e-09
0.00279994
4.15657e-09
0.00279993
9.07102e-09
0.00279993
1.97691e-08
0.00279992
4.30723e-08
0.00279991
9.39172e-08
0.00279987
2.05273e-07
0.00279978
4.51168e-07
0.00279958
1.00365e-06
0.00279912
2.28916e-06
0.002798
5.47844e-06
0.00279502
1.42499e-05
0.00278591
4.16454e-05
0.00274298
0.000188697
0.00242945
0.00530433
0.00219452
0.00673607
0.00207492
0.0068851
0.00200181
0.00711245
0.00187539
0.0078513
0.00163608
0.0089034
0.00126978
0.0101476
0.000763545
0.011393
0.0126285
0.00279994
1.56928e-12
0.00279994
9.59409e-12
0.00279994
3.13222e-11
0.00279994
8.2568e-11
0.00279994
1.97823e-10
0.00279994
4.52302e-10
0.00279994
1.01004e-09
0.00279994
2.22882e-09
0.00279994
4.88924e-09
0.00279993
1.06952e-08
0.00279993
2.33699e-08
0.00279992
5.10636e-08
0.00279991
1.11691e-07
0.00279987
2.44961e-07
0.00279978
5.40441e-07
0.00279957
1.20735e-06
0.00279909
2.76716e-06
0.0027979
6.66174e-06
0.00279468
1.74687e-05
0.00278451
5.17534e-05
0.00273749
0.000236431
0.00235025
0.00567824
0.00217278
0.00690833
0.00210148
0.00695416
0.00205665
0.00715559
0.00193185
0.0079754
0.00167731
0.00915722
0.00132791
0.0104961
0.000837457
0.0118827
0.0134633
0.00279994
1.79253e-12
0.00279994
1.09182e-11
0.00279994
3.55393e-11
0.00279994
9.35845e-11
0.00279994
2.24199e-10
0.00279994
5.12847e-10
0.00279994
1.14615e-09
0.00279994
2.53169e-09
0.00279994
5.56007e-09
0.00279994
1.21785e-08
0.00279993
2.66491e-08
0.00279992
5.83207e-08
0.00279991
1.27788e-07
0.00279987
2.80817e-07
0.00279979
6.20971e-07
0.0027996
1.39122e-06
0.00279917
3.20126e-06
0.00279806
7.75728e-06
0.00279491
2.06093e-05
0.00278398
6.26143e-05
0.00273553
0.000285538
0.00217768
0.00622349
0.00215469
0.00692601
0.00215693
0.00695
0.00212403
0.00718718
0.00200083
0.00809787
0.00175421
0.00940343
0.00142287
0.0108268
0.000930094
0.0123752
0.0143916
0.0111998
2.23642e-12
0.0111998
1.37859e-11
0.0111998
4.53081e-11
0.0111998
1.19722e-10
0.0111998
2.86783e-10
0.0111998
6.5444e-10
0.0111998
1.45684e-09
0.0111998
3.20182e-09
0.0111997
6.9909e-09
0.0111997
1.52141e-08
0.0111997
3.3061e-08
0.0111997
7.18198e-08
0.0111997
1.56137e-07
0.0111996
3.40264e-07
0.0111995
7.45677e-07
0.0111992
1.6539e-06
0.0111986
3.76067e-06
0.0111973
8.97182e-06
0.0111945
2.32794e-05
0.0111886
6.81795e-05
0.0111783
0.000298053
0.0119736
0.00538453
0.0110041
0.00787292
0.0101919
0.00775351
0.00951066
0.00786486
0.00916043
0.00844683
0.00902195
0.00953985
0.00925368
0.0105908
0.0104497
0.0111762
0.00929068
0.015542
0.0111998
3.14329e-12
0.0111998
1.93872e-11
0.0111998
6.37424e-11
0.0111998
1.68428e-10
0.0111998
4.03307e-10
0.0111998
9.19778e-10
0.0111998
2.04581e-09
0.0111997
4.49179e-09
0.0111997
9.7965e-09
0.0111997
2.1294e-08
0.0111997
4.62136e-08
0.0111997
1.00257e-07
0.0111996
2.17652e-07
0.0111995
4.73617e-07
0.0111992
1.03625e-06
0.0111985
2.29424e-06
0.011197
5.20552e-06
0.0111934
1.23861e-05
0.0111844
3.20361e-05
0.0111591
9.31681e-05
0.0110672
0.00038895
0.0106527
0.00576182
0.0103455
0.00816012
0.01017
0.00791912
0.0100559
0.00797176
0.010137
0.0083604
0.0105762
0.0091042
0.0115028
0.00967021
0.0127158
0.00997454
0.0081674
0.0138487
0.0111998
4.74581e-12
0.0111998
2.92299e-11
0.0111998
9.59943e-11
0.0111998
2.53528e-10
0.0111998
6.07017e-10
0.0111998
1.3845e-09
0.0111997
3.08026e-09
0.0111997
6.76544e-09
0.0111997
1.47616e-08
0.0111997
3.21017e-08
0.0111997
6.97043e-08
0.0111997
1.51296e-07
0.0111995
3.28621e-07
0.0111993
7.15409e-07
0.0111987
1.56578e-06
0.0111975
3.46677e-06
0.0111947
7.86223e-06
0.011188
1.86846e-05
0.0111713
4.82221e-05
0.0111237
0.000139936
0.0109672
0.000543511
0.0106846
0.00600541
0.0105089
0.00831696
0.0103403
0.00807954
0.0104286
0.00788343
0.0108035
0.00798824
0.011454
0.00845498
0.0123416
0.0087854
0.0133326
0.00898899
0.00768046
0.0138243
0.0111998
7.21863e-12
0.0111998
4.43117e-11
0.0111998
1.45122e-10
0.0111998
3.82823e-10
0.0111998
9.16304e-10
0.0111998
2.09044e-09
0.0111997
4.65368e-09
0.0111997
1.02302e-08
0.0111997
2.23445e-08
0.0111997
4.86475e-08
0.0111997
1.05758e-07
0.0111996
2.2983e-07
0.0111994
4.99785e-07
0.011199
1.08918e-06
0.0111981
2.38568e-06
0.0111962
5.28328e-06
0.0111918
1.19722e-05
0.0111815
2.83871e-05
0.0111556
7.29811e-05
0.0110816
0.000212135
0.010854
0.000769326
0.010268
0.00655895
0.010626
0.00793866
0.0105219
0.00817903
0.010765
0.00764133
0.0111773
0.00757707
0.0118318
0.00780303
0.01259
0.00802546
0.0134262
0.00815084
0.00754873
0.0135595
0.0111998
1.04054e-11
0.0111998
6.36896e-11
0.0111998
2.08102e-10
0.0111998
5.48573e-10
0.0111998
1.31359e-09
0.0111997
3.00054e-09
0.0111997
6.69223e-09
0.0111997
1.47456e-08
0.0111997
3.2292e-08
0.0111997
7.05045e-08
0.0111997
1.53728e-07
0.0111995
3.35082e-07
0.0111993
7.30825e-07
0.0111987
1.59712e-06
0.0111975
3.50653e-06
0.0111948
7.77711e-06
0.0111887
1.76212e-05
0.0111746
4.16766e-05
0.0111394
0.00010673
0.0110377
0.000311645
0.0107022
0.00110099
0.00972123
0.00750961
0.010683
0.006974
0.0112076
0.00765735
0.0112286
0.00762518
0.0114636
0.00734523
0.0119704
0.00729829
0.0126326
0.0073656
0.0133507
0.00743312
0.00705319
0.0138461
0.0111998
1.39341e-11
0.0111998
8.30516e-11
0.0111998
2.65212e-10
0.0111998
6.91921e-10
0.0111998
1.65108e-09
0.0111998
3.77291e-09
0.0111997
8.43708e-09
0.0111997
1.86643e-08
0.0111997
4.10692e-08
0.0111997
9.01409e-08
0.0111997
1.97632e-07
0.0111995
4.33197e-07
0.0111993
9.49937e-07
0.0111987
2.08579e-06
0.0111975
4.59335e-06
0.0111947
1.01805e-05
0.0111888
2.28765e-05
0.0111761
5.29535e-05
0.0111496
0.000130796
0.0110821
0.000376313
0.0104892
0.0016835
0.0135174
0.00442568
0.0124079
0.00809256
0.0118875
0.00818453
0.0117188
0.0077972
0.0119785
0.00708909
0.0122812
0.00700229
0.0127522
0.0069013
0.0133421
0.00685251
0.00649183
0.013911
0.0111998
8.72129e-12
0.0111998
5.44294e-11
0.0111998
1.8075e-10
0.0111998
4.80109e-10
0.0111998
1.1534e-09
0.0111998
2.63711e-09
0.0111998
5.87941e-09
0.0111998
1.29399e-08
0.0111998
2.82918e-08
0.0111998
6.16512e-08
0.0111999
1.34124e-07
0.0112
2.91574e-07
0.0112003
6.33758e-07
0.0112009
1.3781e-06
0.0112024
3.00066e-06
0.0112059
6.55411e-06
0.0112139
1.44149e-05
0.0112337
3.21781e-05
0.0112886
7.41463e-05
0.0114781
0.000183002
0.0126016
0.000567791
0.0157993
0.00120016
0.0136217
0.0102661
0.0138411
0.00796876
0.0135959
0.00805372
0.0127434
0.00794467
0.012895
0.00685437
0.0131322
0.00667223
0.0135074
0.00648753
0.00609372
0.013913
0.0111998
8.08646e-12
0.0111998
4.87218e-11
0.0111998
1.57045e-10
0.0111998
4.11301e-10
0.0111998
9.82011e-10
0.0111998
2.24065e-09
0.0111998
4.99636e-09
0.0111998
1.10116e-08
0.0111998
2.41259e-08
0.0111998
5.27035e-08
0.0111998
1.14972e-07
0.0111998
2.50665e-07
0.0111999
5.46469e-07
0.0112001
1.19181e-06
0.0112005
2.60206e-06
0.0112013
5.69476e-06
0.0112031
1.2529e-05
0.0112072
2.78845e-05
0.0112172
6.36909e-05
0.0112446
0.000154685
0.0113596
0.000452611
0.0107581
0.00179213
0.0139947
0.00703079
0.0144396
0.00752688
0.0144064
0.00809766
0.0132867
0.00906183
0.013486
0.00664671
0.0136408
0.00651556
0.0137853
0.00634776
0.00587707
0.0140074
0.0111998
4.53575e-12
0.0111998
2.84179e-11
0.0111998
9.46582e-11
0.0111998
2.51669e-10
0.0111998
6.04378e-10
0.0111998
1.38007e-09
0.0111998
3.07091e-09
0.0111998
6.74236e-09
0.0111998
1.47008e-08
0.0111998
3.1938e-08
0.0111998
6.92577e-08
0.0111999
1.50043e-07
0.0112002
3.24914e-07
0.0112006
7.03534e-07
0.0112017
1.52386e-06
0.0112041
3.30415e-06
0.0112094
7.18223e-06
0.0112215
1.56997e-05
0.0112503
3.47425e-05
0.0113256
7.90489e-05
0.0115863
0.000191591
0.012715
0.000658079
0.0184807
0.00126096
0.0151575
0.0108556
0.0155245
0.00773044
0.0165904
0.00799276
0.0143854
0.00884202
0.014226
0.0066652
0.0142105
0.00635483
0.0058457
0.0142375
0.0111998
3.80177e-12
0.0111998
2.30147e-11
0.0111998
7.44837e-11
0.0111998
1.95413e-10
0.0111998
4.66748e-10
0.0111998
1.06452e-09
0.0111998
2.37148e-09
0.0111998
5.21977e-09
0.0111998
1.14187e-08
0.0111998
2.49025e-08
0.0111998
5.42267e-08
0.0111998
1.18e-07
0.0111999
2.56715e-07
0.0112
5.58534e-07
0.0112003
1.21569e-06
0.011201
2.64856e-06
0.0112024
5.78226e-06
0.0112053
1.26806e-05
0.0112119
2.80867e-05
0.0112271
6.36441e-05
0.0112658
0.000152443
0.0114851
0.000438068
0.0110116
0.001731
0.0155665
0.00630398
0.0157531
0.00754156
0.0159007
0.00783991
0.0160217
0.0087066
0.0149236
0.00774533
0.014606
0.00666632
0.00592579
0.0145236
0.0111998
2.13349e-12
0.0111998
1.33263e-11
0.0111998
4.42777e-11
0.0111998
1.17577e-10
0.0111998
2.82177e-10
0.0111998
6.44098e-10
0.0111998
1.43286e-09
0.0111998
3.14526e-09
0.0111998
6.85645e-09
0.0111998
1.4893e-08
0.0111998
3.22894e-08
0.0111998
6.99383e-08
0.0111999
1.5141e-07
0.0112002
3.27712e-07
0.0112007
7.09291e-07
0.0112018
1.53556e-06
0.0112042
3.32691e-06
0.0112096
7.22098e-06
0.0112219
1.57367e-05
0.0112507
3.46076e-05
0.0113249
7.77512e-05
0.0115778
0.000184402
0.0127042
0.000601995
0.0177033
0.00130236
0.0164285
0.00880947
0.0169485
0.0073183
0.0178152
0.00783607
0.0155427
0.0100006
0.0151885
0.00701332
0.00612894
0.0149899
0.0111998
1.62587e-12
0.0111998
9.91272e-12
0.0111998
3.22767e-11
0.0111998
8.49212e-11
0.0111998
2.03072e-10
0.0111998
4.63267e-10
0.0111998
1.03176e-09
0.0111998
2.26966e-09
0.0111998
4.9613e-09
0.0111998
1.08102e-08
0.0111998
2.35168e-08
0.0111998
5.11192e-08
0.0111998
1.11081e-07
0.0111999
2.41352e-07
0.0112001
5.24444e-07
0.0112005
1.13993e-06
0.0112013
2.4795e-06
0.0112031
5.40154e-06
0.011207
1.18067e-05
0.0112154
2.60015e-05
0.0112346
5.82677e-05
0.011282
0.000136352
0.0115156
0.000367089
0.011321
0.00149588
0.0170774
0.00303634
0.0161785
0.00821562
0.016499
0.00751448
0.0186953
0.00779848
0.0161574
0.00954104
0.00673084
0.0155595
0.0111998
1.00889e-12
0.0111998
6.19988e-12
0.0111998
2.03235e-11
0.0111998
5.36431e-11
0.0111998
1.28464e-10
0.0111998
2.93232e-10
0.0111998
6.53144e-10
0.0111998
1.4366e-09
0.0111998
3.13945e-09
0.0111998
6.83823e-09
0.0111998
1.48701e-08
0.0111998
3.23094e-08
0.0111998
7.01729e-08
0.0111999
1.52381e-07
0.0112001
3.30877e-07
0.0112005
7.18467e-07
0.0112014
1.56021e-06
0.0112034
3.38881e-06
0.0112079
7.36369e-06
0.0112178
1.60161e-05
0.011241
3.49204e-05
0.0113004
7.67262e-05
0.0114934
0.000173824
0.0124978
0.000490527
0.0139385
0.00159739
0.0173458
0.00480281
0.0166436
0.00820655
0.0168984
0.00753914
0.0187391
0.00769379
0.00892769
0.0165403
0.0111998
5.26575e-13
0.0111998
3.26761e-12
0.0111998
1.07972e-11
0.0111998
2.85927e-11
0.0111998
6.85198e-11
0.0111998
1.56261e-10
0.0111998
3.47381e-10
0.0111998
7.62061e-10
0.0111998
1.66021e-09
0.0111998
3.60383e-09
0.0111998
7.80806e-09
0.0111998
1.68999e-08
0.0111998
3.65584e-08
0.0111999
7.90586e-08
0.0112
1.70931e-07
0.0112004
3.69507e-07
0.0112012
7.98664e-07
0.0112028
1.72598e-06
0.0112064
3.72916e-06
0.0112144
8.05425e-06
0.0112319
1.73848e-05
0.011271