/*--------------------------------*- C++ -*----------------------------------*\
  =========                 |
  \\      /  F ield         | OpenFOAM: The Open Source CFD Toolbox
   \\    /   O peration     | Website:  https://openfoam.org
    \\  /    A nd           | Version:  6.0
     \\/     M anipulation  |
\*---------------------------------------------------------------------------*/
FoamFile
{
    version     2.0;
    format      ascii;
    class       volScalarField;
    location    "2";
    object      T;
}
// * * * * * * * * * * * * * * * * * * * * * * * * * * * * * * * * * * * * * //

dimensions      [0 0 0 1 0 0 0];

internalField   nonuniform List<scalar> 
2700
(
1
1
1
1
1.00001
1.00001
1.00002
1.00005
1.00011
1.00025
1.00054
1.00118
1.00256
1.00557
1.01216
1.02663
1.05884
1.13234
1.31034
1.76951
3.36621
2.0944
2.61768
2.78811
2.81178
2.79283
2.7917
2.81398
2.85403
2.92141
1
1
1
1
1.00001
1.00001
1.00002
1.00005
1.00011
1.00025
1.00054
1.00118
1.00256
1.00558
1.01216
1.02664
1.05885
1.13237
1.3104
1.76994
3.36553
2.09521
2.62002
2.78967
2.81144
2.79089
2.79047
2.80722
2.82496
2.93109
1
1
1
1
1.00001
1.00001
1.00002
1.00005
1.00011
1.00025
1.00054
1.00118
1.00256
1.00558
1.01217
1.02665
1.05887
1.13242
1.31051
1.77076
3.36415
2.09737
2.62287
2.79083
2.81073
2.78878
2.78937
2.80176
2.82271
2.94531
1
1
1
1
1.00001
1.00001
1.00002
1.00005
1.00011
1.00025
1.00054
1.00118
1.00256
1.00558
1.01217
1.02666
1.0589
1.13249
1.31066
1.77195
3.36215
2.10078
2.62615
2.79202
2.80941
2.78654
2.78776
2.79849
2.81916
2.94256
1
1
1
1
1.00001
1.00001
1.00002
1.00005
1.00011
1.00025
1.00054
1.00118
1.00256
1.00558
1.01218
1.02668
1.05894
1.13258
1.31084
1.77348
3.35947
2.10557
2.62962
2.7931
2.80791
2.78421
2.78604
2.79673
2.81161
2.89235
1
1
1
1
1.00001
1.00001
1.00002
1.00005
1.00011
1.00025
1.00054
1.00118
1.00257
1.00559
1.01219
1.0267
1.05898
1.13269
1.31105
1.77533
3.35619
2.1116
2.63359
2.79421
2.80573
2.78138
2.7844
2.7954
2.80598
2.87175
1
1
1
1
1.00001
1.00001
1.00002
1.00005
1.00011
1.00025
1.00054
1.00118
1.00257
1.00559
1.0122
1.02672
1.05903
1.13281
1.31128
1.77747
3.35228
2.11889
2.63851
2.79444
2.80414
2.77851
2.78238
2.79462
2.80211
2.85491
1
1
1
1
1.00001
1.00001
1.00002
1.00005
1.00011
1.00025
1.00054
1.00118
1.00257
1.0056
1.01221
1.02674
1.05909
1.13295
1.31153
1.77988
3.34764
2.1277
2.64244
2.79675
2.7993
2.77637
2.78085
2.7934
2.79946
2.84851
1
1
1
1
1.00001
1.00001
1.00002
1.00005
1.00011
1.00025
1.00054
1.00118
1.00257
1.0056
1.01222
1.02677
1.05915
1.13309
1.3118
1.78252
3.34236
2.13779
2.64612
2.79962
2.79527
2.77327
2.77883
2.79241
2.7961
2.83839
1
1
1
1
1.00001
1.00001
1.00002
1.00005
1.00012
1.00025
1.00054
1.00118
1.00257
1.00561
1.01223
1.0268
1.05921
1.13324
1.31208
1.78534
3.3365
2.14904
2.65063
2.80091
2.79192
2.76981
2.77579
2.79115
2.79423
2.83407
1
1
1
1
1.00001
1.00001
1.00002
1.00005
1.00012
1.00025
1.00054
1.00118
1.00258
1.00561
1.01225
1.02682
1.05927
1.1334
1.31236
1.7883
3.33002
2.16152
2.65548
2.80189
2.7882
2.76674
2.77301
2.78856
2.79029
2.82558
1
1
1
1
1.00001
1.00001
1.00002
1.00005
1.00012
1.00025
1.00055
1.00119
1.00258
1.00562
1.01226
1.02685
1.05933
1.13356
1.31265
1.79138
3.32293
2.17515
2.66074
2.80223
2.78425
2.76338
2.77008
2.78656
2.78793
2.82169
1
1
1
1
1.00001
1.00001
1.00002
1.00005
1.00012
1.00025
1.00055
1.00119
1.00258
1.00562
1.01227
1.02688
1.0594
1.13372
1.31293
1.79452
3.31523
2.18992
2.66636
2.80219
2.77997
2.7597
2.76677
2.78244
2.78292
2.81364
1
1
1
1
1.00001
1.00001
1.00002
1.00005
1.00012
1.00025
1.00055
1.00119
1.00259
1.00563
1.01228
1.02691
1.05946
1.13388
1.31321
1.79768
3.30688
2.20582
2.67205
2.802
2.77544
2.75609
2.76362
2.77975
2.77995
2.80951
1
1
1
1
1.00001
1.00001
1.00002
1.00005
1.00012
1.00025
1.00055
1.00119
1.00259
1.00564
1.0123
1.02694
1.05952
1.13403
1.31346
1.80083
3.2979
2.22277
2.67796
2.80151
2.77054
2.75166
2.75962
2.77413
2.77366
2.80093
1
1
1
1
1.00001
1.00001
1.00002
1.00005
1.00012
1.00025
1.00055
1.00119
1.00259
1.00564
1.01231
1.02696
1.05958
1.13417
1.31369
1.80392
3.28826
2.24077
2.68374
2.80069
2.76576
2.74775
2.75593
2.77066
2.76996
2.79626
1
1
1
1
1.00001
1.00001
1.00002
1.00005
1.00012
1.00025
1.00055
1.00119
1.00259
1.00565
1.01232
1.02698
1.05963
1.13429
1.31389
1.80688
3.27797
2.25973
2.68974
2.79934
2.76006
2.74278
2.75119
2.76384
2.76219
2.7869
1
1
1
1
1.00001
1.00001
1.00002
1.00005
1.00012
1.00025
1.00055
1.00119
1.00259
1.00565
1.01233
1.027
1.05967
1.1344
1.31404
1.80968
3.26699
2.27962
2.69542
2.79775
2.755
2.73825
2.74663
2.759
2.75759
2.78065
1
1
1
1
1.00001
1.00001
1.00002
1.00005
1.00012
1.00025
1.00055
1.00119
1.0026
1.00565
1.01233
1.02702
1.0597
1.13449
1.31414
1.81225
3.25532
2.30035
2.70134
2.79548
2.74858
2.73292
2.74088
2.75149
2.74811
2.77055
1
1
1
1
1.00001
1.00001
1.00002
1.00005
1.00012
1.00025
1.00055
1.00119
1.0026
1.00565
1.01234
1.02703
1.05972
1.13455
1.31418
1.81453
3.24292
2.3219
2.70669
2.79314
2.7432
2.7276
2.73533
2.74463
2.74241
2.76188
1
1
1
1
1.00001
1.00001
1.00002
1.00005
1.00012
1.00025
1.00055
1.00119
1.0026
1.00565
1.01234
1.02703
1.05973
1.13457
1.31414
1.81646
3.22975
2.34416
2.71227
2.78974
2.73608
2.72193
2.72867
2.73652
2.73082
2.75047
1
1
1
1
1.00001
1.00001
1.00002
1.00005
1.00012
1.00025
1.00055
1.00119
1.0026
1.00565
1.01233
1.02702
1.05971
1.13456
1.31402
1.81796
3.21575
2.36708
2.71712
2.78668
2.73043
2.71555
2.72163
2.72705
2.7236
2.73848
1
1
1
1
1.00001
1.00001
1.00002
1.00005
1.00012
1.00025
1.00055
1.00119
1.00259
1.00565
1.01233
1.02701
1.05968
1.1345
1.31382
1.81898
3.20093
2.39014
2.72195
2.78207
2.72301
2.70964
2.71403
2.71782
2.70897
2.72465
1
1
1
1
1.00001
1.00001
1.00002
1.00005
1.00012
1.00025
1.00055
1.00119
1.00259
1.00564
1.01232
1.02698
1.05963
1.13439
1.3135
1.81943
3.18524
2.41344
2.72595
2.77831
2.71683
2.70213
2.70549
2.7055
2.6995
2.70788
1
1
1
1
1.00001
1.00001
1.00002
1.00005
1.00012
1.00025
1.00055
1.00119
1.00259
1.00564
1.0123
1.02695
1.05955
1.1342
1.31303
1.81914
3.16879
2.43664
2.72954
2.77259
2.7098
2.69569
2.69648
2.69412
2.68042
2.68931
1
1
1
1
1.00001
1.00001
1.00002
1.00005
1.00012
1.00025
1.00055
1.00119
1.00258
1.00562
1.01227
1.02689
1.05943
1.13394
1.31236
1.818
3.15124
2.46036
2.73258
2.76823
2.7031
2.68728
2.68638
2.67808
2.66717
2.66448
1
1
1
1
1.00001
1.00001
1.00002
1.00005
1.00011
1.00025
1.00054
1.00118
1.00257
1.00561
1.01224
1.02682
1.05926
1.13356
1.31146
1.81583
3.13292
2.48326
2.73482
2.76197
2.6971
2.67992
2.67511
2.66422
2.63966
2.63592
1
1
1
1
1.00001
1.00001
1.00002
1.00005
1.00011
1.00025
1.00054
1.00118
1.00257
1.00559
1.01219
1.02672
1.05905
1.13307
1.31027
1.81248
3.11297
2.50725
2.73679
2.75728
2.69015
2.67078
2.66258
2.64437
2.61901
2.59535
1
1
1
1
1.00001
1.00001
1.00002
1.00005
1.00011
1.00025
1.00054
1.00117
1.00255
1.00556
1.01214
1.0266
1.05878
1.13245
1.30876
1.80767
3.09233
2.529
2.73848
2.75193
2.68537
2.66176
2.64761
2.6244
2.5789
2.54259
1
1
1
1
1
1.00001
1.00002
1.00005
1.00011
1.00025
1.00054
1.00117
1.00254
1.00553
1.01207
1.02645
1.05844
1.13167
1.30687
1.80128
3.06907
2.55357
2.74412
2.7409
2.68312
2.6515
2.63166
2.59918
2.5466
2.46897
1
1
1
1
1
1.00001
1.00002
1.00005
1.00011
1.00024
1.00053
1.00115
1.0025
1.00544
1.01188
1.02601
1.05745
1.1293
1.30083
1.78096
2.99307
2.62923
2.74068
2.73147
2.67389
2.62382
2.57837
2.52314
2.40663
2.30938
1
1
1
1
1
1.00001
1.00002
1.00005
1.00011
1.00024
1.00051
1.00111
1.00242
1.00528
1.01152
1.02524
1.05572
1.12531
1.29139
1.7479
2.9229
2.7022
2.74086
2.69611
2.63708
2.59134
2.53709
2.47912
2.34805
2.25874
1
1
1
1
1
1.00001
1.00002
1.00005
1.0001
1.00023
1.00049
1.00107
1.00232
1.00506
1.01103
1.02416
1.05333
1.11979
1.27834
1.70428
2.84408
2.76079
2.72452
2.68552
2.61032
2.5514
2.48556
2.43224
2.32379
2.24028
1
1
1
1
1
1.00001
1.00002
1.00004
1.0001
1.00021
1.00046
1.00099
1.00216
1.00471
1.01029
1.02253
1.0497
1.11143
1.25842
1.64344
2.73439
2.74932
2.68406
2.65957
2.59683
2.54411
2.46486
2.40652
2.31228
2.24076
1
1
1
1
1
1.00001
1.00002
1.00004
1.00009
1.00019
1.00041
1.00088
1.00192
1.00419
1.00914
1.02001
1.04411
1.09865
1.22766
1.55851
2.52547
2.68361
2.66783
2.62617
2.58464
2.53526
2.46592
2.39953
2.31894
2.24667
1
1
1
1
1
1.00001
1.00001
1.00003
1.00007
1.00015
1.00033
1.00072
1.00157
1.00341
1.00745
1.0163
1.03586
1.07983
1.18283
1.43586
2.2563
2.58367
2.6253
2.59979
2.5574
2.50775
2.4566
2.39908
2.3238
2.25682
1
1
1
1
1
1
1.00001
1.00002
1.00005
1.0001
1.00022
1.00048
1.00104
1.00227
1.00493
1.01073
1.02342
1.05153
1.11539
1.26609
1.6978
2.39584
2.55495
2.55446
2.53091
2.49385
2.44154
2.38591
2.32266
2.25954
1
1
1
1
1
1
1.00001
1.00002
1.00003
1.00007
1.00016
1.00035
1.00076
1.00164
1.00358
1.00779
1.017
1.03732
1.08296
1.18911
1.46021
2.18936
2.47073
2.50175
2.48823
2.46283
2.42359
2.37509
2.31287
2.25768
1
1
1
1
1
1
1
1.00001
1.00002
1.00005
1.0001
1.00022
1.00047
1.00102
1.0022
1.00478
1.01038
1.02262
1.04965
1.11107
1.25354
1.70483
2.28656
2.42991
2.42992
2.42266
2.39442
2.3486
2.29751
2.24521
1
1
1
1
1
1
1
1.00001
1.00001
1.00003
1.00007
1.00015
1.00032
1.0007
1.00153
1.00332
1.00723
1.01576
1.03454
1.07663
1.17373
1.42329
2.06353
2.36417
2.39228
2.38523
2.36179
2.32814
2.27777
2.23298
1
1
1
1
1
1
1
1
1.00001
1.00002
1.00004
1.00009
1.00019
1.00041
1.0009
1.00194
1.00421
1.00914
1.01989
1.04356
1.09704
1.22063
1.59636
2.14947
2.30864
2.31938
2.31349
2.28707
2.2432
2.20466
1
1
1
1
1
1
1
1
1.00001
1.00001
1.00003
1.00006
1.00012
1.00027
1.00058
1.00125
1.00272
1.00591
1.01288
1.02815
1.06218
1.13979
1.33436
1.8461
2.21029
2.2625
2.26211
2.25402
2.22381
2.1867
1
1
1
1
1
1
1
1
1
1.00001
1.00001
1.00003
1.00007
1.00014
1.00031
1.00068
1.00147
1.00318
1.00689
1.01497
1.0327
1.0723
1.16338
1.40989
1.89821
2.12954
2.1737
2.18562
2.18471
2.16704
1
1
1
1
1
1
1
1
1
1
1.00001
1.00002
1.00003
1.00007
1.00015
1.00033
1.00071
1.00153
1.0033
1.00712
1.01541
1.03357
1.07391
1.16944
1.42881
1.88416
2.05919
2.10203
2.10821
2.11095
1
1
1
1
1
1
1
1
1
1
1
1.00001
1.00002
1.00003
1.00007
1.00016
1.00034
1.00072
1.00156
1.00336
1.00724
1.01564
1.03402
1.07475
1.17259
1.43695
1.87645
2.0258
2.04036
2.03986
1
1
1
1
1
1
1
1
1
1
1
1
1.00001
1.00002
1.00004
1.00008
1.00018
1.00038
1.00083
1.00179
1.00387
1.00837
1.01818
1.03975
1.08799
1.20426
1.50865
1.87972
1.96674
1.96925
1
1
1
1
1
1
1
1
1
1
1
1
1
1.00001
1.00002
1.00004
1.00008
1.00018
1.00039
1.00084
1.00182
1.00392
1.00848
1.01839
1.04022
1.08876
1.21205
1.49567
1.77752
1.83536
1
1
1
1
1
1
1
1
1
1
1
1
1
1
1.00001
1.00001
1.00003
1.00006
1.00013
1.00028
1.00059
1.00126
1.00269
1.00572
1.01222
1.02632
1.05707
1.14021
1.31108
1.56805
1
1
1
1
1
1
1
1
1
1
1
1
1
1
1
1.00001
1.00001
1.00003
1.00006
1.00012
1.00026
1.00055
1.00118
1.00252
1.00538
1.01152
1.02475
1.05426
1.11908
1.33438
1
1
1
1
1
1
1
1
1
1
1
1
1
1
1
1
1.00001
1.00002
1.00004
1.00008
1.00016
1.00035
1.00077
1.00166
1.0036
1.00782
1.01699
1.03763
1.07899
1.23481
1
1
1
1
1
1
1
1
1
1
1
1
1
1
1
1
1
1.00001
1.00002
1.00004
1.00008
1.00017
1.00037
1.00079
1.0017
1.00367
1.00789
1.01709
1.03659
1.08624
1
1
1
1
1
1
1
1
1
1
1
1
1
1
1
1
1
1.00001
1.00001
1.00003
1.00006
1.00013
1.00029
1.00062
1.00135
1.00293
1.00636
1.01385
1.03013
1.06793
1
1
1
1
1
1
1
1
1
1
1
1
1
1
1
1
1
1
1.00001
1.00002
1.00005
1.0001
1.00022
1.00049
1.00106
1.0023
1.00501
1.0109
1.02393
1.05192
1
1
1
1
1
1
1
1
1
1
1
1
1
1
1
1
1
1
1.00001
1.00001
1.00003
1.00006
1.00014
1.0003
1.00065
1.0014
1.00305
1.00652
1.0151
1.02935
1
1
1
1
1
1
1
1
1
1
1
1
1
1
1
1
1
1
1
1.00001
1.00002
1.00005
1.00011
1.00023
1.0005
1.00109
1.00237
1.00513
1.01137
1.02354
1
1
1
1
1
1
1
1
1
1
1
1
1
1
1
1
1
1
1
1.00001
1.00001
1.00003
1.00007
1.00015
1.00033
1.0007
1.00153
1.00329
1.00732
1.01493
1
1
1
1
1
1
1
1
1
1
1
1
1
1
1
1
1
1
1
1.00001
1.00001
1.00003
1.00006
1.00012
1.00026
1.00056
1.00122
1.00262
1.00602
1.01183
1
1
1
1
1
1
1
1
1
1
1
1
1
1
1
1
1
1
1
1
1.00001
1.00002
1.00004
1.00009
1.0002
1.00042
1.00091
1.00193
1.0046
1.00855
1
1
1
1
1
1
1
1
1
1
1
1
1
1
1
1
1
1
1
1
1.00001
1.00002
1.00004
1.00008
1.00017
1.00036
1.00079
1.00166
1.00396
1.00738
1
1
1
1
1
1
1
1
1
1
1
1
1
1
1
1
1
1
1
1
1.00001
1.00001
1.00003
1.00007
1.00015
1.00032
1.00071
1.00152
1.00351
1.00684
2.16302
2.14962
2.23799
2.57679
2.44428
2.46725
2.45783
2.46005
2.46542
2.47707
2.48801
2.49805
2.51537
2.55044
2.60823
2.64242
2.68483
2.80476
2.85858
3.03047
3.22692
3.30294
3.2762
3.12536
2.92413
2.84308
2.81373
2.82313
2.84519
2.97412
2.14591
2.22321
2.32317
2.37057
2.33686
2.31904
2.32232
2.3314
2.35882
2.35648
2.34778
2.34979
2.36029
2.39548
2.40295
2.46212
2.46999
2.52218
2.52315
2.77892
2.94561
2.9596
2.82061
2.68264
2.54988
2.52931
2.57878
2.68239
2.73809
2.92254
2.16039
2.2138
2.24403
2.16927
2.13
2.13265
2.13862
2.15665
2.1563
2.15103
2.15022
2.15484
2.16968
2.20579
2.22521
2.27813
2.29148
2.30671
2.35734
2.49831
2.61143
2.69007
2.65289
2.56622
2.49147
2.5
2.51922
2.51684
2.58872
2.83601
2.16964
2.15109
2.10345
2.06263
2.03927
2.03526
2.03731
2.04202
2.04413
2.04023
2.04049
2.04724
2.06313
2.10133
2.12186
2.16844
2.19588
2.22871
2.27336
2.38571
2.39417
2.42886
2.42878
2.42358
2.40104
2.37029
2.37586
2.42336
2.51825
2.74198
2.1454
2.11299
2.07411
2.04261
2.00257
1.96433
1.95273
1.96109
1.97059
1.96906
1.9658
1.97046
1.98143
2.01212
2.05189
2.09419
2.11465
2.15537
2.19319
2.2217
2.27868
2.34281
2.38359
2.38908
2.39713
2.36936
2.33479
2.37247
2.44184
2.56919
2.13678
2.09328
2.05783
2.01787
1.96727
1.92551
1.91401
1.92018
1.93332
1.93305
1.93168
1.93391
1.94677
1.96688
2.02061
2.04764
2.06088
2.08717
2.10851
2.10703
2.11406
2.13406
2.16022
2.20152
2.27697
2.3214
2.35759
2.36342
2.37706
2.42922
2.1405
2.08587
2.04302
2.00259
1.95012
1.90609
1.8941
1.89648
1.90188
1.90036
1.89614
1.89852
1.91167
1.93087
1.98397
2.01016
2.02697
2.03887
2.03847
2.03639
2.02278
2.02306
2.02965
2.06508
2.14161
2.22594
2.30831
2.36871
2.35456
2.34717
2.1404
2.08042
2.03333
1.99365
1.94155
1.89116
1.87543
1.87641
1.87842
1.87476
1.87139
1.87311
1.88644
1.9106
1.95992
1.97956
2.00109
1.99416
1.98008
1.96766
1.95615
1.95
1.94719
1.9699
2.00564
2.05915
2.14676
2.23349
2.16567
2.09382
2.13747
2.07519
2.0277
1.98989
1.93791
1.8805
1.86291
1.86223
1.86348
1.85765
1.8533
1.85318
1.86272
1.89407
1.93465
1.97018
1.99281
1.95595
1.92317
1.893
1.87872
1.88198
1.88081
1.86465
1.84965
1.86445
1.8687
1.8623
1.88958
2.02508
2.13177
2.06768
2.01905
1.9824
1.93066
1.8732
1.8542
1.85543
1.85627
1.85041
1.84264
1.84091
1.84912
1.87939
1.92242
1.97847
1.96195
1.91217
1.86636
1.83009
1.80402
1.79233
1.80753
1.77573
1.74323
1.72843
1.73465
1.77367
1.75621
1.76518
2.11869
2.05852
2.00971
1.97391
1.92448
1.86892
1.84694
1.84849
1.85143
1.84858
1.83796
1.83519
1.8449
1.87748
1.92145
1.95029
1.93276
1.87435
1.82348
1.78877
1.76864
1.73094
1.72842
1.71251
1.66727
1.63866
1.65098
1.71671
1.73257
1.70964
2.10457
2.05155
2.00566
1.97205
1.92387
1.87044
1.8473
1.84797
1.85147
1.85023
1.84035
1.83987
1.85393
1.89653
1.93761
1.9241
1.90147
1.84999
1.80612
1.7698
1.74033
1.70701
1.64348
1.63147
1.62257
1.59527
1.59335
1.62224
1.6649
1.70029
2.08747
2.03842
1.99762
1.96991
1.92496
1.874
1.84914
1.85029
1.86068
1.86178
1.85554
1.85968
1.87704
1.9173
1.91827
1.90357
1.87062
1.82435
1.79276
1.76601
1.73842
1.68757
1.6069
1.56147
1.55485
1.56697
1.57055
1.59124
1.60527
1.6464
2.06606
2.02773
1.9947
1.97104
1.92754
1.87957
1.85446
1.86243
1.88414
1.88967
1.88845
1.88722
1.88643
1.90466
1.90061
1.88195
1.83586
1.79251
1.77448
1.7641
1.73907
1.67284
1.59356
1.53099
1.5166
1.52338
1.5494
1.57229
1.58576
1.60367
2.01924
2.00158
1.9887
1.97332
1.93434
1.88486
1.8637
1.874
1.89615
1.89659
1.89283
1.88428
1.8844
1.88716
1.88425
1.86506
1.80332
1.75794
1.74138
1.73559
1.71506
1.65723
1.5849
1.51789
1.48385
1.4877
1.50741
1.54213
1.56515
1.58228
1.98606
1.98433
1.9738
1.96839
1.94287
1.89587
1.8773
1.87249
1.87766
1.88312
1.88194
1.87721
1.88155
1.88089
1.87872
1.85162
1.78177
1.7149
1.6958
1.69228
1.68114
1.63621
1.57491
1.51093
1.46791
1.45867
1.46922
1.49872
1.52914
1.56238
1.93058
1.9514
1.96239
1.95785
1.93576
1.89002
1.87681
1.86865
1.87116
1.87765
1.87765
1.8789
1.88497
1.87062
1.86332
1.83984
1.77771
1.6988
1.66408
1.66178
1.64503
1.61923
1.56686
1.50343
1.46159
1.43661
1.44314
1.4636
1.48187
1.52075
1.87229
1.91026
1.93446
1.9443
1.92202
1.87751
1.87125
1.85879
1.86596
1.87114
1.87402
1.88013
1.89384
1.87303
1.8513
1.83697
1.78027
1.68801
1.65171
1.63694
1.61477
1.59509
1.55783
1.49603
1.45319
1.42818
1.42396
1.42719
1.4406
1.47924
1.83124
1.87817
1.9014
1.91806
1.9076
1.86719
1.85983
1.85976
1.86833
1.87419
1.88267
1.89335
1.92448
1.90634
1.87966
1.84971
1.76112
1.68211
1.64131
1.61967
1.59758
1.56828
1.53574
1.48547
1.44101
1.41468
1.40562
1.39629
1.39732
1.41653
1.73748
1.8309
1.85935
1.88723
1.88879
1.86528
1.8596
1.87866
1.889
1.90159
1.92007
1.96573
1.94081
1.91808
1.88851
1.82723
1.74273
1.66764
1.62179
1.59747
1.58007
1.54735
1.50962
1.47388
1.4332
1.4025
1.37888
1.3751
1.36919
1.38233
1.61298
1.78279
1.81633
1.85194
1.8686
1.86323
1.87264
1.91278
1.93072
1.96329
2.01595
1.96568
1.93877
1.89112
1.87242
1.80517
1.7196
1.64771
1.60276
1.57511
1.55425
1.53065
1.49288
1.45919
1.41667
1.38728
1.36119
1.35705
1.34983
1.36794
1.52715
1.76969
1.79563
1.82212
1.839
1.8501
1.88288
1.93156
1.9562
1.97754
1.99975
1.95028
1.88809
1.86912
1.86064
1.78667
1.70124
1.63486
1.58877
1.55138
1.52572
1.50752
1.4809
1.45021
1.40054
1.37186
1.34762
1.33726
1.33051
1.35028
1.40882
1.69348
1.76471
1.79181
1.82385
1.84433
1.88454
1.92949
1.97267
1.99585
1.98732
1.92445
1.8822
1.86812
1.83703
1.76246
1.67929
1.61908
1.57502
1.53711
1.50856
1.49132
1.46909
1.44374
1.39687
1.35739
1.33354
1.3211
1.31498
1.33092
1.23796
1.5699
1.73639
1.77909
1.81013
1.83353
1.88656
1.94989
1.99907
2.00601
2.01067
1.9465
1.87503
1.83482
1.80826
1.73276
1.66303
1.60092
1.55464
1.51926
1.49224
1.47688
1.45756
1.43458
1.39382
1.35395
1.32288
1.30797
1.30525
1.32148
1.14853
1.48795
1.67882
1.75185
1.79274
1.83914
1.91223
2.03488
2.03858
2.04245
2.00897
1.92819
1.84181
1.81791
1.78743
1.71821
1.64768
1.5844
1.53496
1.50022
1.47672
1.46276
1.44484
1.42323
1.38582
1.35113
1.3195
1.30418
1.30099
1.31265
1.08613
1.31097
1.5951
1.71349
1.76238
1.85594
2.01633
2.09999
2.08046
2.02925
1.9709
1.88979
1.83564
1.81141
1.76571
1.69769
1.62826
1.56381
1.51655
1.48393
1.46443
1.45373
1.43202
1.40655
1.37107
1.34088
1.31242
1.29956
1.29717
1.30861
1.07314
1.2213
1.52995
1.69355
1.79192
1.91396
2.12347
2.12554
2.06954
2.00015
1.92225
1.87608
1.83789
1.80673
1.75485
1.69053
1.62396
1.56089
1.51392
1.48142
1.46088
1.44878
1.42601
1.39909
1.3641
1.335
1.30857
1.29456
1.29252
1.30547
1.05728
1.15679
1.4055
1.65741
1.79113
2.06123
2.11099
2.10376
2.05882
1.97838
1.91116
1.86759
1.83656
1.80329
1.75351
1.69065
1.62546
1.56377
1.5155
1.48435
1.46436
1.44862
1.42556
1.40417
1.37617
1.34865
1.32082
1.30275
1.29705
1.30623
1.04856
1.12523
1.32523
1.69777
1.82462
1.98363
2.03618
2.05614
2.06556
1.98962
1.92827
1.8994
1.87197
1.83129
1.78079
1.71835
1.64494
1.57315
1.5176
1.48388
1.46681
1.45471
1.4325
1.41143
1.38628
1.36259
1.34005
1.32422
1.318
1.32477
1.04116
1.10923
1.27305
1.58046
2.09749
2.26714
2.24396
2.21327
2.16123
2.07203
2.03752
1.99098
1.94268
1.89906
1.85014
1.77805
1.68961
1.61025
1.55572
1.52181
1.50582
1.49267
1.46279
1.43145
1.39505
1.36562
1.35113
1.34077
1.33384
1.34046
)
;

boundaryField
{
    inlet
    {
        type            fixedValue;
        value           uniform 1;
    }
    outlet
    {
        type            inletOutlet;
        inletValue      uniform 1;
        value           nonuniform List<scalar> 
30
(
2.97438
2.92243
2.83583
2.74243
2.56896
2.42896
2.34739
2.09331
2.02555
1.76508
1.70897
1.7004
1.64668
1.60376
1.58228
1.56242
1.52091
1.47949
1.41652
1.38227
1.36795
1.35029
1.33092
1.32149
1.31264
1.3086
1.30547
1.30623
1.32477
1.34046
)
;
    }
    top
    {
        type            symmetryPlane;
    }
    bottom
    {
        type            symmetryPlane;
    }
    step
    {
        type            zeroGradient;
    }
    defaultFaces
    {
        type            empty;
    }
}


// ************************************************************************* //
