/*--------------------------------*- C++ -*----------------------------------*\
  =========                 |
  \\      /  F ield         | OpenFOAM: The Open Source CFD Toolbox
   \\    /   O peration     | Website:  https://openfoam.org
    \\  /    A nd           | Version:  6.0
     \\/     M anipulation  |
\*---------------------------------------------------------------------------*/
FoamFile
{
    version     2.0;
    format      ascii;
    class       volVectorField;
    location    "2";
    object      U;
}
// * * * * * * * * * * * * * * * * * * * * * * * * * * * * * * * * * * * * * //

dimensions      [0 1 -1 0 0 0 0];

internalField   nonuniform List<vector> 
2700
(
(3 -7.97128e-12 0)
(3 -4.87641e-11 0)
(3 -1.59407e-10 0)
(3 -4.21107e-10 0)
(3 -1.01201e-09 0)
(2.99999 -2.32308e-09 0)
(2.99998 -5.21279e-09 0)
(2.99996 -1.1567e-08 0)
(2.99991 -2.55307e-08 0)
(2.99979 -5.62201e-08 0)
(2.99955 -1.23703e-07 0)
(2.99903 -2.7221e-07 0)
(2.99789 -5.99452e-07 0)
(2.9954 -1.32217e-06 0)
(2.98995 -2.92508e-06 0)
(2.97793 -6.5103e-06 0)
(2.95095 -1.46734e-05 0)
(2.8882 -3.397e-05 0)
(2.73059 -8.33285e-05 0)
(2.26345 -0.000241078 0)
(-0.0933754 -0.00101548 0)
(-1.74444 0.00157934 0)
(-0.996356 0.00460287 0)
(-0.312958 0.00816511 0)
(0.110548 0.0129529 0)
(0.310593 0.0219356 0)
(0.331836 0.0272509 0)
(0.176279 0.0382362 0)
(-0.0221222 -0.0124767 0)
(0.0104752 -0.000179793 0)
(3 -2.36291e-11 0)
(3 -1.44543e-10 0)
(3 -4.72459e-10 0)
(3 -1.2479e-09 0)
(3 -2.99825e-09 0)
(2.99999 -6.88028e-09 0)
(2.99998 -1.54323e-08 0)
(2.99996 -3.4226e-08 0)
(2.99991 -7.54977e-08 0)
(2.99979 -1.66132e-07 0)
(2.99955 -3.65241e-07 0)
(2.99903 -8.02936e-07 0)
(2.99789 -1.76615e-06 0)
(2.9954 -3.88999e-06 0)
(2.98995 -8.59052e-06 0)
(2.97792 -1.90731e-05 0)
(2.95095 -4.28313e-05 0)
(2.88818 -9.85398e-05 0)
(2.73052 -0.000238711 0)
(2.26312 -0.000677544 0)
(-0.0931544 -0.00297129 0)
(-1.74358 0.00496743 0)
(-0.991448 0.0138184 0)
(-0.302923 0.0237723 0)
(0.124715 0.0360463 0)
(0.323296 0.0543646 0)
(0.339284 0.0578461 0)
(0.207705 0.0645616 0)
(0.106247 0.0249838 0)
(0.0379345 0.0134737 0)
(3 -3.84956e-11 0)
(3 -2.3547e-10 0)
(3 -7.69561e-10 0)
(3 -2.03214e-09 0)
(3 -4.88071e-09 0)
(2.99999 -1.11945e-08 0)
(2.99998 -2.5093e-08 0)
(2.99996 -5.56093e-08 0)
(2.99991 -1.22556e-07 0)
(2.99979 -2.69406e-07 0)
(2.99955 -5.91591e-07 0)
(2.99903 -1.29879e-06 0)
(2.99789 -2.85244e-06 0)
(2.9954 -6.27119e-06 0)
(2.98994 -1.38189e-05 0)
(2.97791 -3.05962e-05 0)
(2.95093 -6.84444e-05 0)
(2.88813 -0.000156518 0)
(2.7304 -0.000374903 0)
(2.2625 -0.00104797 0)
(-0.0920695 -0.00479253 0)
(-1.74068 0.00884628 0)
(-0.985067 0.0238205 0)
(-0.29155 0.0406068 0)
(0.139697 0.0608452 0)
(0.335003 0.0867688 0)
(0.344825 0.0895145 0)
(0.224641 0.0920811 0)
(0.114281 0.0580269 0)
(0.0540379 0.0102944 0)
(3 -5.22078e-11 0)
(3 -3.19325e-10 0)
(3 -1.04347e-09 0)
(3 -2.75476e-09 0)
(3 -6.61381e-09 0)
(2.99999 -1.5162e-08 0)
(2.99998 -3.39649e-08 0)
(2.99996 -7.52142e-08 0)
(2.99991 -1.6562e-07 0)
(2.99979 -3.63715e-07 0)
(2.99955 -7.97818e-07 0)
(2.99903 -1.74944e-06 0)
(2.99789 -3.83702e-06 0)
(2.99539 -8.42321e-06 0)
(2.98994 -1.85293e-05 0)
(2.9779 -4.09428e-05 0)
(2.9509 -9.13586e-05 0)
(2.88807 -0.000208179 0)
(2.73022 -0.000495723 0)
(2.26161 -0.00137783 0)
(-0.0901953 -0.00647519 0)
(-1.73584 0.0130738 0)
(-0.977275 0.0341515 0)
(-0.279123 0.0574564 0)
(0.154966 0.0848939 0)
(0.345652 0.115718 0)
(0.348811 0.118035 0)
(0.234151 0.118514 0)
(0.12014 0.095859 0)
(0.0687749 0.0263637 0)
(3 -6.45411e-11 0)
(3 -3.94737e-10 0)
(3 -1.28973e-09 0)
(3 -3.40419e-09 0)
(3 -8.17053e-09 0)
(2.99999 -1.87231e-08 0)
(2.99998 -4.19212e-08 0)
(2.99996 -9.27778e-08 0)
(2.99991 -2.04157e-07 0)
(2.99979 -4.48012e-07 0)
(2.99955 -9.81932e-07 0)
(2.99903 -2.15128e-06 0)
(2.99788 -4.71395e-06 0)
(2.99539 -1.03378e-05 0)
(2.98993 -2.27159e-05 0)
(2.97789 -5.01308e-05 0)
(2.95087 -0.000111693 0)
(2.888 -0.000254008 0)
(2.73 -0.000602916 0)
(2.26048 -0.00167223 0)
(-0.0874622 -0.00800876 0)
(-1.72906 0.0176428 0)
(-0.967945 0.04481 0)
(-0.265805 0.0742443 0)
(0.170203 0.108047 0)
(0.355312 0.142209 0)
(0.351765 0.144301 0)
(0.241112 0.144052 0)
(0.125632 0.12672 0)
(0.0992658 0.0704406 0)
(3 -7.53615e-11 0)
(3 -4.60892e-10 0)
(3 -1.50573e-09 0)
(3 -3.97368e-09 0)
(3 -9.53524e-09 0)
(2.99999 -2.18439e-08 0)
(2.99998 -4.88912e-08 0)
(2.99996 -1.08158e-07 0)
(2.99991 -2.3789e-07 0)
(2.99979 -5.2177e-07 0)
(2.99955 -1.14297e-06 0)
(2.99903 -2.50266e-06 0)
(2.99788 -5.48061e-06 0)
(2.99539 -1.20116e-05 0)
(2.98993 -2.63761e-05 0)
(2.97787 -5.81664e-05 0)
(2.95084 -0.000129488 0)
(2.88791 -0.000294154 0)
(2.72974 -0.000696971 0)
(2.25912 -0.00193252 0)
(-0.0838659 -0.0093897 0)
(-1.72034 0.0225458 0)
(-0.957316 0.0558013 0)
(-0.25154 0.0910324 0)
(0.185425 0.130647 0)
(0.364099 0.167112 0)
(0.35381 0.169632 0)
(0.245637 0.168607 0)
(0.127163 0.151075 0)
(0.099484 0.0876562 0)
(3 -8.45842e-11 0)
(3 -5.17271e-10 0)
(3 -1.68978e-09 0)
(3 -4.45888e-09 0)
(3 -1.06979e-08 0)
(2.99999 -2.45028e-08 0)
(2.99998 -5.48294e-08 0)
(2.99996 -1.21262e-07 0)
(2.99991 -2.66629e-07 0)
(2.99979 -5.84612e-07 0)
(2.99955 -1.28017e-06 0)
(2.99903 -2.80201e-06 0)
(2.99788 -6.13367e-06 0)
(2.99538 -1.3437e-05 0)
(2.98992 -2.94925e-05 0)
(2.97786 -6.50044e-05 0)
(2.95079 -0.000144619 0)
(2.88781 -0.000328243 0)
(2.72945 -0.000776583 0)
(2.25755 -0.00215378 0)
(-0.079341 -0.0106189 0)
(-1.70966 0.0277293 0)
(-0.945461 0.0672834 0)
(-0.236092 0.107597 0)
(0.200282 0.153075 0)
(0.372179 0.190724 0)
(0.355109 0.194844 0)
(0.247706 0.192834 0)
(0.126019 0.173552 0)
(0.0960403 0.114688 0)
(3 -9.21456e-11 0)
(3 -5.63489e-10 0)
(3 -1.84064e-09 0)
(3 -4.85664e-09 0)
(3 -1.16513e-08 0)
(2.99999 -2.66841e-08 0)
(2.99998 -5.9704e-08 0)
(2.99996 -1.32026e-07 0)
(2.99991 -2.90257e-07 0)
(2.99979 -6.36318e-07 0)
(2.99955 -1.39316e-06 0)
(2.99903 -3.04874e-06 0)
(2.99788 -6.67243e-06 0)
(2.99538 -1.4614e-05 0)
(2.98991 -3.20678e-05 0)
(2.97784 -7.06597e-05 0)
(2.95075 -0.000157142 0)
(2.8877 -0.000356471 0)
(2.72913 -0.00084251 0)
(2.2558 -0.00233832 0)
(-0.0738071 -0.011673 0)
(-1.697 0.0332273 0)
(-0.931742 0.0791516 0)
(-0.220633 0.12418 0)
(0.2157 0.175207 0)
(0.379724 0.213147 0)
(0.355988 0.220691 0)
(0.247828 0.217123 0)
(0.123513 0.197691 0)
(0.0920226 0.1475 0)
(3 -9.79802e-11 0)
(3 -5.99145e-10 0)
(3 -1.95703e-09 0)
(3 -5.1636e-09 0)
(3 -1.23877e-08 0)
(2.99999 -2.83706e-08 0)
(2.99998 -6.34786e-08 0)
(2.99996 -1.40376e-07 0)
(2.99991 -3.08622e-07 0)
(2.99979 -6.76595e-07 0)
(2.99955 -1.48137e-06 0)
(2.99902 -3.24184e-06 0)
(2.99788 -7.09516e-06 0)
(2.99538 -1.55401e-05 0)
(2.9899 -3.41001e-05 0)
(2.97781 -7.51372e-05 0)
(2.9507 -0.000167094 0)
(2.88758 -0.000379003 0)
(2.72878 -0.000895449 0)
(2.25391 -0.00248814 0)
(-0.0672552 -0.0125213 0)
(-1.68237 0.039117 0)
(-0.916593 0.091053 0)
(-0.204676 0.141384 0)
(0.230831 0.196756 0)
(0.387202 0.234824 0)
(0.356634 0.246927 0)
(0.246918 0.24096 0)
(0.122043 0.224504 0)
(0.0890955 0.184346 0)
(3 -1.02002e-10 0)
(3 -6.23714e-10 0)
(3 -2.03721e-09 0)
(3 -5.37523e-09 0)
(3 -1.28961e-08 0)
(2.99999 -2.95378e-08 0)
(2.99998 -6.60984e-08 0)
(2.99996 -1.46191e-07 0)
(2.99991 -3.21458e-07 0)
(2.99979 -7.04851e-07 0)
(2.99955 -1.54349e-06 0)
(2.99902 -3.37836e-06 0)
(2.99788 -7.39518e-06 0)
(2.99537 -1.61998e-05 0)
(2.98989 -3.55533e-05 0)
(2.97779 -7.835e-05 0)
(2.95065 -0.000174258 0)
(2.88745 -0.000395267 0)
(2.72842 -0.000933686 0)
(2.25189 -0.00259765 0)
(-0.0596141 -0.0131595 0)
(-1.66578 0.0453778 0)
(-0.900267 0.103068 0)
(-0.187636 0.159058 0)
(0.245456 0.218156 0)
(0.394596 0.256418 0)
(0.356968 0.272497 0)
(0.245443 0.264455 0)
(0.121321 0.253514 0)
(0.0870865 0.221381 0)
(3 -1.04101e-10 0)
(3 -6.36529e-10 0)
(3 -2.07903e-09 0)
(3 -5.48581e-09 0)
(3 -1.31629e-08 0)
(2.99999 -3.01542e-08 0)
(2.99998 -6.74932e-08 0)
(2.99996 -1.49315e-07 0)
(2.99991 -3.28421e-07 0)
(2.99979 -7.20332e-07 0)
(2.99955 -1.57787e-06 0)
(2.99902 -3.45463e-06 0)
(2.99787 -7.56433e-06 0)
(2.99537 -1.6575e-05 0)
(2.98988 -3.63865e-05 0)
(2.97777 -8.02059e-05 0)
(2.95059 -0.000178423 0)
(2.88732 -0.000404767 0)
(2.72804 -0.00095601 0)
(2.24979 -0.00266395 0)
(-0.0508081 -0.0135889 0)
(-1.64721 0.0519826 0)
(-0.882565 0.1154 0)
(-0.169794 0.176924 0)
(0.259867 0.23964 0)
(0.401684 0.278314 0)
(0.356994 0.297192 0)
(0.243867 0.288454 0)
(0.121162 0.283581 0)
(0.0854739 0.257021 0)
(3 -1.04148e-10 0)
(3 -6.36789e-10 0)
(3 -2.07987e-09 0)
(3 -5.48848e-09 0)
(3 -1.31716e-08 0)
(2.99999 -3.01824e-08 0)
(2.99998 -6.75794e-08 0)
(2.99996 -1.49565e-07 0)
(2.9999 -3.2911e-07 0)
(2.99979 -7.22166e-07 0)
(2.99955 -1.5826e-06 0)
(2.99902 -3.46654e-06 0)
(2.99787 -7.59378e-06 0)
(2.99536 -1.66467e-05 0)
(2.98987 -3.65592e-05 0)
(2.97774 -8.06183e-05 0)
(2.95054 -0.000179406 0)
(2.88719 -0.000407116 0)
(2.72766 -0.000961621 0)
(2.24764 -0.00268543 0)
(-0.0407913 -0.013802 0)
(-1.62664 0.0589399 0)
(-0.863535 0.128095 0)
(-0.151101 0.194992 0)
(0.274107 0.261187 0)
(0.408404 0.300507 0)
(0.356811 0.321559 0)
(0.2424 0.31349 0)
(0.121449 0.314057 0)
(0.0839486 0.291955 0)
(3 -1.01983e-10 0)
(3 -6.23534e-10 0)
(3 -2.03661e-09 0)
(3 -5.375e-09 0)
(3 -1.29027e-08 0)
(2.99999 -2.95775e-08 0)
(2.99998 -6.62572e-08 0)
(2.99996 -1.46721e-07 0)
(2.9999 -3.23047e-07 0)
(2.99979 -7.09308e-07 0)
(2.99955 -1.55542e-06 0)
(2.99902 -3.40917e-06 0)
(2.99787 -7.47279e-06 0)
(2.99536 -1.63916e-05 0)
(2.98986 -3.60201e-05 0)
(2.97772 -7.94747e-05 0)
(2.95048 -0.000176955 0)
(2.88706 -0.00040174 0)
(2.72728 -0.000949121 0)
(2.24546 -0.00265828 0)
(-0.0295077 -0.0137893 0)
(-1.60404 0.0662555 0)
(-0.843168 0.141203 0)
(-0.13164 0.213256 0)
(0.288244 0.282806 0)
(0.414776 0.322905 0)
(0.356591 0.345885 0)
(0.241291 0.339522 0)
(0.122322 0.344824 0)
(0.082582 0.326813 0)
(3 -9.74218e-11 0)
(3 -5.95626e-10 0)
(3 -1.94552e-09 0)
(3 -5.13563e-09 0)
(3 -1.23327e-08 0)
(2.99999 -2.82865e-08 0)
(2.99998 -6.34087e-08 0)
(2.99996 -1.40523e-07 0)
(2.9999 -3.09666e-07 0)
(2.99979 -6.80531e-07 0)
(2.99955 -1.49365e-06 0)
(2.99902 -3.27674e-06 0)
(2.99787 -7.18887e-06 0)
(2.99535 -1.57825e-05 0)
(2.98985 -3.47109e-05 0)
(2.9777 -7.66481e-05 0)
(2.95043 -0.000170793 0)
(2.88693 -0.000388022 0)
(2.7269 -0.00091709 0)
(2.2433 -0.00257888 0)
(-0.0168969 -0.0135354 0)
(-1.5794 0.0739516 0)
(-0.821409 0.154737 0)
(-0.111527 0.231763 0)
(0.3023 0.304507 0)
(0.420826 0.3455 0)
(0.356452 0.37034 0)
(0.24058 0.366443 0)
(0.123721 0.375994 0)
(0.0813625 0.361807 0)
(3 -9.02439e-11 0)
(3 -5.51725e-10 0)
(3 -1.80227e-09 0)
(3 -4.75892e-09 0)
(3 -1.14344e-08 0)
(2.99999 -2.6247e-08 0)
(2.99998 -5.88952e-08 0)
(2.99996 -1.30669e-07 0)
(2.9999 -2.88303e-07 0)
(2.99979 -6.3439e-07 0)
(2.99955 -1.39418e-06 0)
(2.99902 -3.06245e-06 0)
(2.99786 -6.72724e-06 0)
(2.99535 -1.47873e-05 0)
(2.98984 -3.25613e-05 0)
(2.97768 -7.19849e-05 0)
(2.95038 -0.000160581 0)
(2.88681 -0.000365191 0)
(2.72654 -0.000863695 0)
(2.2412 -0.00244229 0)
(-0.0029031 -0.0130226 0)
(-1.55267 0.0820511 0)
(-0.798323 0.168696 0)
(-0.0907503 0.25057 0)
(0.316278 0.326284 0)
(0.426612 0.368262 0)
(0.356542 0.394975 0)
(0.240468 0.394152 0)
(0.125747 0.407629 0)
(0.0803636 0.397076 0)
(3 -8.01922e-11 0)
(3 -4.90261e-10 0)
(3 -1.60172e-09 0)
(3 -4.23141e-09 0)
(3 -1.01757e-08 0)
(2.99999 -2.3386e-08 0)
(2.99998 -5.25547e-08 0)
(2.99996 -1.16802e-07 0)
(2.9999 -2.58185e-07 0)
(2.99979 -5.69208e-07 0)
(2.99955 -1.25336e-06 0)
(2.99902 -2.75843e-06 0)
(2.99786 -6.07087e-06 0)
(2.99534 -1.33691e-05 0)
(2.98983 -2.94912e-05 0)
(2.97765 -6.53096e-05 0)
(2.95033 -0.00014593 0)
(2.8867 -0.000332372 0)
(2.7262 -0.000786871 0)
(2.23918 -0.00224303 0)
(0.0125465 -0.0122309 0)
(-1.52384 0.0905839 0)
(-0.77383 0.183092 0)
(-0.0694091 0.269681 0)
(0.33013 0.348155 0)
(0.432165 0.391204 0)
(0.356953 0.419866 0)
(0.240975 0.422639 0)
(0.128353 0.439838 0)
(0.0795824 0.432795 0)
(3 -6.69634e-11 0)
(3 -4.09385e-10 0)
(3 -1.33787e-09 0)
(3 -3.53731e-09 0)
(3 -8.51888e-09 0)
(2.99999 -1.96182e-08 0)
(2.99998 -4.41979e-08 0)
(2.99996 -9.85092e-08 0)
(2.9999 -2.18415e-07 0)
(2.99979 -4.83046e-07 0)
(2.99955 -1.06701e-06 0)
(2.99902 -2.35565e-06 0)
(2.99786 -5.2003e-06 0)
(2.99534 -1.1486e-05 0)
(2.98982 -2.541e-05 0)
(2.97764 -5.6426e-05 0)
(2.95029 -0.00012641 0)
(2.8866 -0.000288607 0)
(2.72589 -0.000684392 0)
(2.23731 -0.00197537 0)
(0.0295206 -0.011141 0)
(-1.49287 0.0995768 0)
(-0.748047 0.197945 0)
(-0.0474174 0.289108 0)
(0.343913 0.370086 0)
(0.437551 0.41432 0)
(0.357832 0.445045 0)
(0.24229 0.451886 0)
(0.131638 0.472711 0)
(0.0790921 0.469189 0)
(3 -5.01982e-11 0)
(3 -3.06902e-10 0)
(3 -1.00357e-09 0)
(3 -2.65788e-09 0)
(3 -6.41938e-09 0)
(2.99999 -1.48422e-08 0)
(2.99998 -3.36014e-08 0)
(2.99996 -7.5303e-08 0)
(2.9999 -1.67937e-07 0)
(2.99979 -3.73629e-07 0)
(2.99955 -8.30227e-07 0)
(2.99902 -1.84361e-06 0)
(2.99786 -4.09297e-06 0)
(2.99534 -9.08949e-06 0)
(2.98981 -2.02131e-05 0)
(2.97762 -4.51081e-05 0)
(2.95025 -0.000101529 0)
(2.88651 -0.000232792 0)
(2.72563 -0.000553651 0)
(2.23562 -0.00163243 0)
(0.048094 -0.00973239 0)
(-1.45971 0.109064 0)
(-0.720878 0.213285 0)
(-0.0249589 0.308833 0)
(0.357558 0.392056 0)
(0.442835 0.437602 0)
(0.359272 0.470545 0)
(0.244446 0.481915 0)
(0.135593 0.506372 0)
(0.0789289 0.506493 0)
(3 -2.94657e-11 0)
(3 -1.80177e-10 0)
(3 -5.90235e-10 0)
(3 -1.57058e-09 0)
(3 -3.82353e-09 0)
(2.99999 -8.93663e-09 0)
(2.99998 -2.04968e-08 0)
(2.99996 -4.65992e-08 0)
(2.9999 -1.05491e-07 0)
(2.99979 -2.38245e-07 0)
(2.99955 -5.3722e-07 0)
(2.99902 -1.20992e-06 0)
(2.99786 -2.7225e-06 0)
(2.99533 -6.12361e-06 0)
(2.98981 -1.37827e-05 0)
(2.97761 -3.11079e-05 0)
(2.95023 -7.07674e-05 0)
(2.88644 -0.00016384 0)
(2.72541 -0.000392372 0)
(2.23416 -0.00120898 0)
(0.068368 -0.00798422 0)
(-1.42433 0.119076 0)
(-0.692451 0.229141 0)
(-0.00189902 0.328865 0)
(0.371159 0.41401 0)
(0.448101 0.461038 0)
(0.361434 0.496399 0)
(0.247638 0.512771 0)
(0.140362 0.540967 0)
(0.0791891 0.545056 0)
(3 -4.23789e-12 0)
(3 -2.59887e-11 0)
(3 -8.73631e-11 0)
(3 -2.47831e-10 0)
(3 -6.65622e-10 0)
(2.99999 -1.75225e-09 0)
(2.99998 -4.55357e-09 0)
(2.99996 -1.16753e-08 0)
(2.9999 -2.9504e-08 0)
(2.99979 -7.34851e-08 0)
(2.99955 -1.80572e-07 0)
(2.99902 -4.38416e-07 0)
(2.99786 -1.05356e-06 0)
(2.99533 -2.51077e-06 0)
(2.9898 -5.94787e-06 0)
(2.9776 -1.4051e-05 0)
(2.95021 -3.33211e-05 0)
(2.8864 -8.01418e-05 0)
(2.72526 -0.000198028 0)
(2.23299 -0.000702461 0)
(0.0904341 -0.00587162 0)
(-1.38666 0.129664 0)
(-0.662637 0.245545 0)
(0.0215088 0.349177 0)
(0.384653 0.435868 0)
(0.45346 0.484598 0)
(0.364436 0.522621 0)
(0.251955 0.544528 0)
(0.146007 0.57665 0)
(0.0799839 0.585219 0)
(3 2.61255e-11 0)
(3 1.59576e-10 0)
(3 5.1778e-10 0)
(3 1.34376e-09 0)
(3 3.13367e-09 0)
(2.99999 6.8901e-09 0)
(2.99998 1.46216e-08 0)
(2.99996 3.03186e-08 0)
(2.9999 6.18387e-08 0)
(2.99979 1.24499e-07 0)
(2.99955 2.47808e-07 0)
(2.99902 4.87783e-07 0)
(2.99786 9.4884e-07 0)
(2.99533 1.82096e-06 0)
(2.9898 3.43776e-06 0)
(2.9776 6.35532e-06 0)
(2.9502 1.13726e-05 0)
(2.88639 1.92496e-05 0)
(2.72519 2.9968e-05 0)
(2.23217 -0.000119502 0)
(0.114459 -0.00336936 0)
(-1.34661 0.140873 0)
(-0.631582 0.262527 0)
(0.0454688 0.369746 0)
(0.398129 0.45752 0)
(0.45903 0.508242 0)
(0.368484 0.549242 0)
(0.257611 0.577322 0)
(0.152758 0.613607 0)
(0.0814679 0.627484 0)
(3 6.24225e-11 0)
(3 3.81396e-10 0)
(3 1.24111e-09 0)
(3 3.24608e-09 0)
(3 7.67429e-09 0)
(2.99999 1.72175e-08 0)
(2.99998 3.75306e-08 0)
(2.99996 8.04721e-08 0)
(2.9999 1.70869e-07 0)
(2.99979 3.60628e-07 0)
(2.99955 7.5812e-07 0)
(2.99902 1.58937e-06 0)
(2.99786 3.32541e-06 0)
(2.99533 6.94825e-06 0)
(2.9898 1.45096e-05 0)
(2.9776 3.03278e-05 0)
(2.95021 6.36092e-05 0)
(2.8864 0.000134657 0)
(2.7252 0.000292021 0)
(2.23175 0.000537862 0)
(0.14047 -0.000453233 0)
(-1.30425 0.152771 0)
(-0.599193 0.280143 0)
(0.0696269 0.390499 0)
(0.411575 0.478808 0)
(0.464991 0.531888 0)
(0.373768 0.576238 0)
(0.264783 0.611351 0)
(0.160773 0.652001 0)
(0.0838801 0.67242 0)
(3 1.05632e-10 0)
(3 6.45471e-10 0)
(3 2.10236e-09 0)
(3 5.51175e-09 0)
(3 1.30848e-08 0)
(2.99999 2.9531e-08 0)
(2.99998 6.48663e-08 0)
(2.99996 1.40366e-07 0)
(2.9999 3.01183e-07 0)
(2.99979 6.43063e-07 0)
(2.99955 1.3689e-06 0)
(2.99902 2.9084e-06 0)
(2.99786 6.17171e-06 0)
(2.99534 1.30886e-05 0)
(2.98981 2.77649e-05 0)
(2.97762 5.90138e-05 0)
(2.95024 0.000126095 0)
(2.88646 0.000272799 0)
(2.72531 0.000606868 0)
(2.23178 0.00133173 0)
(0.168281 0.00297692 0)
(-1.2599 0.165401 0)
(-0.565814 0.298414 0)
(0.0941559 0.411351 0)
(0.425036 0.499536 0)
(0.471513 0.555433 0)
(0.380598 0.603583 0)
(0.273733 0.646985 0)
(0.170416 0.692354 0)
(0.0874455 0.720567 0)
(3 1.56725e-10 0)
(3 9.57768e-10 0)
(3 3.12125e-09 0)
(3 8.19411e-09 0)
(3 1.94976e-08 0)
(2.99999 4.41486e-08 0)
(2.99998 9.73806e-08 0)
(2.99996 2.11772e-07 0)
(2.9999 4.56949e-07 0)
(2.99979 9.81633e-07 0)
(2.99955 2.10334e-06 0)
(2.99902 4.49984e-06 0)
(2.99786 9.61829e-06 0)
(2.99534 2.05534e-05 0)
(2.98982 4.39502e-05 0)
(2.97764 9.42174e-05 0)
(2.95028 0.000203247 0)
(2.88656 0.000444754 0)
(2.72553 0.00100398 0)
(2.23234 0.00235302 0)
(0.19794 0.00711115 0)
(-1.21362 0.17883 0)
(-0.531416 0.317411 0)
(0.118625 0.432138 0)
(0.43858 0.519406 0)
(0.47885 0.578706 0)
(0.389347 0.631039 0)
(0.284882 0.68447 0)
(0.181995 0.735228 0)
(0.0925865 0.772945 0)
(3 2.163e-10 0)
(3 1.32197e-09 0)
(3 4.31009e-09 0)
(3 1.13268e-08 0)
(3 2.69978e-08 0)
(2.99999 6.1279e-08 0)
(2.99998 1.35579e-07 0)
(2.99996 2.95905e-07 0)
(2.9999 6.4108e-07 0)
(2.99979 1.38328e-06 0)
(2.99955 2.97796e-06 0)
(2.99902 6.40268e-06 0)
(2.99787 1.37569e-05 0)
(2.99535 2.95576e-05 0)
(2.98983 6.35675e-05 0)
(2.97767 0.000137108 0)
(2.95035 0.000297788 0)
(2.88672 0.000656909 0)
(2.72591 0.00149848 0)
(2.23359 0.00363661 0)
(0.22994 0.0120441 0)
(-1.16514 0.193149 0)
(-0.496097 0.337128 0)
(0.143227 0.452618 0)
(0.452209 0.538087 0)
(0.487211 0.601525 0)
(0.400474 0.658508 0)
(0.298686 0.723558 0)
(0.196182 0.781393 0)
(0.0997299 0.831401 0)
(3 2.84237e-10 0)
(3 1.73739e-09 0)
(3 5.66677e-09 0)
(3 1.49053e-08 0)
(3 3.55787e-08 0)
(2.99999 8.09191e-08 0)
(2.99998 1.79488e-07 0)
(2.99996 3.9291e-07 0)
(2.9999 8.54095e-07 0)
(2.99979 1.84961e-06 0)
(2.99955 3.99723e-06 0)
(2.99902 8.62884e-06 0)
(2.99787 1.86178e-05 0)
(2.99536 4.01752e-05 0)
(2.98986 8.67911e-05 0)
(2.97771 0.000188083 0)
(2.95046 0.000410587 0)
(2.88695 0.000911032 0)
(2.72649 0.00209329 0)
(2.23563 0.00518342 0)
(0.264452 0.017816 0)
(-1.11443 0.208604 0)
(-0.459694 0.357606 0)
(0.167656 0.472365 0)
(0.466152 0.555153 0)
(0.496945 0.623672 0)
(0.414332 0.686653 0)
(0.315724 0.763313 0)
(0.213906 0.832309 0)
(0.109542 0.898001 0)
(3 3.59404e-10 0)
(3 2.1971e-09 0)
(3 7.16894e-09 0)
(3 1.88716e-08 0)
(3 4.51047e-08 0)
(2.99999 1.0277e-07 0)
(2.99998 2.28472e-07 0)
(2.99996 5.01469e-07 0)
(2.99991 1.09332e-06 0)
(2.99979 2.37533e-06 0)
(2.99955 5.15099e-06 0)
(2.99902 1.11594e-05 0)
(2.99788 2.41676e-05 0)
(2.99537 5.23522e-05 0)
(2.98988 0.000113549 0)
(2.97778 0.000247094 0)
(2.95059 0.000541815 0)
(2.88728 0.00120826 0)
(2.7273 0.00279348 0)
(2.2386 0.00701625 0)
(0.301649 0.0245403 0)
(-1.06143 0.225501 0)
(-0.422311 0.37865 0)
(0.192041 0.490777 0)
(0.480466 0.570146 0)
(0.508673 0.644411 0)
(0.43116 0.71593 0)
(0.337087 0.803493 0)
(0.236745 0.88979 0)
(0.122662 0.975542 0)
(3 4.39423e-10 0)
(3 2.68661e-09 0)
(3 8.76944e-09 0)
(3 2.31021e-08 0)
(3 5.52822e-08 0)
(2.99999 1.26167e-07 0)
(2.99998 2.81068e-07 0)
(2.99996 6.18417e-07 0)
(2.99991 1.35199e-06 0)
(2.99979 2.9461e-06 0)
(2.99955 6.40915e-06 0)
(2.99903 1.3932e-05 0)
(2.99788 3.02789e-05 0)
(2.99539 6.58326e-05 0)
(2.98992 0.000143337 0)
(2.97786 0.000313178 0)
(2.95077 0.000689697 0)
(2.8877 0.00154551 0)
(2.7284 0.00359435 0)
(2.24268 0.0091342 0)
(0.342169 0.0323469 0)
(-1.00622 0.244651 0)
(-0.383232 0.399785 0)
(0.216273 0.506994 0)
(0.495432 0.582668 0)
(0.523132 0.663108 0)
(0.451398 0.745954 0)
(0.363853 0.846482 0)
(0.266206 0.95473 0)
(0.140108 1.06814 0)
(3 5.20368e-10 0)
(3 3.18157e-09 0)
(3 1.03869e-08 0)
(3 2.73758e-08 0)
(3 6.55644e-08 0)
(2.99999 1.49821e-07 0)
(2.99998 3.34315e-07 0)
(2.99996 7.37044e-07 0)
(2.99991 1.61506e-06 0)
(2.9998 3.52839e-06 0)
(2.99956 7.69752e-06 0)
(2.99903 1.67837e-05 0)
(2.99789 3.65964e-05 0)
(2.99541 7.98504e-05 0)
(2.98997 0.000174526 0)
(2.97796 0.000382928 0)
(2.951 0.000847289 0)
(2.88824 0.00190922 0)
(2.72982 0.00447187 0)
(2.24807 0.0115021 0)
(0.386733 0.041114 0)
(-0.948682 0.267322 0)
(-0.341832 0.419181 0)
(0.240645 0.519723 0)
(0.511211 0.592674 0)
(0.540945 0.68086 0)
(0.476131 0.77789 0)
(0.396628 0.894727 0)
(0.304544 1.02793 0)
(0.163742 1.18473 0)
(3 6.00337e-10 0)
(3 3.67107e-09 0)
(3 1.19894e-08 0)
(3 3.162e-08 0)
(3 7.58014e-08 0)
(2.99999 1.73431e-07 0)
(2.99998 3.87589e-07 0)
(2.99996 8.56009e-07 0)
(2.99991 1.87949e-06 0)
(2.9998 4.11516e-06 0)
(2.99956 8.99938e-06 0)
(2.99904 1.96742e-05 0)
(2.9979 4.30235e-05 0)
(2.99543 9.41741e-05 0)
(2.99002 0.000206572 0)
(2.97808 0.000455132 0)
(2.95128 0.00101226 0)
(2.88891 0.00229732 0)
(2.7316 0.00544465 0)
(2.25496 0.014289 0)
(0.437064 0.0510713 0)
(-0.889142 0.296664 0)
(-0.294433 0.435463 0)
(0.266912 0.52685 0)
(0.528681 0.59929 0)
(0.563097 0.697181 0)
(0.506295 0.80951 0)
(0.436687 0.94203 0)
(0.356441 1.10131 0)
(0.197589 1.32194 0)
(3 7.19471e-10 0)
(3 4.39876e-09 0)
(3 1.43593e-08 0)
(3 3.78373e-08 0)
(3 9.05833e-08 0)
(2.99999 2.06866e-07 0)
(2.99998 4.6124e-07 0)
(2.99996 1.0159e-06 0)
(2.99991 2.22377e-06 0)
(2.9998 4.8529e-06 0)
(2.99956 1.05755e-05 0)
(2.99905 2.30346e-05 0)
(2.99794 5.01783e-05 0)
(2.99551 0.000109396 0)
(2.99018 0.000238959 0)
(2.97845 0.00052418 0)
(2.95212 0.00116038 0)
(2.89095 0.00261992 0)
(2.73726 0.00617244 0)
(2.27706 0.0160921 0)
(0.597982 0.0564557 0)
(-0.66686 0.330804 0)
(-0.247641 0.462429 0)
(0.245929 0.549144 0)
(0.534538 0.626947 0)
(0.635795 0.735523 0)
(0.639154 0.872186 0)
(0.637098 1.02998 0)
(0.686382 1.21342 0)
(0.607191 1.48155 0)
(3 9.60684e-10 0)
(3 5.87197e-09 0)
(3 1.91559e-08 0)
(3 5.04168e-08 0)
(3 1.20485e-07 0)
(2.99999 2.74508e-07 0)
(2.99998 6.10301e-07 0)
(2.99996 1.33976e-06 0)
(2.99991 2.92184e-06 0)
(2.99981 6.3507e-06 0)
(2.99958 1.37801e-05 0)
(2.99908 2.98779e-05 0)
(2.998 6.47723e-05 0)
(2.99564 0.000140492 0)
(2.99048 0.000305202 0)
(2.97909 0.00066544 0)
(2.95358 0.0014627 0)
(2.89438 0.0032725 0)
(2.74624 0.00760412 0)
(2.3095 0.0193532 0)
(0.79441 0.0642117 0)
(-0.394488 0.338219 0)
(-0.100613 0.513406 0)
(0.308813 0.603801 0)
(0.570712 0.681309 0)
(0.698226 0.775713 0)
(0.753653 0.898279 0)
(0.803018 1.04122 0)
(0.927019 1.18919 0)
(0.984071 1.33918 0)
(3 1.4088e-09 0)
(3 8.61149e-09 0)
(3 2.80947e-08 0)
(3 7.39447e-08 0)
(3 1.76709e-07 0)
(2.99999 4.02594e-07 0)
(2.99998 8.95036e-07 0)
(2.99996 1.96474e-06 0)
(2.99991 4.28472e-06 0)
(2.99981 9.31274e-06 0)
(2.9996 2.02069e-05 0)
(2.99912 4.38121e-05 0)
(2.99809 9.49788e-05 0)
(2.99583 0.000206003 0)
(2.99088 0.000447477 0)
(2.97999 0.000975415 0)
(2.95559 0.00214281 0)
(2.89911 0.00478768 0)
(2.75853 0.0110927 0)
(2.35134 0.0279421 0)
(1.0111 0.0868574 0)
(-0.0964258 0.370103 0)
(0.0637957 0.56697 0)
(0.379888 0.652354 0)
(0.620918 0.723583 0)
(0.757661 0.805294 0)
(0.843202 0.907623 0)
(0.922949 1.02284 0)
(1.06549 1.13512 0)
(1.18152 1.20589 0)
(3 2.13656e-09 0)
(3 1.3062e-08 0)
(3 4.26252e-08 0)
(3 1.12224e-07 0)
(3 2.68296e-07 0)
(2.99999 6.11565e-07 0)
(2.99998 1.36044e-06 0)
(2.99996 2.98847e-06 0)
(2.99992 6.52228e-06 0)
(2.99983 1.41877e-05 0)
(2.99962 3.08109e-05 0)
(2.99918 6.68613e-05 0)
(2.99822 0.000145071 0)
(2.99611 0.000314906 0)
(2.9915 0.000684517 0)
(2.98135 0.0014928 0)
(2.95865 0.00327915 0)
(2.90627 0.00731747 0)
(2.77691 0.0168929 0)
(2.40936 0.0420253 0)
(1.24981 0.123188 0)
(0.223381 0.424793 0)
(0.23816 0.628393 0)
(0.447539 0.709033 0)
(0.668946 0.75291 0)
(0.811685 0.815075 0)
(0.912521 0.896799 0)
(1.00538 0.985975 0)
(1.14166 1.07128 0)
(1.26024 1.11446 0)
(3 3.14722e-09 0)
(3 1.92424e-08 0)
(3 6.28074e-08 0)
(3 1.6543e-07 0)
(3 3.95765e-07 0)
(2.99999 9.02986e-07 0)
(2.99999 2.01116e-06 0)
(2.99997 4.42422e-06 0)
(2.99993 9.67114e-06 0)
(2.99985 2.10729e-05 0)
(2.99967 4.58434e-05 0)
(2.99927 9.96584e-05 0)
(2.99842 0.000216608 0)
(2.99655 0.000470969 0)
(2.99245 0.00102526 0)
(2.98345 0.0022383 0)
(2.96335 0.00491796 0)
(2.91721 0.0109583 0)
(2.80458 0.0251708 0)
(2.49203 0.0617422 0)
(1.52932 0.172501 0)
(0.556694 0.506557 0)
(0.413463 0.653058 0)
(0.499515 0.727814 0)
(0.681629 0.756774 0)
(0.8455 0.801222 0)
(0.961874 0.864516 0)
(1.06161 0.934995 0)
(1.18934 1.00264 0)
(1.3032 1.0421 0)
(3 4.34643e-09 0)
(3 2.65784e-08 0)
(3 8.68117e-08 0)
(3 2.29018e-07 0)
(3 5.49282e-07 0)
(2.99999 1.25754e-06 0)
(2.99999 2.8125e-06 0)
(2.99997 6.21646e-06 0)
(2.99994 1.36597e-05 0)
(2.99988 2.99291e-05 0)
(2.99973 6.54883e-05 0)
(2.99941 0.000143219 0)
(2.99871 0.000313197 0)
(2.99719 0.000685186 0)
(2.99386 0.00150061 0)
(2.98654 0.00329436 0)
(2.97027 0.00727015 0)
(2.93323 0.016226 0)
(2.84447 0.0371034 0)
(2.60576 0.0893213 0)
(1.86718 0.238505 0)
(0.83586 0.656231 0)
(0.568896 0.703372 0)
(0.598302 0.749838 0)
(0.732103 0.769027 0)
(0.887469 0.78645 0)
(1.00729 0.824671 0)
(1.10827 0.876663 0)
(1.22694 0.930928 0)
(1.33335 0.969041 0)
(3 4.04569e-09 0)
(3 2.47332e-08 0)
(3 8.07525e-08 0)
(3 2.12935e-07 0)
(3 5.10426e-07 0)
(3 1.1678e-06 0)
(2.99999 2.60976e-06 0)
(2.99998 5.76327e-06 0)
(2.99996 1.26518e-05 0)
(2.99992 2.76927e-05 0)
(2.99982 6.05305e-05 0)
(2.9996 0.00013223 0)
(2.99914 0.000288823 0)
(2.99813 0.00063103 0)
(2.99593 0.00137982 0)
(2.99114 0.00302277 0)
(2.98061 0.00664897 0)
(2.95709 0.0147558 0)
(2.90275 0.0333897 0)
(2.76667 0.0788449 0)
(2.35883 0.20639 0)
(1.42489 0.578844 0)
(0.868963 0.716116 0)
(0.786897 0.77118 0)
(0.82473 0.792517 0)
(0.936902 0.790844 0)
(1.05635 0.802648 0)
(1.15704 0.83106 0)
(1.26687 0.869072 0)
(1.36303 0.901062 0)
(3 3.00145e-09 0)
(3 1.83472e-08 0)
(3 5.98738e-08 0)
(3 1.5771e-07 0)
(3 3.77385e-07 0)
(3 8.61366e-07 0)
(2.99999 1.91932e-06 0)
(2.99999 4.2243e-06 0)
(2.99997 9.23908e-06 0)
(2.99994 2.01428e-05 0)
(2.99987 4.38451e-05 0)
(2.99971 9.53653e-05 0)
(2.99938 0.000207362 0)
(2.99864 0.000450904 0)
(2.99705 0.000980907 0)
(2.99357 0.00213635 0)
(2.98593 0.00466511 0)
(2.96899 0.0102469 0)
(2.93046 0.0227992 0)
(2.8379 0.0522116 0)
(2.58698 0.128487 0)
(1.87023 0.343995 0)
(1.04082 0.764858 0)
(0.887956 0.811593 0)
(0.896988 0.83641 0)
(0.976797 0.829238 0)
(1.09431 0.814705 0)
(1.19917 0.818738 0)
(1.30641 0.835895 0)
(1.39496 0.855202 0)
(3 2.25402e-09 0)
(3 1.37805e-08 0)
(3 4.49809e-08 0)
(3 1.18504e-07 0)
(3 2.83614e-07 0)
(3 6.47421e-07 0)
(3 1.44276e-06 0)
(2.99999 3.17575e-06 0)
(2.99998 6.94648e-06 0)
(2.99996 1.51462e-05 0)
(2.99992 3.29732e-05 0)
(2.99982 7.1729e-05 0)
(2.99961 0.000155991 0)
(2.99916 0.000339242 0)
(2.99818 0.000738008 0)
(2.99605 0.00160688 0)
(2.99142 0.00350539 0)
(2.98125 0.00767912 0)
(2.95859 0.0169775 0)
(2.90637 0.0383068 0)
(2.77493 0.0907025 0)
(2.38641 0.240819 0)
(1.50666 0.65374 0)
(1.12293 0.776048 0)
(1.05323 0.830785 0)
(1.05668 0.84903 0)
(1.13473 0.839605 0)
(1.24171 0.828278 0)
(1.34646 0.829727 0)
(1.42986 0.835905 0)
(3 1.48888e-09 0)
(3 9.10048e-09 0)
(3 2.96893e-08 0)
(3 7.81486e-08 0)
(3 1.86796e-07 0)
(3 4.25715e-07 0)
(3 9.46851e-07 0)
(2.99999 2.07957e-06 0)
(2.99999 4.53777e-06 0)
(2.99997 9.86869e-06 0)
(2.99994 2.14257e-05 0)
(2.99988 4.64765e-05 0)
(2.99973 0.000100774 0)
(2.99942 0.000218476 0)
(2.99874 0.000473695 0)
(2.99726 0.00102751 0)
(2.99403 0.00223131 0)
(2.98696 0.00485775 0)
(2.97131 0.0106355 0)
(2.93584 0.0235766 0)
(2.85116 0.0537565 0)
(2.62334 0.132971 0)
(1.9988 0.350436 0)
(1.27914 0.768091 0)
(1.14739 0.836815 0)
(1.13505 0.871381 0)
(1.1782 0.875297 0)
(1.27003 0.859598 0)
(1.37846 0.848583 0)
(1.46044 0.842116 0)
(3 1.05989e-09 0)
(3 6.47966e-09 0)
(3 2.11478e-08 0)
(3 5.57012e-08 0)
(3 1.33257e-07 0)
(3 3.04028e-07 0)
(3 6.77061e-07 0)
(3 1.48915e-06 0)
(2.99999 3.25447e-06 0)
(2.99998 7.08957e-06 0)
(2.99997 1.54191e-05 0)
(2.99993 3.35092e-05 0)
(2.99984 7.27979e-05 0)
(2.99966 0.000158138 0)
(2.99926 0.000343557 0)
(2.9984 0.000746652 0)
(2.99652 0.00162402 0)
(2.99245 0.00353863 0)
(2.98352 0.00773996 0)
(2.9637 0.0170708 0)
(2.91832 0.0383516 0)
(2.80556 0.090143 0)
(2.47605 0.235933 0)
(1.72938 0.627838 0)
(1.36344 0.790252 0)
(1.28077 0.857886 0)
(1.26691 0.893832 0)
(1.31677 0.894876 0)
(1.41277 0.876771 0)
(1.49047 0.860401 0)
(3 6.71329e-10 0)
(3 4.10297e-09 0)
(3 1.33832e-08 0)
(3 3.52191e-08 0)
(3 8.41569e-08 0)
(3 1.91722e-07 0)
(3 4.26218e-07 0)
(3 9.35604e-07 0)
(3 2.04035e-06 0)
(2.99999 4.43455e-06 0)
(2.99998 9.62133e-06 0)
(2.99995 2.08559e-05 0)
(2.9999 4.51878e-05 0)
(2.99978 9.78846e-05 0)
(2.99952 0.000212021 0)
(2.99897 0.00045929 0)
(2.99775 0.000995319 0)
(2.99512 0.002159 0)
(2.98935 0.00469337 0)
(2.97664 0.0102522 0)
(2.94807 0.0226358 0)
(2.88093 0.0512133 0)
(2.70492 0.124442 0)
(2.22674 0.324726 0)
(1.57826 0.736428 0)
(1.4109 0.847888 0)
(1.36894 0.902691 0)
(1.36858 0.924544 0)
(1.42922 0.915566 0)
(1.50592 0.887467 0)
(3 4.70502e-10 0)
(3 2.87597e-09 0)
(3 9.38506e-09 0)
(3 2.472e-08 0)
(3 5.9151e-08 0)
(3 1.35004e-07 0)
(3 3.00798e-07 0)
(3 6.61972e-07 0)
(3 1.44766e-06 0)
(2.99999 3.15578e-06 0)
(2.99999 6.86847e-06 0)
(2.99997 1.49376e-05 0)
(2.99994 3.24753e-05 0)
(2.99988 7.05945e-05 0)
(2.99974 0.00015346 0)
(2.99944 0.000333639 0)
(2.99879 0.000725597 0)
(2.99738 0.00157905 0)
(2.99431 0.00344104 0)
(2.9876 0.00752045 0)
(2.9728 0.0165394 0)
(2.93929 0.0368827 0)
(2.85837 0.0850651 0)
(2.62522 0.215177 0)
(2.10128 0.544132 0)
(1.64082 0.832002 0)
(1.51714 0.913951 0)
(1.47442 0.947387 0)
(1.47566 0.953167 0)
(1.51947 0.933569 0)
(3 2.74196e-10 0)
(3 1.67576e-09 0)
(3 5.46626e-09 0)
(3 1.43876e-08 0)
(3 3.43905e-08 0)
(3 7.83817e-08 0)
(3 1.74346e-07 0)
(3 3.82948e-07 0)
(3 8.35692e-07 0)
(3 1.81762e-06 0)
(2.99999 3.94655e-06 0)
(2.99999 8.56157e-06 0)
(2.99997 1.85651e-05 0)
(2.99994 4.02479e-05 0)
(2.99987 8.72466e-05 0)
(2.99973 0.000189127 0)
(2.99942 0.000410019 0)
(2.99874 0.000889179 0)
(2.99728 0.00192969 0)