/*--------------------------------*- C++ -*----------------------------------*\
  =========                 |
  \\      /  F ield         | OpenFOAM: The Open Source CFD Toolbox
   \\    /   O peration     | Website:  https://openfoam.org
    \\  /    A nd           | Version:  6.0
     \\/     M anipulation  |
\*---------------------------------------------------------------------------*/
FoamFile
{
    version     2.0;
    format      ascii;
    class       volScalarField;
    location    "1.5";
    object      p;
}
// * * * * * * * * * * * * * * * * * * * * * * * * * * * * * * * * * * * * * //

dimensions      [1 -1 -2 0 0 0 0];

internalField   nonuniform List<scalar> 
4800
(
1
1
1
1
1
1
1
1.00001
1.00001
1.00002
1.00005
1.0001
1.00021
1.00043
1.00089
1.00183
1.00375
1.00769
1.0158
1.03252
1.06712
1.13941
1.29336
1.63502
2.46996
5.04853
15.9723
15.5644
14.5866
13.8477
12.117
10.8216
9.82015
5.76752
8.00836
7.85786
7.66961
8.41996
0.221257
10.3318
1
1
1
1
1
1
1
1.00001
1.00001
1.00002
1.00005
1.0001
1.00021
1.00043
1.00089
1.00182
1.00375
1.00769
1.0158
1.03252
1.06712
1.13941
1.29335
1.63499
2.46981
5.04758
15.9548
15.5394
14.5477
13.6845
12.1733
10.6724
9.95217
5.62703
7.94552
7.46535
7.69525
8.17637
0.394486
10.9325
1
1
1
1
1
1
1
1.00001
1.00001
1.00002
1.00005
1.0001
1.00021
1.00043
1.00089
1.00182
1.00375
1.00769
1.0158
1.03252
1.06711
1.13939
1.2933
1.63485
2.46941
5.04539
15.913
15.4818
14.4482
13.3071
12.0799
11.0091
9.2687
5.42106
7.70307
7.56885
7.7204
8.23781
0.780243
9.04072
1
1
1
1
1
1
1
1.00001
1.00001
1.00002
1.00005
1.0001
1.00021
1.00043
1.00089
1.00182
1.00374
1.00769
1.0158
1.03251
1.06709
1.13934
1.29319
1.63458
2.46866
5.04143
15.8425
15.3909
14.2936
12.9067
11.7339
10.9127
9.36033
5.05673
7.38353
7.85058
7.58139
7.73687
1.3915
8.16932
1
1
1
1
1
1
1
1.00001
1.00001
1.00002
1.00005
1.0001
1.00021
1.00043
1.00089
1.00182
1.00374
1.00768
1.01579
1.03249
1.06705
1.13925
1.29299
1.63412
2.46743
5.03525
15.7459
15.2745
14.1179
12.6462
11.6332
10.6361
9.19804
5.05907
6.40856
7.98088
7.83866
7.58723
2.41635
11.3929
1
1
1
1
1
1
1
1.00001
1.00001
1.00002
1.00005
1.0001
1.00021
1.00043
1.00089
1.00182
1.00374
1.00768
1.01577
1.03246
1.06698
1.13911
1.29268
1.63341
2.46555
5.02649
15.6264
15.1442
13.9574
12.4859
11.6347
10.529
9.25606
6.6773
7.60466
8.04667
8.02945
8.03667
3.96044
10.5145
1
1
1
1
1
1
1
1.00001
1.00001
1.00002
1.00005
1.0001
1.00021
1.00043
1.00089
1.00182
1.00374
1.00767
1.01576
1.03242
1.06691
1.13894
1.2923
1.63249
2.46307
5.0151
15.4866
15.0069
13.826
12.4078
11.7076
11.9218
11.2241
8.52169
7.78619
8.42479
8.30708
8.21908
6.09466
10.539
1
1
1
1
1
1
1
1.00001
1.00001
1.00002
1.00005
1.0001
1.00021
1.00043
1.00089
1.00182
1.00373
1.00766
1.01574
1.03238
1.06682
1.13875
1.29186
1.63145
2.46025
5.00223
15.3371
14.8652
13.7055
12.337
11.7894
12.1371
12.9292
12.2206
8.56403
7.25294
8.04832
7.97186
7.22643
9.34423
1
1
1
1
1
1
1
1.00001
1.00001
1.00002
1.00005
1.0001
1.00021
1.00043
1.00088
1.00182
1.00373
1.00765
1.01571
1.03233
1.06671
1.13849
1.2913
1.63014
2.45682
4.98723
15.1781
14.718
13.5878
12.1982
11.7668
12.1276
12.8951
11.4355
9.53035
9.33016
8.87003
8.7493
7.68711
7.64551
1
1
1
1
1
1
1
1.00001
1.00001
1.00002
1.00005
1.0001
1.00021
1.00043
1.00088
1.00181
1.00372
1.00763
1.01568
1.03225
1.06654
1.13813
1.29051
1.62835
2.45218
4.96806
14.998
14.5563
13.4706
12.0678
11.6395
11.7198
12.1348
9.83538
9.31137
8.93246
8.6031
8.45112
7.94258
7.82719
1
1
1
1
1
1
1
1.00001
1.00001
1.00002
1.00005
1.0001
1.00021
1.00043
1.00088
1.00181
1.00371
1.00761
1.01563
1.03215
1.06631
1.13765
1.28947
1.62598
2.44603
4.94349
14.7884
14.3697
13.3397
11.9935
11.24
11.4412
11.4457
8.24599
8.65959
8.59805
8.5494
8.59846
8.23923
7.97337
1
1
1
1
1
1
1
1.00001
1.00001
1.00002
1.00005
1.0001
1.00021
1.00043
1.00088
1.0018
1.00369
1.00758
1.01556
1.03201
1.06603
1.13706
1.2882
1.62311
2.43862
4.91425
14.5535
14.1553
13.1719
11.9366
11.017
11.0516
11.2074
8.45537
8.77055
8.6431
8.52636
8.39061
8.31475
8.18892
1
1
1
1
1
1
1
1.00001
1.00001
1.00002
1.00005
1.0001
1.00021
1.00043
1.00087
1.00179
1.00367
1.00754
1.01548
1.03184
1.06569
1.13635
1.28669
1.61975
2.43001
4.88104
14.303
13.9196
12.9629
11.8767
10.9147
10.8698
11.1168
9.18677
8.51201
8.99433
8.48908
8.21156
8.03939
8.04303
1
1
1
1
1
1
1
1.00001
1.00001
1.00002
1.00005
1.0001
1.00021
1.00042
1.00087
1.00178
1.00365
1.00749
1.01538
1.03164
1.06528
1.13551
1.28489
1.61574
2.41978
4.84298
14.0374
13.6682
12.7329
11.6977
10.8421
10.6931
10.967
9.53052
8.27145
8.02828
8.71418
8.23978
8.00174
8.01013
1
1
1
1
1
1
1
1.00001
1.00001
1.00002
1.00005
1.0001
1.0002
1.00042
1.00086
1.00177
1.00362
1.00744
1.01527
1.03142
1.06481
1.13452
1.28279
1.61103
2.40775
4.79915
13.7518
13.4001
12.4937
11.4347
10.7863
10.4298
10.5657
9.68563
7.79311
7.5657
7.7021
8.22277
8.28073
8.28243
1
1
1
1
1
1
1
1.00001
1.00001
1.00002
1.00005
1.0001
1.0002
1.00042
1.00085
1.00175
1.00359
1.00737
1.01514
1.03115
1.06426
1.13337
1.28034
1.60552
2.39372
4.74915
13.4495
13.1178
12.247
11.1879
10.6019
10.1945
9.73868
9.25399
7.70896
7.19456
7.35297
7.71221
8.45778
8.72075
1
1
1
1
1
1
1
1.00001
1.00001
1.00002
1.00005
1.0001
1.0002
1.00041
1.00084
1.00173
1.00355
1.00729
1.01498
1.03082
1.06359
1.13198
1.27739
1.59894
2.37705
4.69155
13.1339
12.8254
11.9999
10.9496
10.5871
9.83633
9.33484
9.07102
8.02681
7.1606
7.29161
7.51876
8.04275
8.8616
1
1
1
1
1
1
1
1.00001
1.00001
1.00002
1.00005
1.0001
1.0002
1.0004
1.00083
1.00171
1.0035
1.00719
1.01478
1.03041
1.06276
1.13026
1.27374
1.59084
2.35678
4.62411
12.8092
12.5277
11.7592
10.7522
10.3882
9.63595
9.26549
8.83944
8.05767
7.13271
7.27436
7.4193
7.81411
8.93689
1
1
1
1
1
1
1
1.00001
1.00001
1.00002
1.00005
1.00009
1.00019
1.0004
1.00082
1.00168
1.00344
1.00707
1.01453
1.0299
1.0617
1.12808
1.26913
1.58063
2.33144
4.54256
12.4718
12.2261
11.5417
10.6349
10.1182
9.58954
9.2682
8.83034
8.2812
7.19269
7.32964
7.40244
7.50678
9.00994
1
1
1
1
1
1
1
1.00001
1.00001
1.00002
1.00004
1.00009
1.00019
1.00039
1.0008
1.00164
1.00336
1.00691
1.0142
1.02924
1.06035
1.12527
1.26317
1.56737
2.29855
4.43915
12.1074
11.9244
11.3922
10.6413
10.1077
9.59231
9.27986
8.86985
8.40733
7.35883
7.44846
7.73724
7.25517
8.97824
1
1
1
1
1
1
1
1.00001
1.00001
1.00002
1.00004
1.00009
1.00018
1.00038
1.00077
1.00159
1.00326
1.00671
1.01379
1.02838
1.05857
1.12154
1.25519
1.54951
2.25416
4.3013
11.6745
11.6446
11.3649
10.6841
10.1169
9.60583
9.30638
8.90943
8.48271
7.60974
7.86907
9.40228
7.49747
9.22244
1
1
1
1
1
1
1
1
1.00001
1.00002
1.00004
1.00009
1.00018
1.00036
1.00074
1.00153
1.00314
1.00644
1.01324
1.02724
1.05619
1.11652
1.24435
1.52499
2.1926
4.10779
11.002
11.6665
11.4084
10.7833
10.1516
9.64009
9.35693
8.92139
8.54602
7.87752
8.07601
9.11499
5.38028
9.93354
1
1
1
1
1
1
1
1
1.00001
1.00002
1.00004
1.00008
1.00017
1.00034
1.00071
1.00145
1.00297
1.0061
1.01253
1.02576
1.05308
1.1099
1.22995
1.4923
2.11029
3.85109
10.02
11.7689
11.5399
10.9843
10.2351
9.71163
9.41011
8.94018
8.61795
8.1016
8.16159
9.01052
10.1207
10.7629
1
1
1
1
1
1
1
1
1.00001
1.00002
1.00004
1.00008
1.00016
1.00032
1.00066
1.00135
1.00277
1.00568
1.01164
1.02388
1.0491
1.10138
1.21135
1.44991
2.00378
3.52521
8.68524
12.0821
11.8346
11.2454
10.4019
9.77974
9.41562
8.94148
8.71448
8.22645
8.34111
9.03622
9.76804
10.2409
1
1
1
1
1
1
1
1
1.00001
1.00002
1.00003
1.00007
1.00015
1.0003
1.00061
1.00124
1.00254
1.00518
1.01059
1.02165
1.04434
1.09117
1.18909
1.39955
1.87913
3.15515
7.04918
12.7515
12.3941
11.5951
10.5822
9.84392
9.41169
8.99002
8.78053
8.33333
8.2691
8.70539
11.0544
9.67321
1
1
1
1
1
1
1
1
1.00001
1.00002
1.00003
1.00007
1.00013
1.00027
1.00055
1.00113
1.0023
1.00468
1.00952
1.01938
1.03956
1.08124
1.16841
1.35498
1.77369
2.86713
6.02356
12.7866
12.4595
11.5813
10.5886
9.86201
9.40337
9.02256
8.78192
8.45682
8.29844
8.27046
9.9352
10.5847
1
1
1
1
1
1
1
1
1.00001
1.00001
1.00003
1.00006
1.00012
1.00025
1.00052
1.00106
1.00217
1.00442
1.00901
1.01841
1.03765
1.07734
1.16011
1.33677
1.73138
2.75325
5.77202
12.8755
12.5158
11.6154
10.5779
9.85628
9.37677
9.02121
8.78212
8.58229
8.36085
8.51966
10.256
10.4619
1
1
1
1
1
1
1
1
1.00001
1.00001
1.00003
1.00006
1.00012
1.00024
1.00049
1.00101
1.00207
1.00423
1.00865
1.01771
1.03633
1.07478
1.15505
1.32628
1.70793
2.6772
5.53842
12.8666
12.5075
11.6296
10.5423
9.83536
9.34572
9.0185
8.8103
8.62075
8.50212
8.78728
10.0388
11.8334
1
1
1
1
1
1
1
1
1.00001
1.00001
1.00003
1.00006
1.00011
1.00023
1.00047
1.00097
1.00199
1.00407
1.00833
1.01709
1.03509
1.07232
1.15005
1.31583
1.68518
2.60708
5.3574
12.8241
12.4719
11.5999
10.4554
9.78613
9.32776
9.0105
8.7816
8.61394
8.64642
8.97795
9.46544
12.7076
1
1
1
1
1
1
1
1
1.00001
1.00001
1.00003
1.00005
1.00011
1.00022
1.00046
1.00094
1.00192
1.00393
1.00806
1.01655
1.03402
1.07015
1.1456
1.3064
1.66433
2.54575
5.16201
12.7032
12.3735
11.5249
10.3345
9.70223
9.30194
8.97297
8.64021
8.64342
8.74708
8.97713
9.55474
11.4535
1
1
1
1
1
1
1
1
1.00001
1.00001
1.00003
1.00005
1.00011
1.00022
1.00044
1.00091
1.00186
1.00381
1.0078
1.01602
1.03293
1.0679
1.1409
1.29629
1.64122
2.4852
4.98413
12.4785
12.1979
11.3988
10.1981
9.5831
9.28275
8.99447
8.66293
8.72842
8.77206
8.93151
8.93578
10.5278
1
1
1
1
1
1
1
1
1.00001
1.00001
1.00002
1.00005
1.0001
1.00021
1.00043
1.00088
1.0018
1.00369
1.00757
1.01554
1.03195
1.06588
1.13668
1.28727
1.62088
2.43302
4.82145
12.1074
11.839
11.1074
10.0623
9.48987
9.21709
9.01388
8.81606
8.73033
8.78064
8.82047
8.5847
10.296
1
1
1
1
1
1
1
1
1.00001
1.00001
1.00002
1.00005
1.0001
1.0002
1.00042
1.00085
1.00175
1.00359
1.00736
1.01511
1.03105
1.06401
1.13277
1.27888
1.60194
2.38432
4.66876
11.7488
11.5164
10.8654
9.96099
9.42317
9.20426
8.94157
8.83071
8.75553
8.70416
8.74875
8.53481
10.2618
1
1
1
1
1
1
1
1
1.00001
1.00001
1.00002
1.00005
1.0001
1.0002
1.0004
1.00083
1.0017
1.00348
1.00714
1.01466
1.03013
1.06211
1.12877
1.27027
1.58248
2.33498
4.51744
11.3705
11.1848
10.6517
9.94192
9.41217
9.21709
8.945
8.84319
8.76567
8.70615
8.74851
8.65438
10.2924
1
1
1
1
1
1
1
1
1.00001
1.00001
1.00002
1.00005
1.00009
1.00019
1.00039
1.0008
1.00164
1.00337
1.00691
1.01417
1.02913
1.06004
1.12446
1.26109
1.56196
2.28358
4.36259
10.9851
10.8623
10.4865
9.95223
9.41774
9.24458
8.95478
8.84044
8.77042
8.74278
8.75075
8.68396
10.283
1
1
1
1
1
1
1
1
1
1.00001
1.00002
1.00004
1.00009
1.00018
1.00037
1.00077
1.00157
1.00323
1.00663
1.0136
1.02796
1.05764
1.11945
1.25041
1.53815
2.22443
4.1864
10.5436
10.5805
10.4249
9.99983
9.43819
9.18628
8.94524
8.82323
8.76517
8.73542
8.70929
8.65879
10.2072
1
1
1
1
1
1
1
1
1
1.00001
1.00002
1.00004
1.00008
1.00017
1.00035
1.00073
1.00149
1.00306
1.00628
1.0129
1.02652
1.05467
1.11326
1.23724
1.50878
2.15166
3.96791
9.88095
10.5982
10.4549
10.1006
9.49242
9.16105
8.92529
8.79398
8.67008
8.66732
8.61833
8.60131
10.01
1
1
1
1
1
1
1
1
1
1.00001
1.00002
1.00004
1.00008
1.00016
1.00033
1.00068
1.00139
1.00285
1.00586
1.01203
1.02474
1.051
1.10563
1.221
1.4727
2.06274
3.70351
9.02268
10.6866
10.5493
10.2236
9.58814
9.17496
8.84574
8.66901
8.56018
8.65179
8.58957
8.53923
9.51164
1
1
1
1
1
1
1
1
1
1.00001
1.00002
1.00004
1.00007
1.00015
1.0003
1.00062
1.00128
1.00262
1.00537
1.01104
1.02269
1.04675
1.09676
1.20217
1.43102
1.9614
3.40548
7.96425
10.9234
10.7645
10.3983
9.72281
9.22121
8.87516
8.65302
8.5716
8.36796
8.45615
8.13949
9.05908
1
1
1
1
1
1
1
1
1
1.00001
1.00002
1.00003
1.00007
1.00013
1.00027
1.00056
1.00115
1.00237
1.00486
1.00997
1.02048
1.04215
1.08709
1.18147
1.38483
1.84775
3.07824
7.05025
11.3593
11.119
10.5516
9.85277
9.17204
8.89933
8.73116
8.50178
8.1377
7.87041
7.53354
8.27524
1
1
1
1
1
1
1
1
1
1.00001
1.00001
1.00002
1.00005
1.0001
1.00021
1.00043
1.00088
1.0018
1.0037
1.00759
1.0156
1.03209
1.06622
1.13745
1.28897
1.62396
2.46276
5.13185
11.3257
11.2136
10.7611
9.85933
9.26574
8.82527
8.49574
8.24555
7.84346
7.47667
7.00951
6.30034
1
1
1
1
1
1
1
1
1
1
1.00001
1.00001
1.00003
1.00006
1.00013
1.00026
1.00053
1.00108
1.00221
1.00452
1.00928
1.01905
1.03918
1.08088
1.16822
1.35518
1.78784
2.88304
11.1316
11.0006
10.5779
9.77172
9.23324
8.77887
8.48892
8.19988
7.79161
7.40587
6.58512
5.04728
1
1
1
1
1
1
1
1
1
1
1
1.00001
1.00002
1.00003
1.00007
1.00014
1.00029
1.0006
1.00124
1.00253
1.00519
1.01065
1.02186
1.04498
1.09294
1.19372
1.41188
1.93114
2.81249
4.90863
10.0662
9.79026
9.2181
8.85316
8.54504
8.26112
7.79642
7.15099
6.25107
5.08197
1
1
1
1
1
1
1
1
1
1
1
1
1.00001
1.00002
1.00004
1.00008
1.00017
1.00034
1.0007
1.00144
1.00294
1.00601
1.0123
1.02518
1.05167
1.10656
1.22169
1.47856
2.03739
3.51473
8.81136
9.52695
9.29592
8.90643
8.44693
8.04601
7.51716
6.93573
6.14429
5.12955
1
1
1
1
1
1
1
1
1
1
1
1
1.00001
1.00002
1.00003
1.00006
1.00013
1.00027
1.00055
1.00113
1.00231
1.00472
1.00965
1.01977
1.0406
1.08373
1.1741
1.36869
1.80631
2.96759
8.80852
8.96407
9.12446
8.94911
8.47906
7.97142
7.57438
6.88807
6.14734
5.18445
1
1
1
1
1
1
1
1
1
1
1
1
1.00001
1.00001
1.00002
1.00004
1.00009
1.00017
1.00035
1.00072
1.00148
1.00303
1.00623
1.01284
1.0265
1.05478
1.11359
1.23771
1.50838
2.16058
3.65747
7.54718
8.98477
8.8909
8.64032
8.1219
7.58319
6.8405
6.18067
5.33187
1
1
1
1
1
1
1
1
1
1
1
1
1
1.00001
1.00001
1.00002
1.00005
1.00009
1.00019
1.00038
1.00078
1.0016
1.00331
1.00685
1.0142
1.02948
1.0613
1.1279
1.26945
1.5838
2.34163
4.42554
8.83421
8.77224
8.59957
8.21881
7.37431
6.78525
6.14352
5.43334
1
1
1
1
1
1
1
1
1
1
1
1
1
1
1.00001
1.00002
1.00004
1.00008
1.00017
1.00035
1.00072
1.00149
1.00305
1.00625
1.0128
1.02625
1.054
1.11178
1.23408
1.50161
2.16359
3.97646
8.43929
8.43477
8.32728
8.0403
7.30555
6.75991
6.0936
5.54948
1
1
1
1
1
1
1
1
1
1
1
1
1
1
1.00001
1.00002
1.00004
1.00007
1.00015
1.0003
1.00062
1.00129
1.00268
1.00554
1.01142
1.02348
1.04824
1.09932
1.20623
1.43733
1.97652
3.42303
7.50762
7.75741
7.69208
7.54589
7.18359
6.83405
6.10632
5.40248
1
1
1
1
1
1
1
1
1
1
1
1
1
1
1.00001
1.00001
1.00003
1.00006
1.00013
1.00025
1.00052
1.00105
1.00213
1.00433
1.00883
1.01809
1.03721
1.07695
1.1605
1.34025
1.74888
2.81032
6.8256
7.41905
7.36105
7.30517
7.1485
6.87304
6.20985
5.30889
1
1
1
1
1
1
1
1
1
1
1
1
1
1
1
1.00001
1.00001
1.00003
1.00006
1.00013
1.00028
1.00059
1.00125
1.00261
1.00543
1.01128
1.02343
1.04875
1.10197
1.21557
1.46483
2.06525
3.456
7.11444
6.94798
6.90186
6.86418
6.7293
6.05379
5.28618
1
1
1
1
1
1
1
1
1
1
1
1
1
1
1
1
1.00001
1.00002
1.00004
1.00008
1.00016
1.00032
1.00064
1.0013
1.00261
1.00524
1.01052
1.02121
1.04295
1.08761
1.18091
1.38292
1.83307
2.97142
5.87056
6.44274
6.39492
6.27708
5.96946
5.57396
1
1
1
1
1
1
1
1
1
1
1
1
1
1
1
1
1.00001
1.00001
1.00002
1.00005
1.0001
1.00022
1.00046
1.00097
1.00203
1.00417
1.00848
1.01705
1.03393
1.06554
1.1293
1.25898
1.53122
2.14038
3.48788
6.1427
6.11394
6.05995
5.97707
5.76235
1
1
1
1
1
1
1
1
1
1
1
1
1
1
1
1
1
1.00001
1.00002
1.00003
1.00006
1.00012
1.00025
1.00052
1.00108
1.00225
1.00469
1.00965
1.01965
1.03975
1.08053
1.16461
1.34305
1.74384
2.75274
5.23183
5.92815
5.92498
5.88416
5.71745
1
1
1
1
1
1
1
1
1
1
1
1
1
1
1
1
1
1.00001
1.00001
1.00002
1.00004
1.00008
1.00016
1.00032
1.00063
1.00124
1.00243
1.00497
1.01045
1.02231
1.04731
1.09928
1.20728
1.43533
1.94822
3.20883
5.6322
5.61608
5.56687
5.39683
1
1
1
1
1
1
1
1
1
1
1
1
1
1
1
1
1
1
1.00001
1.00001
1.00003
1.00005
1.00011
1.00023
1.00048
1.001
1.00207
1.00423
1.00859
1.01745
1.03559
1.07323
1.15236
1.32212
1.70248
2.63041
4.85654
4.8469
4.81577
4.77001
1
1
1
1
1
1
1
1
1
1
1
1
1
1
1
1
1
1
1
1.00001
1.00001
1.00003
1.00006
1.00011
1.00023
1.00045
1.00089
1.00171
1.0033
1.00641
1.01271
1.02577
1.05302
1.10972
1.23003
1.49784
2.11906
3.6946
3.9652
3.9518
1
1
1
1
1
1
1
1
1
1
1
1
1
1
1
1
1
1
1
1.00001
1.00001
1.00003
1.00005
1.0001
1.0002
1.0004
1.00076
1.00148
1.00283
1.00525
1.00901
1.01623
1.02722
1.04759
1.08842
1.17183
1.34767
1.72105
2.57353
3.73041
1
1
1
1
1
1
1
1
1
1
1
1
1
1
1
1
1
1
1
1.00001
1.00001
1.00003
1.00005
1.0001
1.00018
1.00036
1.00068
1.00128
1.00247
1.0044
1.00822
1.01348
1.0224
1.04003
1.0749
1.14523
1.28993
1.58284
2.14991
3.51681
1
1
1
1
1
1
1
1
1
1
1
1
1
1
1
1
1
1
1
1
1.00001
1.00002
1.00003
1.00006
1.00012
1.00023
1.00044
1.00086
1.00168
1.00327
1.00645
1.01206
1.02285
1.0353
1.05967
1.10646
1.20692
1.4415
1.97778
3.17876
1
1
1
1
1
1
1
1
1
1
1
1
1
1
1
1
1
1
1
1
1
1
1
1.00001
1.00002
1.00004
1.00008
1.00018
1.00038
1.00079
1.00166
1.00349
1.00728
1.01497
1.0305
1.03073
1.03069
1.03231
1.03479
1.04318
1
1
1
1
1
1
1
1
1
1
1
1
1
1
1
1
1
1
1
1
1
1
1
1
1
1.00001
1.00001
1.00002
1.00004
1.00009
1.00017
1.00035
1.0007
1.00136
1.00259
1.00445
1.00803
1.01511
1.02935
1.04266
1
1
1
1
1
1
1
1
1
1
1
1
1
1
1
1
1
1
1
1
1
1
1
1
1
1
1
1.00001
1.00001
1.00002
1.00004
1.00009
1.00017
1.00036
1.00075
1.00159
1.00332
1.00683
1.01407
1.02974
1
1
1
1
1
1
1
1
1
1
1
1
1
1
1
1
1
1
1
1
1
1
1
1
1
1
1
1.00001
1.00001
1.00002
1.00004
1.00008
1.00015
1.00029
1.00057
1.00112
1.00228
1.00472
1.00991
1.02119
1
1
1
1
1
1
1
1
1
1
1
1
1
1
1
1
1
1
1
1
1
1
1
1
1
1
1
1.00001
1.00001
1.00002
1.00005
1.00009
1.00018
1.00036
1.00071
1.00143
1.00287
1.00576
1.01155
1.02249
1
1
1
1
1
1
1
1
1
1
1
1
1
1
1
1
1
1
1
1
1
1
1
1
1
1
1.00001
1.00001
1.00002
1.00004
1.00009
1.00017
1.00034
1.00068
1.00132
1.00258
1.00498
1.00976
1.01929
1.03755
1
1
1
1
1
1
1
1
1
1
1
1
1
1
1
1
1
1
1
1
1
1
1
1
1
1
1
1.00001
1.00002
1.00004
1.00008
1.00017
1.00035
1.0007
1.00142
1.00282
1.00556
1.01086
1.02132
1.03894
1
1
1
1
1
1
1
1
1
1
1
1
1
1
1
1
1
1
1
1
1
1
1
1
1
1
1
1
1.00001
1.00002
1.00004
1.0001
1.00022
1.00048
1.00107
1.00235
1.00512
1.01097
1.0231
1.04777
1
1
1
1
1
1
1
1
1
1
1
1
1
1
1
1
1
1
1
1
1
1
1
1
1
1
1
1
1
1.00001
1.00002
1.00005
1.00012
1.00028
1.00064
1.00139
1.00296
1.00621
1.01308
1.02816
1
1
1
1
1
1
1
1
1
1
1
1
1
1
1
1
1
1
1
1
1
1
1
1
1
1
1
1
1.00001
1.00001
1.00002
1.00005
1.0001
1.00019
1.00039
1.00083
1.00177
1.00377
1.00794
1.01651
1
1
1
1
1
1
1
1
1
1
1
1
1
1
1
1
1
1
1
1
1
1
1
1
1
1
1
1
1.00001
1.00001
1.00002
1.00005
1.0001
1.0002
1.00041
1.00083
1.00167
1.00333
1.00664
1.01301
1
1
1
1
1
1
1
1
1
1
1
1
1
1
1
1
1
1
1
1
1
1
1
1
1
1
1
1
1.00001
1.00001
1.00002
1.00005
1.00009
1.00019
1.00039
1.0008
1.00166
1.00341
1.00697
1.01413
1
1
1
1
1
1
1
1
1
1
1
1
1
1
1
1
1
1
1
1
1
1
1
1
1
1
1
1
1
1.00001
1.00002
1.00003
1.00007
1.00016
1.00032
1.00067
1.00136
1.00276
1.0056
1.01141
1
1
1
1
1
1
1
1
1
1
1
1
1
1
1
1
1
1
1
1
1
1
1
1
1
1
1
1
1
1
1.00001
1.00002
1.00004
1.0001
1.00022
1.00049
1.00107
1.00229
1.00482
1.01001
1
1
1
1
1
1
1
1
1
1
1
1
1
1
1
1
1
1
1
1
1
1
1
1
1
1
1
1
1
1
1
1.00001
1.00002
1.00005
1.00011
1.00025
1.00057
1.00131
1.00297
1.00663
1
1
1
1
1
1
1
1
1
1
1
1
1
1
1
1
1
1
1
1
1
1
1
1
1
1
1
1
1
1
1.00001
1.00001
1.00002
1.00004
1.00009
1.00018
1.00035
1.00072
1.00148
1.00315
1
1
1
1
1
1
1
1
1
1
1
1
1
1
1
1
1
1
1
1
1
1
1
1
1
1
1
1
1
1
1.00001
1.00001
1.00003
1.00005
1.00011
1.00021
1.00043
1.00086
1.00173
1.00348
1
1
1
1
1
1
1
1
1
1
1
1
1
1
1
1
1
1
1
1
1
1
1
1
1
1
1
1
1
1
1
1.00001
1.00002
1.00003
1.00007
1.00015
1.00031
1.00064
1.0013
1.00267
1
1
1
1
1
1
1
1
1
1
1
1
1
1
1
1
1
1
1
1
1
1
1
1
1
1
1
1
1
1
1
1.00001
1.00002
1.00004
1.00008
1.00017
1.00034
1.00069
1.00139
1.00282
1
1
1
1
1
1
1
1
1
1
1
1
1
1
1
1
1
1
1
1
1
1
1
1
1
1
1
1
1
1
1
1.00001
1.00002
1.00004
1.00008
1.00016
1.00032
1.00064
1.0013
1.00264
3.24837
2.20613
1.5839
1.3151
1.2051
1.06485
1.06581
1.07106
1.08926
1.1073
1.11099
1.10975
1.11537
1.09596
1.10682
1.18696
1.18379
1.18837
1.196
1.19384
1.26944
1.34398
1.38727
1.4319
1.45712
1.50671
1.48119
1.43174
1.43721
1.48377
1.63613
1.53319
1.55555
1.7441
2.0585
2.01479
2.07765
2.19657
2.37992
2.4516
3.37925
2.32344
1.67686
1.40675
1.29373
1.14148
1.12286
1.1196
1.12843
1.13977
1.1579
1.19658
1.21047
1.20322
1.17613
1.11558
1.17991
1.19975
1.22243
1.24578
1.27843
1.35936
1.43738
1.46111
1.46878
1.45971
1.40772
1.49663
1.56172
1.56971
1.58541
1.5573
1.54467
1.74723
1.76985
1.71754
1.47072
1.14525
0.449925
0.085041
3.69744
2.60008
1.96068
1.73392
1.67734
1.53669
1.35312
1.14626
1.13295
1.13722
1.15238
1.19338
1.21464
1.24947
1.33076
1.38528
1.38386
1.37158
1.35906
1.36045
1.35797
1.367
1.3481
1.43973
1.4724
1.43152
1.47459
1.55854
1.56946
1.66867
1.63391
1.79147
1.57
1.56692
1.78946
2.05672
2.56135
2.13448
1.92094
2.01209
3.92937
3.14618
2.54636
2.12416
1.84426
1.68418
1.55955
1.27102
1.17811
1.17399
1.18703
1.18465
1.19429
1.21793
1.29261
1.36898
1.39254
1.38336
1.39995
1.3628
1.33274
1.35007
1.39595
1.42693
1.44696
1.43686
1.48444
1.51932
1.53018
1.5525
1.46634
1.47298
1.75398
1.73658
1.681
1.80852
2.34417
2.67077
2.3984
2.06226
4.37194
3.35418
2.61571
2.18368
1.91976
1.71699
1.52418
1.37507
1.25739
1.22188
1.21095
1.22122
1.23635
1.2692
1.3174
1.3351
1.38328
1.38019
1.3665
1.36325
1.37628
1.34618
1.35908
1.41077
1.41719
1.42923
1.49175
1.49884
1.49587
1.67525
1.67877
1.57066
1.75928
1.77175
1.69265
1.81896
1.92942
2.2942
2.38653
2.41811
4.42429
3.43032
2.62582
2.2445
2.06295
1.81441
1.53766
1.38863
1.27069
1.2252
1.21528
1.21818
1.22684
1.24914
1.29104
1.33798
1.37811
1.39584
1.40724
1.37199
1.3448
1.405
1.47751
1.44972
1.46373
1.49441
1.52856
1.56424
1.51073
1.503
1.95293
1.90826
1.83445
2.01948
1.82632
1.77731
1.89403
2.18636
2.27149
2.55435
4.48758
3.4421
2.61739
2.34732
2.18866
1.9041
1.60646
1.41353
1.29811
1.243
1.23526
1.23725
1.24464
1.26347
1.29471
1.33609
1.35041
1.36186
1.37029
1.36938
1.3965
1.46487
1.47311
1.48892
1.43549
1.46292
1.41322
1.42898
1.48902
1.50658
1.51793
1.61064
1.69274
1.66667
2.10717
1.76582
1.81212
2.32683
2.50481
2.21279
4.62457
3.46003
2.62283
2.49669
2.28786
1.96781
1.67884
1.45846
1.35181
1.28361
1.28292
1.28551
1.29522
1.31874
1.36013
1.40266
1.39477
1.42546
1.46106
1.47296
1.49092
1.48213
1.46346
1.51222
1.45407
1.4394
1.44833
1.47429
1.62335
1.53104
1.47059
1.49605
1.65569
1.59506
1.8463
1.9984
1.93936
2.32336
2.36804
1.94388
4.75018
3.42276
2.75119
2.58178
2.35418
1.98387
1.75256
1.56658
1.44442
1.3707
1.37239
1.38019
1.38955
1.3975
1.40544
1.39425
1.38157
1.43623
1.45995
1.45367
1.45615
1.45763
1.45204
1.48064
1.43864
1.49403
1.47459
1.46155
1.49865
1.62009
1.60266
1.51906
1.72416
1.71723
1.6978
2.16214
2.43614
2.40859
2.27412
2.14783
4.66724
3.38811
2.856
2.67359
2.39149
1.97033
1.81664
1.75381
1.64267
1.54854
1.49333
1.45211
1.43251
1.42561
1.42154
1.42348
1.43089
1.45144
1.50508
1.51465
1.45136
1.4712
1.58039
1.51207
1.48262
1.47142
1.46018
1.58624
1.52936
1.39181
1.58935
1.70707
1.78994
1.8941
2.02159
2.05904
2.10643
2.77935
2.85586
1.88176
4.58865
3.49357
2.9394
2.75884
2.40154
2.1222
1.90898
1.76542
1.65926
1.59833
1.54235
1.49951
1.47808
1.47456
1.47329
1.46807
1.43737
1.45326
1.45233
1.47481
1.52931
1.50103
1.49724
1.56594
1.52514
1.3513
1.3443
1.46417
1.47174
1.5981
1.61441
1.61093
1.4745
1.5132
1.70377
2.05981
2.11177
2.21658
2.81017
2.39554
4.80922
3.50174
2.98213
2.80009
2.5079
2.19787
1.97504
1.81097
1.70778
1.65722
1.61843
1.58224
1.53456
1.5215
1.50377
1.51154
1.51222
1.53713
1.5431
1.40643
1.39685
1.55704
1.54727
1.49389
1.56895
1.62762
1.46399
1.34489
1.28499
1.43559
1.65456
1.68177
1.54611
1.5169
1.73208
2.3781
2.49184
2.35675
2.37255
2.84435
4.81398
3.48136
3.03619
2.80613
2.54519
2.2403
2.02271
1.86995
1.77591
1.7244
1.68046
1.63253
1.56737
1.53763
1.50548
1.5031
1.5048
1.53449
1.62433
1.62376
1.50212
1.43372
1.48248
1.51961
1.45171
1.58573
1.41006
1.32311
1.31365
1.37678
1.49286
1.73316
2.20112
1.75616
1.64201
1.73766
2.2994
2.61969
2.604
2.39191
4.81142
3.47904
3.07046
2.84121
2.58816
2.27955
2.11712
1.95322
1.83517
1.75814
1.70432
1.63863
1.56667
1.53783
1.52937
1.56197
1.54686
1.46614
1.6206
1.66213
1.43981
1.51322
1.52291
1.39737
1.5033
1.68844
1.49392
1.57536
1.72207
1.56435
1.52428
1.73976
1.80256
1.85139
1.80439
1.64784
1.83927
2.40093
2.95869
2.61292
4.64935
3.47026
3.13266
2.87867
2.62646
2.35505
2.27423
2.09435
1.88889
1.78211
1.71428
1.6361
1.60158
1.61326
1.60856
1.61389
1.64982
1.55928
1.61764
1.70625
1.51072
1.54415
1.6044
1.52705
1.56617
1.78088
1.60489
1.5482
1.61217
1.67822
1.71488
1.75702
1.57116
1.72072
2.17721
2.13005
1.93545
1.96905
2.34527
3.04841
4.2518
3.40606
3.20901
2.90828
2.62096
2.46688
2.30982
2.20862
1.98755
1.80026
1.73067
1.70428
1.70228
1.69692
1.75391
1.79947
1.60528
1.55679
1.78758
1.71166
1.6074
1.75845
1.50925
1.47544
1.65489
2.13627
1.64702
1.59953
1.77439
1.77587
1.63621
1.79781
1.44324
1.57857
1.89313
2.15315
2.33009
2.39286
2.2223
1.97419
3.78261
3.45129
3.2745
2.99836
2.60272
2.5211
2.37523
2.21321
1.97519
1.84818
1.81213
1.82979
1.92579
1.97297
1.94068
1.67197
1.5934
1.62332
1.88792
1.73935
1.712
1.75104
1.56531
1.54144
1.66736
1.92506
1.63596
1.54155
1.7336
1.91757
1.68471
1.83473
2.4084
2.3872
2.17922
1.9518
1.91626
2.3252
2.45318
1.99851
3.61324
3.54172
3.29859
3.05083
2.66991
2.53309
2.4027
2.24864
1.98137
1.97504
2.05039
2.08922
2.06989
1.9538
1.82105
1.7192
1.6698
1.71504
1.89036
1.73829
1.85987
1.7544
1.51057
1.71389
1.813
1.66284
1.72088
1.64045
1.87548
1.73217
1.62442
1.67838
1.97217
2.28844
2.02535
1.93035
2.12767
2.47703
2.42394
2.20703
3.5489
3.46875
3.33214
3.03915
2.72013
2.50917
2.36461
2.31931
2.09603
2.0898
2.07406
2.16111
2.07519
1.91133
1.8383
1.85639
1.89508
1.98016
1.95441
1.65809
1.87237
1.67314
1.5957
1.83334
1.85495
1.69968
1.73743
1.63396
1.92369
1.80549
1.84938
1.80828
1.89452
2.40692
2.63898
2.17134
2.29891
2.66568
2.58257
2.31151
3.35416
3.34154
3.24436
2.93649
2.80189
2.49479
2.38389
2.33718
2.22135
2.15208
2.19501
2.17342
1.97817
1.95932
2.06805
2.12195
2.06407
2.16434
1.86836
1.75803
1.65737
1.62199
1.80865
2.10735
1.85357
1.83941
1.72312
1.61623
1.91216
2.02028
1.81615
1.94307
2.11896
2.21087
2.303
2.13683
1.93751
2.16789
2.4489
2.9314
1.11413
1.04104
2.97064
2.78238
2.75535
2.65347
2.45056
2.38478
2.46358
2.44583
2.21341
2.11667
2.12947
2.19339
2.1648
2.06168
2.12797
2.53556
1.86264
1.64791
1.60753
1.62452
1.89485
2.69264
2.18662
1.75894
1.72645
1.7195
1.7953
1.87623
2.6789
2.30033
2.13102
2.03216
2.14567
2.02613
2.02442
2.26095
2.73723
3.08215
1.11182
1.37125
2.13266
2.7691
2.77519
2.6533
2.48037
2.46225
2.5604
2.47501
2.21232
2.23077
2.27318
2.18148
2.1493
2.15106
2.20421
2.47569
1.82915
1.72761
1.71348
1.75076
1.92967
2.39751
2.33733
1.69136
1.73153
2.06647
2.00975
2.26174
2.3779
2.11619
2.24029
1.99752
2.12892
2.21801
2.10456
2.26283
2.59185
2.5374
1.12246
1.48549
2.14517
2.76253
2.7878
2.6744
2.58418
2.65224
2.60003
2.35968
2.33526
2.35629
2.2787
2.27061
2.24412
2.35059
2.4814
2.03263
1.90315
1.97591
2.08438
1.98475
2.13291
2.32764
1.85207
2.03112
2.15079
2.10552
2.13317
2.17129
1.82745
1.92365
2.11814
1.98761
2.1226
2.66702
2.52081
2.40721
2.31098
2.52255
1.08423
1.31295
1.98111
2.71865
2.72445
2.71838
2.75898
2.75482
2.57074
2.59049
2.58009
2.49981
2.51058
2.56257
2.69475
2.60453
2.35052
2.17672
2.16751
2.12608
2.04784
2.15963
2.35612
2.01722
2.0077
1.93821
1.88895
2.44616
2.00049
1.91265
1.90644
1.99827
1.92845
1.81219
2.16913
2.62329
2.94191
2.78384
2.52444
2.46406
1.07757
1.26016
1.61576
2.36883
2.6981
2.77172
2.79473
2.66317
2.73748
2.69375
2.62743
2.68628
2.72451
2.7798
2.64753
2.42679
2.4814
2.27321
2.27091
2.17577
2.07066
2.46394
2.11697
2.00682
2.13553
2.11023
2.05412
2.43529
1.85921
1.97622
2.12872
2.10351
2.3614
2.07583
2.30938
2.51332
2.75686
2.60122
2.8659
2.50249
1.13064
1.29047
1.57347
2.14065
2.64929
2.73752
2.70445
2.69719
2.73806
2.64106
2.62975
2.72796
2.73119
2.68375
2.55906
2.67245
2.42507
2.31291
2.48025
2.25556
2.47273
2.17195
2.02805
2.24576
2.57193
2.20985
2.26548
2.12431
1.81173
2.00679
2.22801
2.29143
2.39942
2.40432
2.36241
2.52917
2.8821
2.90846
2.32907
2.52204
1.12816
1.35865
1.583
2.01969
2.45129
2.68937
2.73164
2.66979
2.8167
2.57309
2.57054
2.75663
2.7554
2.75718
2.80047
2.59092
2.5036
2.59894
2.46175
2.62723
2.49806
2.1337
2.28206
2.49097
2.30292
2.51466
2.15192
1.88921
2.13842
2.38426
2.33908
2.39941
1.91239
2.06591
2.47935
2.69643
2.82704
2.72837
2.27231
2.30652
1.175
1.51395
1.64464
1.83796
2.27035
2.67825
2.72388
2.72329
2.76727
2.49009
2.6082
2.79473
2.79838
2.81107
2.7013
2.65082
2.60574
2.70178
3.0243
2.57838
2.35543
2.40196
2.46409
2.28026
2.48763
2.71909
2.04016
2.16687
2.55761
2.39935
2.45679
2.43455
2.20038
2.34516
2.60179
2.62576
2.77509
2.58653
2.52301
2.37538
1.11567
1.45829
1.58972
1.86725
2.31954
2.66171
2.63252
2.7732
2.57895
2.69476
2.98716
3.14256
3.19619
3.16409
3.08262
3.11856
3.25256
2.92692
2.64713
2.49391
2.42149
2.54697
2.85659
2.96839
2.45151
2.32917
2.66642
2.57898
2.79306
2.80481
2.14407
2.18558
2.36963
3.17347
3.33534
2.89222
2.9481
2.9775
2.94995
2.48972
1.06022
1.19435
1.46654
1.83444
2.53974
2.703
2.7447
2.54946
2.74397
3.25572
3.10957
3.09082
3.23102
3.22712
3.20814
3.11262
2.79484
2.72191
2.75467
3.00842
3.289
3.3781
2.74564
2.52245
2.65133
2.73124
2.6644
2.75694
2.42744
2.2142
2.42501
3.12177
2.98491
2.8025
2.79079
2.59922
2.65315
3.11194
3.49751
2.80226
1.0451
1.14911
1.35847
1.85149
2.60584
2.42305
2.43649
2.64195
3.05621
2.95562
2.76824
3.06743
3.18766
3.17429
3.13321
3.09746
3.10085
3.16608
3.46449
3.70126
3.21969
2.91229
2.86967
3.12844
2.7241
2.48991
2.85804
2.41585
2.35748
2.71649
3.46618
3.30974
3.00396
2.76161
2.61458
2.60987
2.71061
2.76595
2.92729
3.37538
1.05027
1.1673
1.40784
1.60207
2.17525
2.52945
2.28173
2.73215
3.02248
3.0116
2.94553
3.19613
3.33498
3.3793
3.42605
3.53579
3.56405
3.53828
3.58257
3.23225
3.06992
3.06528
3.22881
2.79022
2.56715
2.9171
2.75432
2.49431
2.50742
2.67055
3.47876
3.10044
2.68851
2.6175
2.41309
2.42595
2.87887
2.99367
3.00807
2.81758
1.04163
1.14508
1.37752
1.56114
1.92064
1.99461
2.19591
2.93309
3.16052
2.79366
2.96181
3.44565
3.46177
3.46842
3.43534
3.44725
3.46927
3.32047
3.28601
3.30192
3.14007
3.16004
3.2432
3.13631
2.87494
2.65966
2.63052
2.61964
2.61004
3.3317
3.40106
2.91243
2.81201
2.768
2.87217
2.78911
2.78259
2.91794
2.8868
3.87336
1.03672
1.12329
1.28604
1.56077
1.50746
1.69109
2.19302
3.05675
2.73152
2.69523
3.23162
3.3333
3.38184
3.35616
3.32615
3.32529
3.30413
3.26046
3.31857
3.21847
3.14109
3.28129
3.28087
3.05025
2.99732
3.03634
2.96177
3.09473
3.58137
3.09946
2.81115
2.88747
3.74665
3.12515
2.89029
3.03031
2.81896
2.72237
2.65745
3.62365
1.02639
1.09029
1.21606
1.45079
1.54698
1.82739
2.28805
2.80923
2.69259
3.23382
3.58584
3.57013
3.52825
3.48589
3.48363
3.48701
3.48101
3.5211
3.4263
3.36964
3.4475
3.43013
3.27623