/*--------------------------------*- C++ -*----------------------------------*\
  =========                 |
  \\      /  F ield         | OpenFOAM: The Open Source CFD Toolbox
   \\    /   O peration     | Website:  https://openfoam.org
    \\  /    A nd           | Version:  6.0
     \\/     M anipulation  |
\*---------------------------------------------------------------------------*/
FoamFile
{
    version     2.0;
    format      ascii;
    class       surfaceScalarField;
    location    "1.5";
    object      phi;
}
// * * * * * * * * * * * * * * * * * * * * * * * * * * * * * * * * * * * * * //

dimensions      [1 0 -1 0 0 0 0];

internalField   nonuniform List<scalar> 
9440
(
0.00209995
-5.36682e-15
0.00209995
-3.16069e-14
0.00209995
-9.30996e-14
0.00209995
-2.00928e-13
0.00209995
-3.64374e-13
0.00209995
-5.81498e-13
0.00209995
-8.09808e-13
0.00209995
-9.01016e-13
0.00209995
-4.68558e-13
0.00209995
1.36702e-12
0.00209995
6.44303e-12
0.00209995
1.83585e-11
0.00209996
4.37767e-11
0.00209996
9.43672e-11
0.00209996
1.89368e-10
0.00209997
3.58307e-10
0.00209999
6.42539e-10
0.00210002
1.0929e-09
0.00210008
1.75915e-09
0.00210019
2.66468e-09
0.00210042
3.74846e-09
0.00210086
4.67703e-09
0.00210171
3.95257e-09
0.00210331
-5.35436e-09
0.00210617
-7.03798e-08
0.00211105
-6.16328e-08
0.00204858
0.000118749
0.00179839
0.00029907
0.00133426
0.000517944
-3.78894e-05
0.0016748
-0.00071444
0.00101615
-0.00065163
0.000194073
-0.000307684
0.00011747
0.000560076
-0.00086995
-0.000684992
0.00124783
-0.000419839
-0.000457777
-0.00138948
0.000572021
-0.000179658
-0.00173505
0.000311182
-0.000542681
-0.0079173
0.00209995
-6.08365e-15
0.00209995
-3.84362e-14
0.00209995
-1.2005e-13
0.00209995
-2.65782e-13
0.00209995
-4.866e-13
0.00209995
-7.78309e-13
0.00209995
-1.08219e-12
0.00209995
-1.19715e-12
0.00209995
-6.05579e-13
0.00209995
1.84973e-12
0.00209995
8.5305e-12
0.00209995
2.39352e-11
0.00209996
5.61545e-11
0.00209996
1.19044e-10
0.00209996
2.35421e-10
0.00209997
4.42016e-10
0.00209998
7.98252e-10
0.00210001
1.40458e-09
0.00210006
2.44449e-09
0.00210017
4.27978e-09
0.00210039
7.64443e-09
0.00210084
1.39288e-08
0.00210173
2.49826e-08
0.00210341
3.89575e-08
0.00210632
7.59922e-09
0.0021108
8.23094e-07
0.00201398
0.000275967
0.00177595
0.000591797
0.00135262
0.00100565
0.00130435
0.00204032
-0.000151438
0.00273513
-0.000640839
0.00061869
-0.00059716
-0.000367043
0.000458659
-0.00181969
-0.000142212
0.0019196
-0.000369655
-0.000271045
-0.000858618
0.000920481
-0.000253224
-0.00295383
0.000457747
-0.00137533
-0.0178937
0.00209995
-2.92328e-15
0.00209995
-2.35157e-14
0.00209995
-8.61161e-14
0.00209995
-2.04187e-13
0.00209995
-3.89125e-13
0.00209995
-6.49842e-13
0.00209995
-9.75385e-13
0.00209995
-1.29057e-12
0.00209995
-1.36096e-12
0.00209995
-5.94701e-13
0.00209995
2.37047e-12
0.00209995
1.05311e-11
0.00209995
3.03318e-11
0.00209996
7.54815e-11
0.00209996
1.74983e-10
0.00209996
3.90004e-10
0.00209998
8.49337e-10
0.0021
1.82414e-09
0.00210005
3.88651e-09
0.00210015
8.24906e-09
0.00210037
1.74962e-08
0.00210083
3.71531e-08
0.00210174
7.89193e-08
0.00210347
1.67292e-07
0.0021063
3.48188e-07
0.00211038
3.05654e-06
0.00201327
0.000445226
0.00180014
0.000878312
0.00154048
0.00136816
0.00169795
0.00220715
0.00153172
0.00307276
-0.000222456
0.00254622
-0.0007226
-0.000186809
0.000248289
-0.000780797
0.0010289
0.00154339
-0.00114564
0.00213767
0.000733709
-0.000766668
-0.000348599
-0.0019719
0.000618648
-0.00238625
-0.00613154
0.00209995
-2.71722e-16
0.00209995
-8.99542e-15
0.00209995
-4.68574e-14
0.00209995
-1.26244e-13
0.00209995
-2.60904e-13
0.00209995
-4.737e-13
0.00209995
-7.96791e-13
0.00209995
-1.25848e-12
0.00209995
-1.83857e-12
0.00209995
-2.33985e-12
0.00209995
-2.03961e-12
0.00209995
1.21354e-12
0.00209995
1.32571e-11
0.00209996
4.90848e-11
0.00209996
1.45759e-10
0.00209996
3.92227e-10
0.00209997
9.96912e-10
0.00209999
2.43885e-09
0.00210004
5.80283e-09
0.00210013
1.35228e-08
0.00210034
3.10564e-08
0.00210079
7.08084e-08
0.00210172
1.61991e-07
0.00210351
3.79446e-07
0.0021063
9.60617e-07
0.00211078
6.39941e-06
0.00203766
0.000610285
0.00185992
0.00115742
0.00168442
0.00169856
0.00176502
0.0024815
0.00177928
0.00278841
0.00163069
0.00299411
-0.000359927
0.00283984
0.00016725
0.000172043
0.001952
0.00113759
0.000877491
0.00328723
-0.000661834
0.000962423
-0.000504899
-0.00217303
0.00078001
-0.00374684
-0.00692473
0.00209995
8.56724e-16
0.00209995
1.30251e-17
0.00209995
-1.35259e-14
0.00209995
-4.27995e-14
0.00209995
-8.40943e-14
0.00209995
-1.24812e-13
0.00209995
-1.28798e-13
0.00209995
3.40576e-15
0.00209995
5.28385e-13
0.00209995
2.0805e-12
0.00209995
6.20084e-12
0.00209995
1.66256e-11
0.00209995
4.24446e-11
0.00209996
1.05823e-10
0.00209996
2.60682e-10
0.00209996
6.37233e-10
0.00209997
1.54642e-09
0.00209999
3.72126e-09
0.00210004
8.86927e-09
0.00210013
2.09392e-08
0.00210034
4.9088e-08
0.0021008
1.15004e-07
0.00210174
2.72685e-07
0.00210358
6.70155e-07
0.00210638
1.82643e-06
0.00211175
1.08775e-05
0.00206285
0.00077775
0.00191959
0.00142935
0.00179428
0.0019973
0.00179429
0.00267704
0.00165805
0.00284234
0.00250013
0.0028106
-0.000159423
0.00501422
0.00023093
0.00080223
0.00228679
7.84747e-05
0.00157593
0.00377643
-1.26727e-06
0.00270002
-0.00069006
-0.00163774
0.000831451
-0.00560719
-0.0158877
0.00209995
3.17706e-15
0.00209995
1.62596e-14
0.00209995
4.33122e-14
0.00209995
1.02207e-13
0.00209995
2.37112e-13
0.00209995
5.45746e-13
0.00209995
1.24116e-12
0.00209995
2.78823e-12
0.00209995
6.20075e-12
0.00209995
1.36855e-11
0.00209995
3.00386e-11
0.00209995
6.56796e-11
0.00209995
1.43258e-10
0.00209996
3.121e-10
0.00209996
6.79979e-10
0.00209996
1.48344e-09
0.00209998
3.24471e-09
0.0021
7.12489e-09
0.00210005
1.57291e-08
0.00210017
3.49802e-08
0.0021004
7.86426e-08
0.00210089
1.79954e-07
0.0021019
4.2444e-07
0.00210384
1.05487e-06
0.00210659
2.95248e-06
0.0021128
1.63497e-05
0.00208167
0.000945369
0.00196203
0.00169003
0.00184969
0.00227479
0.00176307
0.00284512
0.00189262
0.00260289
0.00368631
0.00104348
0.00856027
0.000357872
0.00110025
0.00924009
0.00412669
-0.00139719
0.00176516
0.00580604
0.001244
0.00315488
-0.000766856
0.000383617
0.00112881
-0.00755821
0.00207674
0.00209995
6.7669e-15
0.00209995
4.0306e-14
0.00209995
1.25785e-13
0.00209995
3.15753e-13
0.00209995
7.26027e-13
0.00209995
1.60755e-12
0.00209995
3.49405e-12
0.00209995
7.50938e-12
0.00209995
1.60083e-11
0.00209995
3.39133e-11
0.00209995
7.15129e-11
0.00209995
1.50348e-10
0.00209995
3.15663e-10
0.00209996
6.62863e-10
0.00209996
1.39403e-09
0.00209996
2.93917e-09
0.00209998
6.21806e-09
0.00210001
1.32105e-08
0.00210007
2.82181e-08
0.00210021
6.07358e-08
0.00210049
1.3231e-07
0.00210108
2.9422e-07
0.00210226
6.77963e-07
0.00210444
1.65748e-06
0.00210709
4.58049e-06
0.00211352
2.31186e-05
0.00209038
0.00110668
0.00197966
0.00193717
0.00186892
0.00253026
0.00150139
0.00322071
0.00059565
0.00344017
0.0101367
-0.00815881
0.00477942
0.00603776
0.000793394
0.0119155
-0.00559439
0.00492256
0.00182876
-0.00218877
0.00135244
0.00329384
-0.00066449
0.00236342
0.00102396
-0.0088118
0.000345406
0.00209995
1.31426e-14
0.00209995
7.93766e-14
0.00209995
2.49908e-13
0.00209995
6.22748e-13
0.00209995
1.40728e-12
0.00209995
3.05158e-12
0.00209995
6.50189e-12
0.00209995
1.37406e-11
0.00209995
2.89037e-11
0.00209995
6.05992e-11
0.00209995
1.26722e-10
0.00209995
2.64481e-10
0.00209995
5.51373e-10
0.00209996
1.14924e-09
0.00209996
2.39729e-09
0.00209997
5.00945e-09
0.00209998
1.04955e-08
0.00210001
2.20681e-08
0.00210009
4.6627e-08
0.00210024
9.9231e-08
0.00210056
2.13712e-07
0.00210124
4.70021e-07
0.00210255
1.07262e-06
0.00210488
2.60339e-06
0.00210724
7.13116e-06
0.00211254
3.30239e-05
0.00208623
0.00127299
0.00197599
0.00218238
0.00185505
0.00278775
0.00157781
0.00345478
0.000860886
0.003945
-0.00649941
1.61886e-05
-0.000631859
0.0024654
-6.6367e-05
0.00763699
0.00108142
0.00318062
-0.000765292
0.000116375
0.0019559
0.000543866
0.0040866
0.000283264
0.000975048
-0.00547214
0.000774888
0.00209995
2.33544e-14
0.00209995
1.38483e-13
0.00209995
4.27448e-13
0.00209995
1.04585e-12
0.00209995
2.31876e-12
0.00209995
4.92956e-12
0.00209995
1.03076e-11
0.00209995
2.14388e-11
0.00209995
4.45647e-11
0.00209995
9.27405e-11
0.00209995
1.93272e-10
0.00209995
4.03259e-10
0.00209995
8.4209e-10
0.00209996
1.75951e-09
0.00209996
3.67852e-09
0.00209997
7.69677e-09
0.00209998
1.61257e-08
0.00210002
3.38597e-08
0.0021001
7.13591e-08
0.00210027
1.51354e-07
0.00210064
3.2475e-07
0.00210136
7.11674e-07
0.00210275
1.61968e-06
0.00210506
3.92777e-06
0.00210676
1.07316e-05
0.00210981
4.65585e-05
0.00207336
0.00144279
0.00196231
0.00242561
0.0018484
0.00304721
0.00171772
0.0035694
0.00121298
0.00409584
-0.000976097
0.00172925
-0.000483399
0.00245457
0.000624026
0.0047947
0.00154341
0.00184644
0.000720565
0.00105582
0.000265161
0.00101213
-0.000266752
0.00127122
-0.00358382
-0.00224822
-0.00237014
0.00209995
3.59042e-14
0.00209995
2.1039e-13
0.00209995
6.42294e-13
0.00209995
1.56204e-12
0.00209995
3.44822e-12
0.00209995
7.29655e-12
0.00209995
1.51734e-11
0.00209995
3.13729e-11
0.00209995
6.48445e-11
0.00209995
1.34289e-10
0.00209995
2.78852e-10
0.00209995
5.80545e-10
0.00209995
1.21124e-09
0.00209996
2.53112e-09
0.00209996
5.29518e-09
0.00209997
1.1087e-08
0.00209999
2.32342e-08
0.00210003
4.87585e-08
0.00210012
1.026e-07
0.00210032
2.17067e-07
0.00210072
4.64215e-07
0.00210151
1.01362e-06
0.00210295
2.29922e-06
0.00210519
5.56403e-06
0.00210603
1.51575e-05
0.00210665
6.27049e-05
0.00205267
0.00160934
0.00192946
0.00266597
0.00180317
0.0033227
0.00169743
0.00378534
0.00114641
0.00411483
-8.96318e-05
0.00278124
-0.000468394
0.0016241
0.000954039
-8.97794e-05
0.000187584
0.00173007
0.00010741
0.000954446
0.000206542
0.000858757
0.00131831
0.000310883
-0.000187134
-0.00139161
-0.0023517
0.00209995
5.13995e-14
0.00209995
2.9803e-13
0.00209995
9.01968e-13
0.00209995
2.18899e-12
0.00209995
4.8352e-12
0.00209995
1.02398e-11
0.00209995
2.1295e-11
0.00209995
4.39949e-11
0.00209995
9.08085e-11
0.00209995
1.87767e-10
0.00209995
3.89352e-10
0.00209995
8.09765e-10
0.00209995
1.68845e-09
0.00209996
3.52722e-09
0.00209996
7.37669e-09
0.00209997
1.54346e-08
0.00209999
3.22987e-08
0.00210004
6.76097e-08
0.00210014
1.41725e-07
0.00210035
2.98306e-07
0.00210079
6.33968e-07
0.00210163
1.37472e-06
0.00210311
3.09715e-06
0.00210524
7.45217e-06
0.0021052
2.01808e-05
0.00210388
8.03625e-05
0.00203308
0.00176928
0.00189204
0.00289833
0.00173159
0.00360489
0.00162723
0.00409727
0.00106643
0.00428295
6.53615e-05
0.00352706
-0.000617364
0.00236918
-0.0010642
0.000557023
-0.000383598
0.00126705
-0.000177873
0.000772509
-0.000322133
0.000885
0.000402186
-0.00048935
-0.000109462
-0.00111034
-0.00284642
0.00209995
6.85382e-14
0.00209995
3.96112e-13
0.00209995
1.19813e-12
0.00209995
2.92236e-12
0.00209995
6.50349e-12
0.00209995
1.3878e-11
0.00209995
2.90469e-11
0.00209995
6.02808e-11
0.00209995
1.24708e-10
0.00209995
2.57879e-10
0.00209995
5.33725e-10
0.00209995
1.10622e-09
0.00209996
2.29627e-09
0.00209996
4.77281e-09
0.00209996
9.92972e-09
0.00209997
2.06703e-08
0.0021
4.30436e-08
0.00210004
8.96806e-08
0.00210014
1.87135e-07
0.00210035
3.921e-07
0.00210077
8.29456e-07
0.00210157
1.79026e-06
0.00210295
4.01537e-06
0.00210485
9.62453e-06
0.00210392
2.59396e-05
0.00210103
9.9994e-05
0.00202305
0.00193024
0.00186878
0.00312459
0.00166981
0.00387697
0.00152139
0.00448352
0.00112819
0.00475463
0.000108493
0.00439513
-0.000462297
0.00360686
0.000393594
7.19068e-05
-0.0010806
0.00212656
-0.000606195
0.000227103
-0.000171397
0.00065239
-0.000139638
-0.000352163
-0.000128833
-0.000956212
-0.00337641
0.00209995
8.74635e-14
0.00209995
5.06195e-13
0.00209995
1.53684e-12
0.00209995
3.77333e-12
0.00209995
8.46313e-12
0.00209995
1.82012e-11
0.00209995
3.83615e-11
0.00209995
8.00508e-11
0.00209995
1.66206e-10
0.00209995
3.44179e-10
0.00209995
7.11714e-10
0.00209995
1.47059e-09
0.00209996
3.03739e-09
0.00209996
6.27249e-09
0.00209996
1.29537e-08
0.00209997
2.67578e-08
0.0021
5.53045e-08
0.00210004
1.14447e-07
0.00210013
2.37444e-07
0.00210031
4.95249e-07
0.00210066
1.04419e-06
0.00210132
2.24887e-06
0.00210243
5.0385e-06
0.00210379
1.20749e-05
0.00210169
3.24955e-05
0.00209704
0.000121864
0.00201975
0.00209525
0.00186191
0.00334696
0.00163965
0.0041304
0.00145214
0.00486547
0.00112742
0.00529166
0.0002717
0.00536316
-0.00058836
0.00528037
-0.000301648
-0.000326074
-0.00145041
0.00231563
-0.000696466
-0.000145411
-9.93694e-05
0.000113329
-0.000511471
-5.06811e-05
-0.000170905
-0.00105889
-0.00299701
0.00209995
1.08849e-13
0.00209995
6.32613e-13
0.00209995
1.93128e-12
0.00209995
4.76678e-12
0.00209995
1.07407e-11
0.00209995
2.31882e-11
0.00209995
4.90185e-11
0.00209995
1.02502e-10
0.00209995
2.13059e-10
0.00209995
4.41268e-10
0.00209995
9.11748e-10
0.00209995
1.8807e-09
0.00209996
3.87463e-09
0.00209996
7.97556e-09
0.00209996
1.64079e-08
0.00209997
3.37494e-08
0.00209999
6.94417e-08
0.00210003
1.43046e-07
0.00210011
2.95457e-07
0.00210026
6.13696e-07
0.00210054
1.28922e-06
0.00210105
2.76858e-06
0.00210181
6.19105e-06
0.00210242
1.48251e-05
0.00209869
3.9827e-05
0.00209128
0.000145613
0.00201554
0.00225524
0.0018584
0.0035614
0.00164517
0.00436919
0.00141153
0.00496164
0.00119245
0.00587254
0.000656517
0.00617688
-0.000733323
0.0073705
-0.000752362
-0.00120025
6.24506e-05
0.0012136
-0.000119084
-0.000478868
-8.98842e-05
-0.000442452
7.50293e-05
-0.000279887
-0.000224088
-0.000761158
-0.00301995
0.00209995
1.32158e-13
0.00209995
7.73152e-13
0.00209995
2.37757e-12
0.00209995
5.89714e-12
0.00209995
1.3328e-11
0.00209995
2.88261e-11
0.00209995
6.09986e-11
0.00209995
1.27618e-10
0.00209995
2.65309e-10
0.00209995
5.49442e-10
0.00209995
1.13495e-09
0.00209995
2.34008e-09
0.00209995
4.81801e-09
0.00209996
9.909e-09
0.00209996
2.03629e-08
0.00209997
4.18252e-08
0.00209998
8.59087e-08
0.00210001
1.76603e-07
0.00210006
3.63916e-07
0.00210017
7.53974e-07
0.00210037
1.57978e-06
0.0021007
3.38412e-06
0.00210108
7.55137e-06
0.00210085
1.80534e-05
0.00209519
4.83521e-05
0.00208385
0.000172243
0.00200983
0.00240769
0.00185861
0.00376395
0.00166058
0.00458695
0.00142005
0.00514659
0.00132179
0.0061497
0.00134662
0.00655466
0.00217424
0.007249
-0.000631601
0.000350903
9.44924e-05
0.000134887
-0.000288425
-0.000114636
0.000237929
-0.000910352
0.000465351
-0.000443329
-0.000188483
-0.000367766
-0.00375324
0.00209995
1.59978e-13
0.00209995
9.41107e-13
0.00209995
2.91199e-12
0.00209995
7.25162e-12
0.00209995
1.64232e-11
0.00209995
3.55476e-11
0.00209995
7.52252e-11
0.00209995
1.57343e-10
0.00209995
3.2701e-10
0.00209995
6.77071e-10
0.00209995
1.39839e-09
0.00209995
2.88295e-09
0.00209995
5.93503e-09
0.00209995
1.22038e-08
0.00209995
2.50704e-08
0.00209996
5.14688e-08
0.00209996
1.05645e-07
0.00209997
2.16989e-07
0.00209999
4.46675e-07
0.00210003
9.24344e-07
0.0021001
1.93426e-06
0.00210017
4.13789e-06
0.00210004
9.2212e-06
0.00209875
2.20161e-05
0.0020907
5.87692e-05
0.00207365
0.000204028
0.00200166
0.00255594
0.00185819
0.00395826
0.00168089
0.00477971
0.00146788
0.00525965
0.00156629
0.00642236
0.0019162
0.0063543
0.00272622
0.00590162
-0.000665804
0.00310877
-0.000111721
-0.000749113
0.000192819
-0.000426809
0.00032233
-0.00102197
0.00103211
-0.000823923
0.000238276
0.000294037
-0.00343975
0.00209995
1.96974e-13
0.00209995
1.16151e-12
0.00209995
3.6062e-12
0.00209995
9.00731e-12
0.00209995
2.04333e-11
0.00209995
4.42399e-11
0.00209995
9.35533e-11
0.00209995
1.95429e-10
0.00209995
4.05555e-10
0.00209995
8.38438e-10
0.00209995
1.72931e-09
0.00209995
3.56105e-09
0.00209995
7.32436e-09
0.00209995
1.50509e-08
0.00209995
3.09072e-08
0.00209994
6.34425e-08
0.00209994
1.3023e-07
0.00209992
2.67537e-07
0.00209989
5.50871e-07
0.00209984
1.14022e-06
0.00209972
2.38616e-06
0.00209943
5.10366e-06
0.00209857
1.13671e-05
0.00209578
2.71098e-05
0.00208437
7.2096e-05
0.00205879
0.000243778
0.00198508
0.00270566
0.00184524
0.00414818
0.00168708
0.00494685
0.00154554
0.00530199
0.00183472
0.00658802
0.00184571
0.00612063
0.00176681
0.00588404
3.36397e-05
0.00426999
-8.48068e-05
-0.000716234
0.000261129
-0.000743624
0.000498169
-0.00123861
0.00106689
-0.00127357
0.0010947
0.000569816
-0.00245523
0.00209995
2.43693e-13
0.00209995
1.44029e-12
0.00209995
4.48829e-12
0.00209995
1.12544e-11
0.00209995
2.56006e-11
0.00209995
5.5495e-11
0.00209995
1.1735e-10
0.00209995
2.44926e-10
0.00209995
5.07618e-10
0.00209995
1.048e-09
0.00209995
2.15888e-09
0.00209995
4.44154e-09
0.00209995
9.13025e-09
0.00209995
1.87583e-08
0.00209994
3.85244e-08
0.00209993
7.91027e-08
0.00209991
1.62442e-07
0.00209987
3.33848e-07
0.00209978
6.87633e-07
0.0020996
1.42357e-06
0.00209924
2.97917e-06
0.00209844
6.37083e-06
0.00209653
1.41832e-05
0.0020915
3.37963e-05
0.00207508
8.95659e-05
0.00203708
0.000295251
0.00194514
0.00286965
0.00180132
0.00433948
0.00166115
0.00509112
0.0016183
0.00527433
0.00167873
0.00567524
0.00184367
0.00594107
0.00197111
0.00574126
0.00241256
0.00365525
0.000202582
0.00119404
0.00038486
-0.000834467
0.000647555
-0.00145787
0.00092302
-0.00145788
0.00131203
0.000406648
-0.00115324
0.00209995
2.96495e-13
0.00209995
1.7634e-12
0.00209995
5.53864e-12
0.00209995
1.39836e-11
0.00209995
3.19775e-11
0.00209995
6.95881e-11
0.00209995
1.47571e-10
0.00209995
3.08668e-10
0.00209995
6.40803e-10
0.00209995
1.32469e-09
0.00209995
2.73153e-09
0.00209995
5.62329e-09
0.00209995
1.15633e-08
0.00209994
2.37583e-08
0.00209994
4.8785e-08
0.00209992
1.0014e-07
0.00209988
2.05566e-07
0.0020998
4.22329e-07
0.00209964
8.69666e-07
0.00209932
1.80026e-06
0.00209863
3.76792e-06
0.00209717
8.05997e-06
0.00209385
1.7952e-05
0.00208576
4.27949e-05
0.00206216
0.000113212
0.002005
0.000365492
0.0018652
0.00307591
0.00170084
0.00454515
0.00160301
0.00518301
0.00164506
0.00514567
0.00170997
0.00548376
0.0018777
0.0058132
0.00195141
0.00561679
0.00159549
0.00384507
0.000905179
0.001763
0.000645434
-0.000426047
0.000705964
-0.00145349
0.000379828
-0.00126171
0.000600612
0.000240168
-0.000810869
0.00209995
3.62315e-13
0.00209995
2.17185e-12
0.00209995
6.88416e-12
0.00209995
1.75082e-11
0.00209995
4.02574e-11
0.00209995
8.79621e-11
0.00209995
1.87104e-10
0.00209995
3.92269e-10
0.00209995
8.15825e-10
0.00209995
1.68877e-09
0.00209995
3.48548e-09
0.00209995
7.17922e-09
0.00209995
1.47658e-08
0.00209994
3.03373e-08
0.00209993
6.22858e-08
0.0020999
1.27841e-07
0.00209984
2.62461e-07
0.00209972
5.3946e-07
0.00209948
1.11184e-06
0.00209898
2.30469e-06
0.00209794
4.83245e-06
0.00209573
1.03601e-05
0.00209081
2.31342e-05
0.00207899
5.52999e-05
0.0020456
0.000146475
0.00195955
0.00046644
0.00168323
0.00341524
0.00151525
0.00474178
0.0015076
0.00515457
0.00168298
0.0048787
0.00179239
0.00532443
0.0019289
0.00571803
0.00192223
0.00553095
0.00164225
0.00412997
0.00116319
0.0021514
0.000920983
-6.52818e-05
0.00100255
-0.00154287
0.0025873
-0.00511631
0.000683628
0.00128305
-0.000456202
0.00209995
4.57032e-13
0.00209995
2.74902e-12
0.00209995
8.74806e-12
0.00209995
2.23101e-11
0.00209995
5.13689e-11
0.00209995
1.12263e-10
0.00209995
2.38639e-10
0.00209995
4.99747e-10
0.00209995
1.03799e-09
0.00209995
2.14605e-09
0.00209995
4.42522e-09
0.00209995
9.11086e-09
0.00209995
1.87416e-08
0.00209994
3.85367e-08
0.00209992
7.92366e-08
0.00209988
1.62973e-07
0.00209981
3.35469e-07
0.00209965
6.9163e-07
0.00209934
1.43027e-06
0.00209871
2.97537e-06
0.00209739
6.26195e-06
0.00209458
1.34765e-05
0.0020882
3.02154e-05
0.00207251
7.25576e-05
0.00202709
0.000193093
0.00190313
0.000611448
0.00125192
0.00413984
0.00138327
0.00461155
0.00164126
0.00484607
0.00173086
0.00468961
0.0018641
0.00515683
0.00197298
0.00563223
0.00195531
0.00550263
0.0017526
0.00427152
0.00138491
0.00255324
0.000928382
0.000373328
0.000341268
-0.00142372
-0.000179612
-0.00500641
0.0007241
-0.000740213
-4.40915e-05
0.00209995
5.78323e-13
0.00209995
3.47639e-12
0.00209995
1.10542e-11
0.00209995
2.81454e-11
0.00209995
6.46416e-11
0.00209995
1.40836e-10
0.00209995
2.98434e-10
0.00209995
6.23232e-10
0.00209995
1.29186e-09
0.00209995
2.6682e-09
0.00209995
5.50228e-09
0.00209995
1.13411e-08
0.00209994
2.33767e-08
0.00209993
4.82006e-08
0.00209991
9.94331e-08
0.00209987
2.05257e-07
0.00209979
4.24129e-07
0.00209963
8.77867e-07
0.00209931
1.82264e-06
0.00209866
3.80675e-06
0.0020973
8.04315e-06
0.0020944
1.73754e-05
0.00208772
3.90978e-05
0.00207065
9.42268e-05
0.00201825
0.000251679
0.0018793
0.000784896
0.00095047
0.00523286
0.00159094
0.00393848
0.00201837
0.00435045
0.00178382
0.00481795
0.00190953
0.00500393
0.00202433
0.00552651
0.00204033
0.00543109
0.00186281
0.00442059
0.00165506
0.00278645
0.000960043
0.000984881
0.000209475
-0.000625557
-0.00029547
-0.00271452
0.000356656
-6.78699e-05
-0.000475796
0.00209995
6.8159e-13
0.00209995
4.11039e-12
0.00209995
1.31155e-11
0.00209995
3.34466e-11
0.00209995
7.68555e-11
0.00209995
1.67478e-10
0.00209995
3.55036e-10
0.00209995
7.4218e-10
0.00209995
1.54113e-09
0.00209995
3.19114e-09
0.00209995
6.60201e-09
0.00209995
1.36595e-08
0.00209995
2.82744e-08
0.00209994
5.85617e-08
0.00209992
1.21373e-07
0.00209989
2.51745e-07
0.00209983
5.22698e-07
0.00209971
1.08709e-06
0.00209947
2.2677e-06
0.002099
4.75781e-06
0.00209804
1.00946e-05
0.00209594
2.18836e-05
0.0020908
4.93662e-05
0.00207624
0.000119152
0.0020244
0.000319441
0.00191023
0.00095211
0.00115094
0.00630326
0.00165447
0.00330798
0.00190186
0.00399915
0.00185842
0.00470722
0.00195588
0.00488096
0.00208312
0.00539538
0.002087
0.00543413
0.00196435
0.0044954
0.00168285
0.0031169
0.00122983
0.00134695
0.000396304
0.000194985
-0.00312945
0.00144525
0.000331924
-0.00314122
0.000250173
0.00209995
7.27559e-13
0.00209995
4.42711e-12
0.00209995
1.42714e-11
0.00209995
3.66947e-11
0.00209995
8.49065e-11
0.00209995
1.86185e-10
0.00209995
3.97017e-10
0.00209995
8.34565e-10
0.00209995
1.74206e-09
0.00209995
3.62474e-09
0.00209995
7.53262e-09
0.00209995
1.56489e-08
0.00209995
3.25152e-08
0.00209995
6.75877e-08
0.00209995
1.40575e-07
0.00209995
2.92625e-07
0.00209994
6.09871e-07
0.00209995
1.27346e-06
0.00209996
2.66753e-06
0.00210004
5.61962e-06
0.00210024
1.19648e-05
0.00210063
2.59887e-05
0.00210083
5.85787e-05
0.00209766
0.000140802
0.00206839
0.000377131
0.00202536
0.00106744
0.00208425
0.00669381
0.00175925
0.00341677
0.00180337
0.00379496
0.00193123
0.00442426
0.00204215
0.00474684
0.00213178
0.0052555
0.00214933
0.00544218
0.00204616
0.00458987
0.00180785
0.00341448
0.00116127
0.00185121
0.000480877
0.000753545
0.00204097
0.00132231
-0.000750285
-0.000866654
0.000368646
0.00209995
7.35804e-13
0.00209995
4.49755e-12
0.00209995
1.45863e-11
0.00209995
3.77586e-11
0.00209995
8.7921e-11
0.00209995
1.93813e-10
0.00209995
4.14909e-10
0.00209995
8.74363e-10
0.00209995
1.82733e-09
0.00209995
3.80276e-09
0.00209996
7.8981e-09
0.00209996
1.63926e-08
0.00209996
3.40265e-08
0.00209997
7.06732e-08
0.0021
1.46941e-07
0.00210004
3.05952e-07
0.00210016
6.38269e-07
0.0021004
1.33502e-06
0.00210095
2.8026e-06
0.00210214
5.91504e-06
0.0021047
1.25909e-05
0.00211001
2.72087e-05
0.00212066
6.0529e-05
0.0021415
0.000142347
0.00217545
0.000376171
0.00232798
0.00097839
0.00435968
0.00515927
0.00244522
0.00499417
0.0019899
0.00409264
0.00208309
0.00419959
0.00211464
0.00470197
0.00218415
0.00522247
0.00220754
0.00544313
0.00211585
0.00478222
0.00185356
0.00360179
0.00143682
0.00220314
0.00111038
0.00092349
0.00119755
0.000414597
-0.000322596
0.000974405
0.000171526
0.00209995
7.14876e-13
0.00209995
4.32921e-12
0.00209995
1.39191e-11
0.00209995
3.58393e-11
0.00209995
8.30957e-11
0.00209995
1.82358e-10
0.00209995
3.88368e-10
0.00209995
8.13545e-10
0.00209995
1.68882e-09
0.00209996
3.48852e-09
0.00209996
7.18669e-09
0.00209996
1.47825e-08
0.00209997
3.03757e-08
0.0021
6.23657e-08
0.00210005
1.27939e-07
0.00210018
2.62212e-07
0.00210047
5.36861e-07
0.00210112
1.09818e-06
0.00210253
2.24576e-06
0.00210539
4.60004e-06
0.00211083
9.47958e-06
0.00212091
1.98296e-05
0.00214116
4.28243e-05
0.00218799
9.85305e-05
0.0023032
0.000260702
0.00255202
0.00072586
0.00471742
0.00316083
0.00301092
0.00653201
0.00232743
0.00457757
0.00220158
0.004326
0.00212459
0.00476138
0.002188
0.00519534
0.00224617
0.0054242
0.00216026
0.00485135
0.0019047
0.00375482
0.00148716
0.00259608
0.00100675
0.00156132
0.000894035
0.000774038
-0.00157236
0.00172736
-0.000251937
0.00209995
5.75178e-13
0.00209995
3.50535e-12
0.00209995
1.13324e-11
0.00209995
2.92572e-11
0.00209995
6.79333e-11
0.00209995
1.49139e-10
0.00209995
3.17354e-10
0.00209995
6.63366e-10
0.00209995
1.3723e-09
0.00209996
2.82122e-09
0.00209996
5.77703e-09
0.00209996
1.17974e-08
0.00209997
2.40419e-08
0.0021
4.89098e-08
0.00210005
9.93442e-08
0.00210016
2.01489e-07
0.00210041
4.08102e-07
0.00210092
8.25668e-07
0.00210201
1.66975e-06
0.00210428
3.38084e-06
0.00210885
6.87924e-06
0.0021179
1.41783e-05
0.00213599
3.00813e-05
0.00217439
6.78743e-05
0.00226686
0.000175845
0.00241658
0.000588512
0.00360318
0.00207859
0.00320483
0.00684794
0.00246805
0.00523991
0.00224339
0.00462663
0.00214476
0.00484207
0.00217735
0.0051919
0.0022482
0.00530568
0.00218251
0.0048727
0.00194618
0.00395632
0.00145925
0.00306409
0.000983653
0.0021954
0.000802876
0.00175552
-0.000255259
0.00434243
-0.000872835
0.00209995
4.71734e-13
0.00209995
2.84555e-12
0.00209995
9.09505e-12
0.00209995
2.32555e-11
0.00209995
5.35307e-11
0.00209995
1.16533e-10
0.00209995
2.45904e-10
0.00209995
5.0982e-10
0.00209995
1.04651e-09
0.00209996
2.13616e-09
0.00209996
4.34618e-09
0.00209996
8.82419e-09
0.00209997
1.78874e-08
0.00209999
3.62072e-08
0.00210003
7.3185e-08
0.0021001
1.47721e-07
0.00210027
2.97794e-07
0.00210061
5.99792e-07
0.0021013
1.208e-06
0.00210272
2.43723e-06
0.00210559
4.94432e-06
0.00211135
1.01612e-05
0.00212312
2.14636e-05
0.00214827
4.79463e-05
0.00221648
0.000118159
0.00233383
0.000444606
0.00301362
0.00148259
0.00325624
0.00662061
0.00263661
0.00580206
0.00228643
0.00496837
0.0021498
0.0049454
0.00216578
0.00520092
0.00222863
0.00526944
0.00219584
0.00492122
0.00198037
0.00417182
0.00160828
0.00338774
0.00126706
0.00286246
0.00012457
0.00292097
0.000884792
0.00282888
0.00174035
0.00209995
3.70523e-13
0.00209995
2.23005e-12
0.00209995
7.117e-12
0.00209995
1.82081e-11
0.00209995
4.19521e-11
0.00209995
9.13642e-11
0.00209995
1.92681e-10
0.00209995
3.98787e-10
0.00209995
8.16316e-10
0.00209995
1.66038e-09
0.00209996
3.36517e-09
0.00209996
6.80727e-09
0.00209997
1.37567e-08
0.00209998
2.77868e-08
0.0021
5.61099e-08
0.00210005
1.13279e-07
0.00210015
2.2866e-07
0.00210035
4.61581e-07
0.00210076
9.32377e-07
0.00210158
1.88759e-06
0.00210322
3.84359e-06
0.00210648
7.92949e-06
0.00211299
1.68067e-05
0.0021261
3.75686e-05
0.00216107
9.13067e-05
0.00221842
0.000335647
0.00269678
0.00109728
0.00321743
0.00617426
0.00275199
0.00620902
0.00232741
0.00529666
0.00213863
0.005056
0.00214668
0.00521727
0.00220867
0.00527068
0.00219934
0.00486255
0.00200348
0.00400765
0.0018035
0.00354916
0.0016361
0.00323341
0.0014185
0.00310153
0.00135664
0.00331851
0.00270956
0.00209995
2.6934e-13
0.00209995
1.65162e-12
0.00209995
5.37681e-12
0.00209995
1.3974e-11
0.00209995
3.26053e-11
0.00209995
7.17646e-11
0.00209995
1.52725e-10
0.00209995
3.18516e-10
0.00209995
6.56075e-10
0.00209995
1.34102e-09
0.00209996
2.7282e-09
0.00209996
5.53502e-09
0.00209996
1.12125e-08
0.00209997
2.26968e-08
0.00209999
4.59316e-08
0.00210002
9.29581e-08
0.00210009
1.88207e-07
0.00210021
3.81406e-07
0.00210046
7.74389e-07
0.00210093
1.57806e-06
0.00210189
3.23838e-06
0.00210386
6.73546e-06
0.00210793
1.43725e-05
0.00211598
3.21874e-05
0.00213548
7.76399e-05
0.002215
0.00024278
0.00245052
0.000898293
0.00307772
0.00566288
0.00287573
0.00643361
0.00236336
0.00574139
0.00212674
0.00521193
0.00211231
0.00522422
0.00217596
0.00528852
0.00217809
0.00488661
0.00201751
0.00399943
0.00194872
0.00394815
0.00180959
0.0034961
0.00151186
0.0032681
0.00158415
0.00332835
0.00147667
0.00209995
2.24684e-13
0.00209995
1.39352e-12
0.00209995
4.58258e-12
0.00209995
1.19722e-11
0.00209995
2.80287e-11
0.00209995
6.18903e-11
0.00209995
1.32201e-10
0.00209995
2.76895e-10
0.00209995
5.73016e-10
0.00209995
1.17687e-09
0.00209995
2.40538e-09
0.00209996
4.90112e-09
0.00209996
9.96719e-09
0.00209997
2.02477e-08
0.00209998
4.11121e-08
0.0021
8.34772e-08
0.00210005
1.69579e-07
0.00210014
3.44852e-07
0.00210031
7.02672e-07
0.00210065
1.43708e-06
0.00210132
2.95984e-06
0.00210266
6.17946e-06
0.00210543
1.32392e-05
0.0021111
2.97499e-05
0.00212158
7.25686e-05
0.00216298
0.000206208
0.00231666
0.000768938
0.00284709
0.00515854
0.00287187
0.00643061
0.00236952
0.00618136
0.00211077
0.00540151
0.00207455
0.00522398
0.00214025
0.00517358
0.00215962
0.00502331
0.0021363
0.00448545
0.00197576
0.00420449
0.001786
0.00377082
0.00138288
0.00331728
0.000983029
0.00250736
0.00202392
0.00209995
2.42139e-13
0.00209995
1.47062e-12
0.00209995
4.72517e-12
0.00209995
1.20983e-11
0.00209995
2.78575e-11
0.00209995
6.07058e-11
0.00209995
1.2837e-10
0.00209995
2.66928e-10
0.00209995
5.49752e-10
0.00209995
1.12597e-09
0.00209995
2.2986e-09
0.00209996
4.68315e-09
0.00209996
9.52997e-09
0.00209996
1.93798e-08
0.00209997
3.93984e-08
0.00209999
8.01003e-08
0.00210003
1.62925e-07
0.00210009
3.31724e-07
0.00210023
6.76709e-07
0.0021005
1.38549e-06
0.00210102
2.85639e-06
0.00210205
5.96814e-06
0.00210409
1.27914e-05
0.00210816
2.87227e-05
0.00211637
6.98129e-05
0.00213354
0.000194024
0.0022491
0.000692983
0.00264447
0.0049334
0.00262727
0.00654011
0.00232582
0.00644067
0.00208545
0.00561373
0.00204498
0.00522409
0.00211089
0.0050933
0.00214707
0.00491097
0.00216594
0.00467408
0.0020304
0.00446882
0.00171928
0.00400728
0.00126799
0.00358629
0.000944853
0.00260983
0.00287851
0.00209995
2.71789e-13
0.00209995
1.62537e-12
0.00209995
5.13482e-12
0.00209995
1.29846e-11
0.00209995
2.96218e-11
0.00209995
6.40783e-11
0.00209995
1.34675e-10
0.00209995
2.78571e-10
0.00209995
5.71154e-10
0.00209995
1.16543e-09
0.00209995
2.37205e-09
0.00209995
4.82207e-09
0.00209996
9.79772e-09
0.00209996
1.99056e-08
0.00209997
4.04479e-08
0.00209998
8.22199e-08
0.00210001
1.67238e-07
0.00210006
3.40537e-07
0.00210017
6.94749e-07
0.00210039
1.42242e-06
0.00210081
2.93191e-06
0.00210165