/*--------------------------------*- C++ -*----------------------------------*\
  =========                 |
  \\      /  F ield         | OpenFOAM: The Open Source CFD Toolbox
   \\    /   O peration     | Website:  https://openfoam.org
    \\  /    A nd           | Version:  6.0
     \\/     M anipulation  |
\*---------------------------------------------------------------------------*/
FoamFile
{
    version     2.0;
    format      ascii;
    class       volScalarField;
    location    "1.5";
    object      T;
}
// * * * * * * * * * * * * * * * * * * * * * * * * * * * * * * * * * * * * * //

dimensions      [0 0 0 1 0 0 0];

internalField   nonuniform List<scalar> 
4800
(
1
1
1
1
1
1
1
1
1.00001
1.00001
1.00002
1.00004
1.00009
1.00019
1.00039
1.0008
1.00164
1.00336
1.00692
1.01425
1.02946
1.06142
1.13033
1.28686
1.70329
2.99323
2.73639
2.75277
2.78881
2.76217
2.3769
1.9473
1.47074
1.80693
2.02538
1.68695
1.29917
1.00909
2.88682
0.2083
1
1
1
1
1
1
1
1
1.00001
1.00001
1.00002
1.00004
1.00009
1.00019
1.00039
1.0008
1.00164
1.00336
1.00692
1.01425
1.02946
1.06143
1.13033
1.28686
1.70329
2.99255
2.73622
2.75315
2.79224
2.77304
2.49461
2.04498
1.61525
2.02627
2.1125
1.75635
1.46778
1.07792
2.3212
0.332847
1
1
1
1
1
1
1
1
1.00001
1.00001
1.00002
1.00004
1.00009
1.00019
1.00039
1.0008
1.00164
1.00336
1.00692
1.01425
1.02946
1.06142
1.13032
1.28683
1.70324
2.99095
2.73629
2.75226
2.7896
2.76414
2.60285
2.28849
1.74364
2.08009
2.21137
1.92576
1.58044
1.42477
2.25439
0.556534
1
1
1
1
1
1
1
1
1.00001
1.00001
1.00002
1.00004
1.00009
1.00019
1.00039
1.0008
1.00164
1.00336
1.00692
1.01424
1.02946
1.06141
1.13029
1.28676
1.70306
2.98829
2.73644
2.75064
2.78264
2.74626
2.61983
2.41656
1.97098
1.98804
2.23259
2.17013
1.88493
1.5926
2.2351
0.851832
1
1
1
1
1
1
1
1
1.00001
1.00001
1.00002
1.00004
1.00009
1.00019
1.00039
1.0008
1.00164
1.00336
1.00691
1.01424
1.02944
1.06138
1.13023
1.28663
1.70267
2.98447
2.73699
2.74921
2.77423
2.7354
2.62906
2.43731
2.02311
1.83519
1.88657
2.21256
2.05379
1.76147
2.24739
1.32814
1
1
1
1
1
1
1
1
1.00001
1.00001
1.00002
1.00004
1.00009
1.00019
1.00039
1.0008
1.00164
1.00336
1.00691
1.01423
1.02942
1.06134
1.13014
1.28641
1.70199
2.97952
2.73787
2.74835
2.76837
2.7288
2.65376
2.51016
2.33408
1.98674
1.65243
2.04705
2.11055
1.97599
2.28551
1.65429
1
1
1
1
1
1
1
1
1.00001
1.00001
1.00002
1.00004
1.00009
1.00019
1.00039
1.0008
1.00164
1.00336
1.0069
1.01422
1.0294
1.06129
1.13002
1.28613
1.70102
2.97359
2.73885
2.74823
2.7656
2.72781
2.5945
2.4604
2.56622
2.36226
2.37768
2.12202
2.17732
2.10637
2.29583
2.04397
1
1
1
1
1
1
1
1
1.00001
1.00001
1.00002
1.00004
1.00009
1.00019
1.00039
1.0008
1.00163
1.00336
1.0069
1.01421
1.02937
1.06122
1.12987
1.28579
1.69979
2.96705
2.74032
2.74836
2.7642
2.73226
2.57921
2.5805
2.4052
2.6256
2.38447
2.35586
2.31931
2.23336
2.28372
2.07161
1
1
1
1
1
1
1
1
1.00001
1.00001
1.00002
1.00004
1.00009
1.00019
1.00039
1.0008
1.00163
1.00335
1.00689
1.01419
1.02933
1.06113
1.12967
1.28533
1.69816
2.95976
2.74225
2.74875
2.76394
2.73058
2.62546
2.57233
2.44394
2.62985
2.39512
2.41748
2.39035
2.2912
2.2413
2.2688
1
1
1
1
1
1
1
1
1.00001
1.00001
1.00002
1.00004
1.00009
1.00019
1.00039
1.00079
1.00163
1.00335
1.00688
1.01416
1.02927
1.061
1.12938
1.28468
1.69589
2.95117
2.74414
2.74866
2.7637
2.72667
2.67727
2.54667
2.44834
2.61134
2.39308
2.35182
2.32669
2.25743
2.25569
2.39494
1
1
1
1
1
1
1
1
1.00001
1.00001
1.00002
1.00004
1.00009
1.00019
1.00039
1.00079
1.00162
1.00334
1.00686
1.01412
1.02918
1.06082
1.12899
1.28379
1.69286
2.94113
2.74534
2.74751
2.76275
2.72453
2.67888
2.55777
2.42144
2.52443
2.38229
2.37125
2.32277
2.26784
2.31662
2.37934
1
1
1
1
1
1
1
1
1.00001
1.00001
1.00002
1.00004
1.00009
1.00019
1.00038
1.00079
1.00162
1.00332
1.00683
1.01407
1.02908
1.0606
1.1285
1.28269
1.6891
2.93001
2.74554
2.74593
2.75798
2.72464
2.67083
2.54887
2.41032
2.56292
2.46654
2.39428
2.34024
2.34145
2.3669
2.41744
1
1
1
1
1
1
1
1
1.00001
1.00001
1.00002
1.00004
1.00009
1.00019
1.00038
1.00079
1.00161
1.00331
1.0068
1.014
1.02894
1.06032
1.1279
1.28135
1.68461
2.9179
2.74536
2.74363
2.74936
2.72544
2.67266
2.5431
2.41994
2.59046
2.52528
2.52232
2.39252
2.40703
2.38256
2.39953
1
1
1
1
1
1
1
1
1.00001
1.00001
1.00002
1.00004
1.00009
1.00019
1.00038
1.00078
1.0016
1.00329
1.00676
1.01392
1.02878
1.05998
1.12716
1.27972
1.67927
2.90424
2.74599
2.73904
2.73939
2.7196
2.67851
2.54215
2.42963
2.58832
2.57593
2.59514
2.51402
2.44707
2.39475
2.39378
1
1
1
1
1
1
1
1
1.00001
1.00001
1.00002
1.00004
1.00009
1.00018
1.00038
1.00078
1.00159
1.00327
1.00672
1.01383
1.02859
1.05958
1.12629
1.27777
1.67303
2.88882
2.74707
2.73293
2.72865
2.70695
2.68196
2.54013
2.40307
2.57565
2.545
2.56286
2.56431
2.50264
2.42276
2.41268
1
1
1
1
1
1
1
1
1.00001
1.00001
1.00002
1.00004
1.00009
1.00018
1.00037
1.00077
1.00158
1.00324
1.00666
1.01372
1.02836
1.0591
1.12526
1.27546
1.66583
2.8716
2.74884
2.72476
2.71698
2.69685
2.67578
2.53788
2.38958
2.46451
2.51843
2.56366
2.66315
2.63053
2.48924
2.44593
1
1
1
1
1
1
1
1
1
1.00001
1.00002
1.00004
1.00009
1.00018
1.00037
1.00076
1.00156
1.00321
1.0066
1.01359
1.02809
1.05852
1.12402
1.27268
1.65743
2.85272
2.75086
2.71425
2.70471
2.68592
2.68399
2.52531
2.38905
2.47532
2.54948
2.56914
2.64677
2.6581
2.5813
2.46212
1
1
1
1
1
1
1
1
1
1.00001
1.00002
1.00004
1.00009
1.00018
1.00037
1.00075
1.00154
1.00317
1.00652
1.01342
1.02774
1.0578
1.12248
1.26926
1.64747
2.83227
2.75108
2.70371
2.69447
2.67449
2.68212
2.52152
2.39903
2.46015
2.54691
2.56453
2.61408
2.56071
2.61161
2.47248
1
1
1
1
1
1
1
1
1
1.00001
1.00002
1.00004
1.00009
1.00018
1.00036
1.00074
1.00152
1.00312
1.00641
1.01321
1.02731
1.0569
1.12055
1.26498
1.63542
2.80993
2.74955
2.69134
2.68274
2.66708
2.66403
2.52799
2.42008
2.48758
2.57783
2.56
2.58613
2.45356
2.56063
2.43581
1
1
1
1
1
1
1
1
1
1.00001
1.00002
1.00004
1.00008
1.00017
1.00035
1.00072
1.00149
1.00305
1.00628
1.01294
1.02675
1.05574
1.11808
1.2595
1.62032
2.7851
2.74303
2.68081
2.67914
2.66938
2.65754
2.53257
2.47458
2.54134
2.58253
2.558
2.55462
2.43449
2.47783
2.41636
1
1
1
1
1
1
1
1
1
1.00001
1.00002
1.00004
1.00008
1.00017
1.00034
1.0007
1.00145
1.00297
1.00611
1.01259
1.02602
1.05421
1.11479
1.25218
1.60047
2.75474
2.7277
2.66945
2.67876
2.67336
2.64585
2.53277
2.51755
2.56078
2.5783
2.55431
2.54279
2.54164
2.56081
2.41534
1
1
1
1
1
1
1
1
1
1.00001
1.00002
1.00004
1.00008
1.00016
1.00033
1.00068
1.00139
1.00286
1.00589
1.01212
1.02505
1.05216
1.11034
1.24216
1.573
2.71003
2.69459
2.67714
2.68152
2.68192
2.64655
2.53707
2.53732
2.55819
2.57489
2.56429
2.53869
2.55601
2.47027
2.44158
1
1
1
1
1
1
1
1
1
1.00001
1.00002
1.00004
1.00007
1.00015
1.00032
1.00065
1.00133
1.00272
1.00559
1.01151
1.02377
1.04944
1.1044
1.22865
1.53514
2.64807
2.63952
2.68769
2.69009
2.69692
2.6531
2.5506
2.54948
2.55558
2.57217
2.56838
2.55313
2.64258
2.545
2.51421
1
1
1
1
1
1
1
1
1
1.00001
1.00002
1.00003
1.00007
1.00014
1.0003
1.00061
1.00124
1.00255
1.00522
1.01073
1.02212
1.04591
1.09664
1.21075
1.48544
2.54428
2.56327
2.70206
2.71228
2.7163
2.67607
2.58494
2.5589
2.55448
2.57655
2.56176
2.58205
2.58511
2.44404
2.45618
1
1
1
1
1
1
1
1
1
1.00001
1.00002
1.00003
1.00007
1.00013
1.00027
1.00056
1.00114
1.00234
1.00478
1.0098
1.02013
1.04162
1.08715
1.18871
1.42486
2.3824
2.48425
2.70323
2.74572
2.72823
2.69123
2.60636
2.56474
2.55924
2.58432
2.56391
2.56798
2.54608
2.47893
2.35514
1
1
1
1
1
1
1
1
1
1.00001
1.00001
1.00003
1.00006
1.00012
1.00025
1.00051
1.00104
1.00212
1.00432
1.00881
1.01806
1.03724
1.07766
1.16695
1.36472
2.23867
2.44825
2.62246
2.73016
2.72241
2.70644
2.6391
2.57456
2.56899
2.5907
2.5747
2.56146
2.50749
2.48608
2.58434
1
1
1
1
1
1
1
1
1
1.00001
1.00001
1.00003
1.00006
1.00011
1.00023
1.00047
1.00097
1.00198
1.00404
1.00826
1.01693
1.03487
1.07248
1.15475
1.33322
2.10123
2.49094
2.60128
2.71797
2.71903
2.70809
2.67418
2.60165
2.59133
2.59894
2.58314
2.56759
2.53519
2.6084
2.61999
1
1
1
1
1
1
1
1
1
1.00001
1.00001
1.00003
1.00005
1.00011
1.00022
1.00045
1.00092
1.00188
1.00384
1.00787
1.01616
1.03333
1.06932
1.14762
1.31831
1.94835
2.6323
2.60644
2.6741
2.70552
2.70223
2.68924
2.64426
2.61355
2.60647
2.57967
2.58401
2.56219
2.80207
2.69206
1
1
1
1
1
1
1
1
1
1.00001
1.00001
1.00002
1.00005
1.0001
1.00021
1.00043
1.00088
1.0018
1.00369
1.00757
1.01556
1.03212
1.06687
1.14227
1.31025
1.83031
2.72454
2.61818
2.6515
2.69475
2.69536
2.69371
2.67196
2.63076
2.60577
2.56829
2.5959
2.60103
2.78226
2.73526
1
1
1
1
1
1
1
1
1
1.00001
1.00001
1.00002
1.00005
1.0001
1.0002
1.00041
1.00085
1.00174
1.00356
1.00732
1.01505
1.03109
1.06477
1.13754
1.30291
1.74805
2.75715
2.62971
2.62986
2.68214
2.6921
2.70021
2.69158
2.6491
2.59496
2.55852
2.59796
2.62212
2.81783
2.64341
1
1
1
1
1
1
1
1
1
1.00001
1.00001
1.00002
1.00005
1.0001
1.0002
1.0004
1.00082
1.00168
1.00345
1.00709
1.01458
1.03013
1.06277
1.13317
1.29364
1.72186
2.74864
2.63501
2.60894
2.6638
2.68828
2.70841
2.71613
2.68348
2.60075
2.56012
2.59331
2.63219
2.79182
2.55868
1
1
1
1
1
1
1
1
1
1.00001
1.00001
1.00002
1.00005
1.00009
1.00019
1.00039
1.0008
1.00163
1.00335
1.00688
1.01415
1.02923
1.0609
1.12914
1.28414
1.6965
2.74094
2.63816
2.57484
2.62215
2.67987
2.71272
2.73561
2.72034
2.63128
2.56084
2.59219
2.63929
2.77093
2.53065
1
1
1
1
1
1
1
1
1
1.00001
1.00001
1.00002
1.00004
1.00009
1.00018
1.00038
1.00077
1.00158
1.00325
1.00668
1.01374
1.02839
1.05911
1.12525
1.27526
1.66835
2.72444
2.65338
2.55817
2.59335
2.6724
2.71631
2.75531
2.74199
2.6541
2.56987
2.59344
2.65747
2.7674
2.51857
1
1
1
1
1
1
1
1
1
1
1.00001
1.00002
1.00004
1.00009
1.00018
1.00037
1.00075
1.00154
1.00315
1.00648
1.01333
1.02753
1.05732
1.12137
1.26645
1.64354
2.69936
2.6577
2.54941
2.58447
2.6752
2.72635
2.77055
2.75873
2.66996
2.58981
2.61705
2.68469
2.7736
2.50882
1
1
1
1
1
1
1
1
1
1
1.00001
1.00002
1.00004
1.00008
1.00017
1.00035
1.00072
1.00149
1.00305
1.00626
1.01288
1.02661
1.0554
1.11726
1.2573
1.61772
2.67511
2.65114
2.54862
2.58776
2.68596
2.73196
2.77699
2.76383
2.67566
2.61151
2.64964
2.7056
2.76749
2.49887
1
1
1
1
1
1
1
1
1
1
1.00001
1.00002
1.00004
1.00008
1.00016
1.00034
1.00069
1.00142
1.00292
1.00601
1.01237
1.02555
1.05318
1.11251
1.24672
1.58822
2.64554
2.63285
2.53903
2.58094
2.68247
2.72772
2.76645
2.75663
2.67366
2.63108
2.67865
2.71745
2.75082
2.48828
1
1
1
1
1
1
1
1
1
1
1.00001
1.00002
1.00004
1.00008
1.00016
1.00032
1.00066
1.00135
1.00278
1.0057
1.01174
1.02425
1.05047
1.10665
1.23357
1.55166
2.59835
2.60163
2.53171
2.55495
2.65057
2.70687
2.74305
2.73703
2.66895
2.63981
2.69567
2.71843
2.73376
2.4715
1
1
1
1
1
1
1
1
1
1
1.00001
1.00002
1.00003
1.00007
1.00015
1.0003
1.00062
1.00126
1.00259
1.00533
1.01097
1.02265
1.04711
1.0994
1.21716
1.50614
2.52852
2.55505
2.53357
2.54225
2.61947
2.69146
2.72796
2.71611
2.65607
2.63927
2.71106
2.72465
2.72101
2.43366
1
1
1
1
1
1
1
1
1
1
1.00001
1.00002
1.00003
1.00007
1.00013
1.00028
1.00057
1.00116
1.00238
1.0049
1.01007
1.0208
1.04321
1.09098
1.19792
1.45583
2.38996
2.53787
2.56427
2.54848
2.61155
2.6899
2.7177
2.70585
2.65236
2.64698
2.70784
2.72988
2.68929
2.40488
1
1
1
1
1
1
1
1
1
1
1.00001
1.00001
1.00003
1.00006
1.00012
1.00025
1.00051
1.00105
1.00215
1.00442
1.00909
1.01874
1.03883
1.08137
1.17566
1.39156
2.26858
2.47755
2.56615
2.59726
2.6463
2.70113
2.70629
2.69731
2.65956
2.65079
2.70103
2.69692
2.62289
2.35897
1
1
1
1
1
1
1
1
1
1
1.00001
1.00001
1.00002
1.00004
1.00009
1.00019
1.00039
1.00079
1.00163
1.00334
1.00687
1.01414
1.02923
1.06084
1.12958
1.27791
1.85436
2.54613
2.56186
2.58274
2.65077
2.68655
2.6931
2.67216
2.63716
2.63736
2.69036
2.68238
2.62025
2.43669
1
1
1
1
1
1
1
1
1
1
1
1.00001
1.00001
1.00003
1.00005
1.00011
1.00023
1.00047
1.00097
1.00198
1.00407
1.00836
1.01723
1.03562
1.07504
1.15447
1.45704
2.35166
2.42976
2.30428
2.47162
2.56748
2.60312
2.6059
2.60612
2.61217
2.64706
2.66013
2.62716
2.48587
1
1
1
1
1
1
1
1
1
1
1
1
1.00001
1.00001
1.00003
1.00006
1.00013
1.00026
1.00054
1.0011
1.00226
1.00463
1.00951
1.01959
1.04066
1.08483
1.18734
1.75841
1.83364
2.25221
2.39013
2.42676
2.47508
2.51393
2.55168
2.56594
2.57558
2.57119
2.54051
2.48934
1
1
1
1
1
1
1
1
1
1
1
1
1
1.00001
1.00002
1.00004
1.00007
1.00015
1.00031
1.00063
1.00129
1.00264
1.0054
1.0111
1.02252
1.05026
1.09319
1.3135
1.50907
2.2705
2.50979
2.46347
2.47729
2.48015
2.47642
2.47282
2.47851
2.48479
2.45216
2.45112
1
1
1
1
1
1
1
1
1
1
1
1
1
1.00001
1.00001
1.00003
1.00006
1.00012
1.00024
1.0005
1.00103
1.0021
1.0043
1.00882
1.01814
1.03755
1.07816
1.17285
1.36829
2.23956
2.48815
2.45829
2.47522
2.47348
2.45219
2.43912
2.45462
2.44922
2.41838
2.41995
1
1
1
1
1
1
1
1
1
1
1
1
1
1
1.00001
1.00002
1.00004
1.00008
1.00016
1.00033
1.00067
1.00137
1.00282
1.00579
1.01194
1.02467
1.05128
1.10847
1.23283
1.67035
2.12004
2.39935
2.45873
2.4581
2.44802
2.44037
2.44658
2.43443
2.40621
2.41696
1
1
1
1
1
1
1
1
1
1
1
1
1
1
1.00001
1.00001
1.00002
1.00005
1.00009
1.00019
1.00039
1.0008
1.00164
1.00338
1.00697
1.01438
1.02977
1.06223
1.13103
1.30882
1.80059
2.24786
2.39104
2.41048
2.41253
2.42328
2.40982
2.41725
2.40516
2.39854
1
1
1
1
1
1
1
1
1
1
1
1
1
1
1
1.00001
1.00002
1.00004
1.00008
1.00017
1.00035
1.00071
1.00145
1.00297
1.00606
1.01241
1.02554
1.05294
1.11273
1.23561
1.79589
2.20222
2.30205
2.33656
2.38914
2.41223
2.39984
2.40643
2.38515
2.33872
1
1
1
1
1
1
1
1
1
1
1
1
1
1
1
1.00001
1.00002
1.00003
1.00007
1.00014
1.00029
1.00059
1.00122
1.00251
1.00517
1.01062
1.02185
1.04519
1.0948
1.20464
1.49516
2.26183
2.32397
2.32483
2.36289
2.37976
2.39256
2.41093
2.36753
2.27852
1
1
1
1
1
1
1
1
1
1
1
1
1
1
1
1.00001
1.00001
1.00003
1.00005
1.00011
1.00022
1.00045
1.00092
1.00189
1.00386
1.00793
1.01634
1.03385
1.07099
1.15128
1.35285
2.03897
2.27673
2.30676
2.37474
2.41197
2.41667
2.42205
2.37612
2.2388
1
1
1
1
1
1
1
1
1
1
1
1
1
1
1
1
1.00001
1.00001
1.00003
1.00006
1.00013
1.00026
1.00054
1.00113
1.00233
1.00483
1.01001
1.0208
1.04349
1.09269
1.19703
1.59879
2.0195
2.32918
2.33576
2.35335
2.36901
2.37724
2.29907
2.16159
1
1
1
1
1
1
1
1
1
1
1
1
1
1
1
1
1
1.00001
1.00002
1.00004
1.00007
1.00015
1.0003
1.0006
1.00121
1.00243
1.00492
1.00996
1.02028
1.04176
1.08577
1.20472
1.4482
1.90449
2.11709
2.20337
2.24502
2.25848
2.21071
2.12382
1
1
1
1
1
1
1
1
1
1
1
1
1
1
1
1
1
1.00001
1.00001
1.00002
1.00005
1.0001
1.00021
1.00043
1.0009
1.00184
1.00375
1.00758
1.01523
1.03016
1.06096
1.12609
1.27606
1.70116
1.81567
2.1155
2.20484
2.21869
2.18385
2.10001
1
1
1
1
1
1
1
1
1
1
1
1
1
1
1
1
1
1
1.00001
1.00001
1.00003
1.00006
1.00012
1.00024
1.0005
1.00104
1.00215
1.00439
1.00894
1.01816
1.0371
1.07668
1.16491
1.37012
1.87424
2.12216
2.17455
2.16282
2.12898
2.01612
1
1
1
1
1
1
1
1
1
1
1
1
1
1
1
1
1
1
1
1.00001
1.00002
1.00004
1.00008
1.00016
1.00031
1.00062
1.00123
1.0025
1.00517
1.01084
1.02265
1.04721
1.0992
1.2132
1.5453
1.99965
2.04809
2.05638
2.06744
2.00606
1
1
1
1
1
1
1
1
1
1
1
1
1
1
1
1
1
1
1
1.00001
1.00001
1.00003
1.00005
1.00011
1.00023
1.00047
1.00096
1.00195
1.00394
1.00795
1.01613
1.03296
1.06819
1.14531
1.32439
1.76232
1.97974
2.01506
2.01484
1.96041
1
1
1
1
1
1
1
1
1
1
1
1
1
1
1
1
1
1
1
1
1.00001
1.00002
1.00003
1.00007
1.00013
1.00027
1.00051
1.00102
1.0019
1.00363
1.00706
1.01377
1.02751
1.05725
1.11174
1.28839
1.55127
1.8537
1.84921
1.82503
1
1
1
1
1
1
1
1
1
1
1
1
1
1
1
1
1
1
1
1
1.00001
1.00001
1.00003
1.00006
1.00012
1.00022
1.00046
1.00083
1.00162
1.00328
1.00514
1.00922
1.01646
1.03254
1.06065
1.12521
1.34721
1.41463
1.53932
1.73138
1
1
1
1
1
1
1
1
1
1
1
1
1
1
1
1
1
1
1
1
1.00001
1.00001
1.00002
1.00005
1.00009
1.00018
1.00036
1.00066
1.00128
1.00236
1.00413
1.00719
1.01302
1.02466
1.04899
1.10244
1.2758
1.36249
1.35491
1.50619
1
1
1
1
1
1
1
1
1
1
1
1
1
1
1
1
1
1
1
1
1
1.00001
1.00001
1.00002
1.00005
1.00009
1.00018
1.00035
1.0007
1.00138
1.0028
1.00502
1.01041
1.0171
1.02924
1.05141
1.09444
1.18386
1.27254
1.50853
1
1
1
1
1
1
1
1
1
1
1
1
1
1
1
1
1
1
1
1
1
1
1
1
1.00001
1.00001
1.00003
1.00006
1.00013
1.00027
1.00057
1.00118
1.00237
1.00441
1.00985
1.00952
1.00924
1.00876
1.00316
0.986907
1
1
1
1
1
1
1
1
1
1
1
1
1
1
1
1
1
1
1
1
1
1
1
1
1
1
1
1.00001
1.00002
1.00003
1.00006
1.00012
1.00025
1.00047
1.00093
1.00158
1.00313
1.00531
1.01103
1.01515
1
1
1
1
1
1
1
1
1
1
1
1
1
1
1
1
1
1
1
1
1
1
1
1
1
1
1
1
1.00001
1.00001
1.00002
1.00004
1.00008
1.00016
1.00034
1.0007
1.00146
1.00297
1.00646
1.01229
1
1
1
1
1
1
1
1
1
1
1
1
1
1
1
1
1
1
1
1
1
1
1
1
1
1
1
1
1
1.00001
1.00002
1.00004
1.00007
1.00014
1.00029
1.00055
1.00118
1.00227
1.00494
1.00935
1
1
1
1
1
1
1
1
1
1
1
1
1
1
1
1
1
1
1
1
1
1
1
1
1
1
1
1
1.00001
1.00001
1.00002
1.00004
1.00008
1.00016
1.00032
1.00064
1.00133
1.00262
1.00541
1.01003
1
1
1
1
1
1
1
1
1
1
1
1
1
1
1
1
1
1
1
1
1
1
1
1
1
1
1
1
1.00001
1.00002
1.00003
1.00006
1.00013
1.00025
1.0005
1.00099
1.00195
1.00389
1.00795
1.01492
1
1
1
1
1
1
1
1
1
1
1
1
1
1
1
1
1
1
1
1
1
1
1
1
1
1
1
1
1.00001
1.00001
1.00003
1.00006
1.00012
1.00025
1.0005
1.00101
1.00202
1.00399
1.00793
1.01497
1
1
1
1
1
1
1
1
1
1
1
1
1
1
1
1
1
1
1
1
1
1
1
1
1
1
1
1
1
1.00001
1.00002
1.00004
1.00008
1.00018
1.00038
1.00084
1.00181
1.00387
1.00816
1.0168
1
1
1
1
1
1
1
1
1
1
1
1
1
1
1
1
1
1
1
1
1
1
1
1
1
1
1
1
1
1
1.00001
1.00002
1.00005
1.00011
1.00024
1.00052
1.00109
1.00228
1.00488
1.01026
1
1
1
1
1
1
1
1
1
1
1
1
1
1
1
1
1
1
1
1
1
1
1
1
1
1
1
1
1
1
1.00001
1.00002
1.00004
1.00008
1.00016
1.00033
1.00071
1.00148
1.00324
1.00635
1
1
1
1
1
1
1
1
1
1
1
1
1
1
1
1
1
1
1
1
1
1
1
1
1
1
1
1
1
1
1.00001
1.00002
1.00004
1.00008
1.00016
1.00032
1.00064
1.00129
1.0027
1.0051
1
1
1
1
1
1
1
1
1
1
1
1
1
1
1
1
1
1
1
1
1
1
1
1
1
1
1
1
1
1
1.00001
1.00002
1.00003
1.00007
1.00014
1.0003
1.00061
1.00125
1.00268
1.00518
1
1
1
1
1
1
1
1
1
1
1
1
1
1
1
1
1
1
1
1
1
1
1
1
1
1
1
1
1
1
1.00001
1.00001
1.00003
1.00006
1.00012
1.00024
1.00049
1.001
1.00211
1.00412
1
1
1
1
1
1
1
1
1
1
1
1
1
1
1
1
1
1
1
1
1
1
1
1
1
1
1
1
1
1
1
1.00001
1.00002
1.00004
1.00008
1.00018
1.00039
1.00082
1.00185
1.0035
1
1
1
1
1
1
1
1
1
1
1
1
1
1
1
1
1
1
1
1
1
1
1
1
1
1
1
1
1
1
1
1
1.00001
1.00002
1.00005
1.0001
1.00024
1.00052
1.00126
1.00246
1
1
1
1
1
1
1
1
1
1
1
1
1
1
1
1
1
1
1
1
1
1
1
1
1
1
1
1
1
1
1
1.00001
1.00001
1.00002
1.00004
1.00008
1.00018
1.00033
1.00084
1.00135
1
1
1
1
1
1
1
1
1
1
1
1
1
1
1
1
1
1
1
1
1
1
1
1
1
1
1
1
1
1
1
1.00001
1.00001
1.00002
1.00005
1.00009
1.0002
1.00037
1.00094
1.00143
1
1
1
1
1
1
1
1
1
1
1
1
1
1
1
1
1
1
1
1
1
1
1
1
1
1
1
1
1
1
1
1
1.00001
1.00002
1.00004
1.00007
1.00016
1.0003
1.00074
1.00116
1
1
1
1
1
1
1
1
1
1
1
1
1
1
1
1
1
1
1
1
1
1
1
1
1
1
1
1
1
1
1
1
1.00001
1.00002
1.00004
1.00008
1.00016
1.0003
1.00076
1.00119
1
1
1
1
1
1
1
1
1
1
1
1
1
1
1
1
1
1
1
1
1
1
1
1
1
1
1
1
1
1
1
1
1.00001
1.00002
1.00004
1.00008
1.00017
1.00033
1.00081
1.0012
2.28537
2.23144
2.18993
2.07568
1.98427
2.02353
2.28457
2.2341
2.21466
2.21599
2.26546
2.33931
2.30668
2.26887
2.27078
2.32353
2.31223
2.28035
2.33729
2.3799
2.42469
2.44448
2.46782
2.49814
2.52888
2.57148
2.55123
2.52231
2.51252
2.52561
2.59005
2.50828
2.7227
2.73212
2.57991
2.41745
2.26234
2.08084
1.80617
1.33053
2.28211
2.22131
2.1934
2.09654
2.05601
2.07274
2.19493
2.20095
2.15895
2.14982
2.16074
2.20119
2.22164
2.26167
2.37914
2.55847
2.38433
2.39473
2.3894
2.38525
2.38527
2.40552
2.42125
2.43379
2.45878
2.47401
2.46308
2.55019
2.57215
2.565
2.50031
2.54047
2.41353
2.63507
2.52282
2.55753
2.56635
2.66385
2.79038
3.05821
2.31119
2.2452
2.20127
2.12096
2.14095
2.13202
2.13283
2.06058
2.0446
2.05011
2.08779
2.18781
2.22867
2.27357
2.30447
2.31882
2.35904
2.39363
2.40126
2.407
2.41609
2.40566
2.37471
2.39441
2.39589
2.37791
2.40487
2.44995
2.44495
2.46714
2.38993
2.46863
2.3209
2.2601
2.43526
2.56262
2.60703
2.33037
2.0349
1.77821
2.32781
2.30279
2.20555
2.09747
2.06839
2.07919
2.0729
2.0019
1.97808
2.00395
2.06469
2.1207
2.14824
2.19551
2.22586
2.27536
2.33157
2.37175
2.39973
2.37077
2.32727
2.32962
2.35922
2.36807
2.35476
2.33413
2.35062
2.37061
2.37573
2.36649
2.30321
2.26832
2.35715
2.36638
2.44594
2.61778
2.71836
2.73636
2.4375
2.16649
2.39583
2.36808
2.24969
2.11964
2.06372
2.02199
1.97107
1.94351
1.92293
1.95177
2.04125
2.11146
2.14411
2.16475
2.1886
2.20599
2.26078
2.3053
2.30262
2.28912
2.28809
2.27494
2.30201
2.34705
2.34955
2.33274
2.33652
2.33567
2.32028
2.39106
2.4013
2.3561
2.42927
2.48577
2.54798
2.69933
2.67402
2.704
2.65597
2.60983
2.39754
2.40606
2.31038
2.13553
2.06489
2.00129
1.93175
1.90799
1.89548
1.91117
1.96819
2.03831
2.08501
2.10977
2.12962
2.14657
2.16008
2.16968
2.18378
2.19253
2.19411
2.23702
2.29943
2.32448
2.3477
2.33868
2.32289
2.32212
2.27067
2.28304
2.47456
2.43175
2.423
2.56273
2.60389
2.68753
2.69963
2.69839
2.65296
2.68548
2.38349
2.39856
2.30971
2.14302
2.07211
1.99891
1.92545
1.88915
1.88245
1.89116
1.92835
1.98356
2.03706
2.07246
2.09095
2.10107
2.0946
2.09258
2.11578
2.15159
2.18977
2.2456
2.28102
2.3287
2.32964
2.33369
2.28136
2.24219
2.2236
2.21275
2.20086
2.2301
2.29316
2.35039
2.65684
2.65446
2.68283
2.85126
2.84663
2.68696
2.3505
2.37504
2.2797
2.15369
2.07221
1.99066
1.91799
1.86878
1.86314
1.86473
1.8965
1.95011
2.01247
2.05943
2.08865
2.098
2.07772
2.07976
2.10503
2.13437
2.17329
2.20671
2.23957
2.30873
2.32204
2.31552
2.257
2.22632
2.26614
2.23408
2.19683
2.19043
2.25388
2.29167
2.52638
2.70349
2.72053
2.86554
2.85456
2.69185
2.34257
2.33873
2.26981
2.14609
2.06742
1.97161
1.90591
1.86726
1.85381
1.84958
1.87181
1.9334
2.0068
2.04865
2.05557
2.03294
2.00819
2.02789
2.06096
2.08766
2.1208
2.1571
2.19391
2.25127
2.26503
2.28513
2.2261
2.17417
2.17004
2.22891
2.20847
2.15582
2.2335
2.29227
2.37353
2.60863
2.74362
2.79725
2.77459
2.72842
2.30913
2.31308
2.26904
2.14618
2.04837
1.93291
1.89327
1.89736
1.89227
1.88061
1.88875
1.93268
1.98967
2.026
2.03405
2.02358
2.00144
2.0058
2.0511
2.09137
2.09074
2.1242
2.20516
2.2118
2.20471
2.17778
2.1401
2.16306
2.13086
2.07638
2.15453
2.19673
2.20151
2.21946
2.27899
2.32802
2.40371
2.6469
2.83849
2.45925
2.26451
2.32602
2.26902
2.13737
2.01396
1.93849
1.9045
1.89014
1.88609
1.89304
1.90256
1.93144
1.97857
2.01654
2.02905
2.02237
1.99315
1.98625
1.99471
2.03737
2.08676
2.09829
2.10481
2.14164
2.13367
2.04282
2.0197
2.05488
2.0575
2.11746
2.13025
2.12773
2.04229
2.02332
2.08351
2.21954
2.26105
2.30877
2.61086
2.44376
2.27484
2.32361
2.24896
2.07963
1.98482
1.93367
1.91157
1.89737
1.89348
1.90019
1.91326
1.93345
1.96199
1.99896
2.01466
2.02157
2.01157
2.00535
2.00412
1.97419
2.00524
2.08696
2.09428
2.07085
2.08747
2.10189
2.0154
1.95596
1.92527
1.99693
2.11119
2.12319
2.03207
1.99653
2.06383
2.25497
2.31187
2.28483
2.28911
2.3782
2.26167
2.31528
2.22805
2.05186
1.97478
1.92384
1.89908
1.89084
1.89267
1.90199
1.91294
1.92634
1.9412
1.97022
1.98445
1.98967
1.98177
1.97687
2.00216
2.01265
1.9959
1.99594
2.02934
2.04801
2.00763
2.03847
1.95735
1.89946
1.88594
1.90288
1.93532
1.99781
2.13809
2.00804
1.98344
2.0381
2.22536
2.29585
2.29828
2.18047
2.22227
2.30295
2.23252
2.07755
1.99658
1.93164
1.91169
1.8891
1.87227
1.87139
1.88195
1.89585
1.91227
1.94679
1.97543
1.99653
1.98355
1.9341
1.97695
2.0076
1.93772
1.98708
2.01359
1.96432
1.9883
2.03858
1.94002
1.94209
1.9734
1.91752
1.89841
1.97141
1.99646
2.00975
2.00141
1.96444
2.0251
2.1815
2.33089
2.21105
2.13695
2.36894
2.37514
2.2981
2.12883
1.99211
1.95302
1.90725
1.85684
1.84074
1.84076
1.84975
1.88295
1.93804
1.97702
1.99582
2.00788
1.96078
1.96497
1.99661
1.92773
1.94737
1.98612
1.96423
1.96867
2.03065
1.95837
1.9252
1.94469
1.96852
1.98399
2.00569
1.93773
1.98441
2.10837
2.08617
2.01881
2.02622
2.1152
2.29029
2.03644
2.34074
2.50316
2.50448
2.40454
2.17511
2.01952
1.93841
1.8693
1.82738
1.82654
1.8439
1.88197
1.9253
1.98437
2.0299
1.97241
1.94882
2.01729
1.99245
1.94804
2.01458
1.9432
1.93568
1.99249
2.1458
1.97711
1.9368
1.9877
1.98767
1.96226
2.05415
1.91587
1.93742
2.01652
2.07789
2.12084
2.13461
2.08021
1.97471
1.8724
2.09587
2.44416
2.53647
2.44956
2.24429
2.02972
1.89744
1.81293
1.78925
1.80719
1.84483
1.91583
1.97519
2.01034
1.95064
1.93753
1.95015
2.03903
1.99152
1.97374
2.00149
1.952
1.95782
2.00999
2.10482
2.01011
1.95704
2.00878
2.06317
1.99178
2.04303
2.21985
2.20051
2.10678
2.01459
1.99043
2.08854
2.11015
1.95719
1.76512
1.80065
1.9343
2.26703
2.30904
2.19385
1.97489
1.85674
1.77241
1.78327
1.83126
1.88799
1.9282
1.93327
1.92745
1.92251
1.92653
1.95184
2.01975
1.97467
2.00773
1.9946
1.90973
1.99486
2.05381
2.01478
2.03803
2.00763
2.07373
2.02598
1.98143
1.97844
2.05062
2.13772
2.05631
1.99607
2.03629
2.10626
2.06489
1.96092
1.6204
1.62302
1.66797
2.03785
2.19302
2.10528
1.94472
1.86892
1.79046
1.79215
1.80511
1.86724
1.89301
1.88282
1.88956
1.91794
1.95468
2.00411
2.025
1.9296
2.00141
1.94893
1.92128
2.00891
2.03727
1.99367
2.01703
1.98612
2.07166
2.03463
2.0398
2.02208
2.03109
2.17577
2.23716
2.06708
2.05311
2.10694
2.04351
1.95282
1.53292
1.36086
1.57233
1.91746
1.9907
1.95244
1.90745
1.85166
1.79532
1.77678
1.80322
1.846
1.83636
1.86109
1.91622
1.95782
1.97124
2.0294
1.96716
1.93835
1.90911
1.89742
1.95369
2.05796
1.99442
2.00159
1.98205
1.95081
2.04178
2.08827
2.02454
2.05389
2.10644
2.12918
2.13405
2.0482
1.9424
1.96878
1.99865
2.04073
1.00119
1.34544
1.66745
1.74677
1.80178
1.90947
1.88901
1.85372
1.83242
1.81918
1.79049
1.80275
1.84098
1.88112
1.89539
1.89189
1.93069
2.07728
1.92146
1.85647
1.84804
1.85323
1.93225
2.17336
2.08049
1.93742
1.93836
1.94495
1.97993
2.0095
2.22687
2.14689
2.08907
2.05754
2.06704
1.99188
1.94357
1.96569
2.03089
2.02819
1.08884
1.21759
1.5773
1.64857
1.76882
1.90058
1.88022
1.8457
1.82543
1.80398
1.76095
1.79658
1.8432
1.84588
1.85518
1.88028
1.92066
2.03111
1.87784
1.85111
1.85278
1.86902
1.92867
2.0819
2.11511
1.90747
1.92691
2.04071
2.03507
2.0891
2.12507
2.05255
2.10283
2.03724
2.03646
2.02306
1.94068
1.94291
1.96279
1.8788
1.07483
1.22188
1.46618
1.625
1.83691
1.89738
1.85329
1.80587
1.77751
1.73709
1.75567
1.79136
1.79933
1.81939
1.83734
1.88896
1.95889
1.87802
1.85744
1.89167
1.93654
1.92191
1.96563
2.04523
1.91414
1.97576
2.0275
2.02675
2.02677
2.03329
1.934
1.97084
2.03457
1.98683
2.00366
2.12535
2.04097
1.95368
1.86307
1.83998
1.0552
1.15407
1.37769
1.69403
1.81102
1.78338
1.73723
1.73413
1.72351
1.75206
1.77561
1.77907
1.79956
1.83483
1.89169
1.9109
1.87579
1.85698
1.87374
1.88269
1.87769
1.91582
1.9906
1.91403
1.91936
1.9115
1.89954
2.05791
1.95572
1.92256
1.93325
1.96683
1.95104
1.89512
1.96821
2.06242
2.08815
2.00185
1.87142
1.80267
1.0491
1.12312
1.27433
1.69371
1.67418
1.63755
1.6609
1.67374
1.71844
1.73788
1.74402
1.77364
1.80409
1.84171
1.84885
1.8221
1.86151
1.84131
1.86141
1.86608
1.85358
1.96879
1.90738
1.8805
1.92559
1.93501
1.9241
2.03861
1.88415
1.91492
1.97372
1.95903
2.02544
1.94474
1.96277
1.98709
2.00269
1.9189
1.89992
1.78527
1.0588
1.12193
1.28935
1.58537
1.5439
1.56771
1.61523
1.64442
1.67205
1.67339
1.69119
1.73507
1.76064
1.78064
1.77985
1.83155
1.81222
1.80714
1.87706
1.85068
1.916
1.86571
1.83253
1.89609
1.99707
1.92556
1.93358
1.91785
1.82451
1.87963
1.94741
1.95902
1.97242
1.95168
1.92022
1.93565
1.96021
1.9354
1.73889
1.7369
1.05498
1.12545
1.30098
1.45641
1.50406
1.55128
1.58022
1.59077
1.6389
1.62287
1.64658
1.70828
1.73363
1.75652
1.79192
1.77853
1.78485
1.83252
1.83083
1.87764
1.87955
1.80219
1.8523
1.92303
1.89513
1.94489
1.87951
1.80086
1.86544
1.93674
1.9161
1.9226
1.77945
1.81331
1.89123
1.90673
1.90107
1.83802
1.6817
1.67264
1.06837
1.16466
1.3019
1.37278
1.46704
1.53725
1.54362
1.55929
1.595
1.5743
1.61862
1.68051
1.70515
1.72989
1.73318
1.74562
1.76421
1.80084
1.89139
1.83046
1.79163
1.82006
1.85638
1.83591
1.88883
1.96707
1.80095
1.83271
1.92873
1.88604
1.87744
1.87207
1.82246
1.84726
1.89814
1.86473
1.84557
1.76832
1.71292
1.68888
1.04845
1.15929
1.24507
1.35615
1.45534
1.51711
1.50657
1.54643
1.53305
1.56907
1.64372
1.69222
1.72604
1.74487
1.7539
1.78296
1.83502
1.8061
1.77458
1.76528
1.76744
1.80679
1.89125
1.94007
1.84978
1.82791
1.90783
1.89273
1.92527
1.92858
1.77466
1.77454
1.82971
1.94586
1.97009
1.8558
1.82231
1.80197
1.74794
1.62898
1.03006
1.08374
1.17454
1.3472
1.48712
1.51946
1.52965
1.49941
1.52662
1.6169
1.61538
1.63544
1.68473
1.71131
1.73375
1.74748
1.71647
1.72452
1.7514
1.81777
1.888
1.93073
1.83544
1.79972
1.8353
1.86655
1.85318
1.87545
1.80101
1.7432
1.76603
1.8961
1.86773
1.81844
1.79477
1.72516
1.71406
1.76276
1.79404
1.66164
1.0224
1.06482
1.13618
1.35329
1.51288
1.47363
1.45155
1.4821
1.55821
1.54752
1.52746
1.59718
1.64752
1.67345
1.69311
1.71057
1.73045
1.75781
1.82564
1.88881
1.83722
1.79486
1.80338
1.86888
1.81385
1.75831
1.82233
1.72424
1.69468
1.74443
1.8718
1.85161
1.7786
1.72829
1.69636
1.67076
1.66502
1.65371
1.6534
1.68425
1.02324
1.06701
1.14833
1.27367
1.45001
1.48819
1.40375
1.47645
1.52946
1.53796
1.54659
1.60137
1.64569
1.67443
1.69881
1.72926
1.74981
1.76536
1.79511
1.76398
1.75569
1.7736
1.81947
1.75411
1.7089
1.76301
1.72595
1.65947
1.65209
1.66606
1.80911
1.7613
1.67863
1.66998
1.61367
1.59057
1.65026
1.65341
1.611
1.56512
1.01832
1.05978
1.1429
1.24339
1.38066
1.38891
1.36149
1.46985
1.52758
1.50539
1.54702
1.63066
1.64522
1.65505
1.65796
1.66835
1.6864
1.68437
1.69974
1.72592
1.71693
1.72829
1.74319
1.72093
1.66699
1.6174
1.60521
1.60373
1.60671
1.72997
1.76156
1.68411
1.68168
1.66498
1.66202
1.61977
1.58134
1.57417
1.53386
1.66867
1.01808
1.05402
1.1175
1.22237
1.29044
1.30335
1.33295
1.44817
1.44348
1.46875
1.56935
1.59694
1.6082
1.60631
1.60543
1.61423
1.62602
1.63622
1.66031
1.65628
1.64514
1.66204
1.65957
1.61542
1.60017
1.60751
1.60248
1.63415
1.72459
1.67475
1.62748
1.6495
1.78431
1.68069
1.60084
1.60176
1.5494
1.51748
1.46913
1.60117
1.01381
1.04369
1.09434
1.17729
1.27683
1.33688
1.34195
1.42232
1.4351
1.53838
1.60157
1.60425
1.59835
1.59215
1.59179
1.59599
1.60313
1.61617
1.60919
1.60354
1.61534
1.61496
1.59169
1.59633
1.61114
1.60062
1.59501
1.61889
1.63967
1.633
1.65638
1.63365
1.64444
1.58256
1.48718
1.4825
1.47512
1.48677
1.46785
1.58134
1.01046
1.03061
1.06422
1.13025
1.22901
1.3033
1.3913
1.4004
1.39534
1.5295
1.56568
1.57007
1.56747
1.56414
1.5662
1.56422
1.56714
1.57229
1.57356
1.57233
1.56839
1.5694
1.58435
1.5811
1.56857
1.57871
1.60054
1.57537
1.60491
1.58568
1.51762
1.50995
1.56309
1.5696
1.43387
1.38617
1.37066
1.38068
1.49712
1.65923
1.01096
1.0276
1.05431
1.10655
1.22759
1.30805
1.36221
1.30245
1.3605
1.52155
1.55272
1.55116