/*--------------------------------*- C++ -*----------------------------------*\
  =========                 |
  \\      /  F ield         | OpenFOAM: The Open Source CFD Toolbox
   \\    /   O peration     | Website:  https://openfoam.org
    \\  /    A nd           | Version:  6.0
     \\/     M anipulation  |
\*---------------------------------------------------------------------------*/
FoamFile
{
    version     2.0;
    format      ascii;
    class       volScalarField;
    location    "1.5";
    object      T;
}
// * * * * * * * * * * * * * * * * * * * * * * * * * * * * * * * * * * * * * //

dimensions      [0 0 0 1 0 0 0];

internalField   nonuniform List<scalar> 
192000
(
0.896188
0.861416
0.844671
0.833158
0.825488
0.819457
0.81497
0.811104
0.808136
0.805363
0.803232
0.801124
0.799515
0.797853
0.796644
0.795664
0.795864
0.796062
0.79893
0.804024
0.825379
0.864136
1.00327
1.32845
2.06681
2.36556
2.37371
2.35406
2.31247
2.29282
2.29173
2.29696
2.31516
2.32615
2.34217
2.35315
2.38163
2.39909
2.49116
2.27046
0.896183
0.86142
0.844668
0.833162
0.825487
0.819459
0.81497
0.811106
0.808136
0.805366
0.803232
0.801125
0.799517
0.797853
0.796646
0.795663
0.795893
0.796054
0.799094
0.803893
0.826254
0.863345
1.00995
1.331
2.07267
2.3645
2.37261
2.35302
2.3117
2.29235
2.29139
2.29664
2.31479
2.32572
2.34181
2.35286
2.3815
2.39908
2.49204
2.26922
0.896183
0.86142
0.844668
0.833162
0.825487
0.81946
0.814969
0.811106
0.808136
0.805366
0.803232
0.801126
0.799517
0.797853
0.796646
0.795663
0.795893
0.796054
0.799093
0.803888
0.826246
0.8633
1.00995
1.33065
2.07287
2.3643
2.3726
2.35305
2.31189
2.29286
2.29207
2.29735
2.31558
2.32648
2.34268
2.3538
2.38251
2.40029
2.49329
2.27101
0.896188
0.861416
0.84467
0.833158
0.825488
0.819457
0.81497
0.811104
0.808136
0.805364
0.803232
0.801124
0.799515
0.797853
0.796643
0.795664
0.795864
0.796062
0.798927
0.804
0.825349
0.863878
1.00327
1.32736
2.06669
2.36575
2.37439
2.35489
2.31377
2.29505
2.29455
2.29991
2.31837
2.3292
2.34558
2.35686
2.38575
2.40388
2.49624
2.27743
0.896187
0.861416
0.844671
0.833158
0.825489
0.819457
0.814971
0.811104
0.808137
0.805363
0.803233
0.801123
0.799516
0.797853
0.796644
0.795661
0.79587
0.796039
0.798905
0.804378
0.825397
0.865936
1.00226
1.33154
2.06564
2.36488
2.37375
2.35441
2.31382
2.29557
2.29556
2.30106
2.3197
2.33045
2.34707
2.35852
2.38767
2.40611
2.49906
2.28078
0.896188
0.861416
0.84467
0.833159
0.825488
0.819458
0.81497
0.811105
0.808136
0.805364
0.803232
0.801124
0.799515
0.797853
0.796643
0.795661
0.795862
0.796057
0.798917
0.803986
0.8253
0.863723
1.00291
1.32684
2.0644
2.3652
2.37422
2.35489
2.3143
2.29659
2.29666
2.30225
2.32084
2.33125
2.34792
2.35941
2.38855
2.4071
2.49945
2.2816
0.896182
0.861421
0.844667
0.833163
0.825486
0.819461
0.814969
0.811108
0.808136
0.805366
0.803232
0.801125
0.799517
0.797854
0.796643
0.795659
0.795891
0.796033
0.799057
0.804108
0.826207
0.864581
1.00879
1.33373
2.07134
2.36391
2.37288
2.35384
2.31397
2.29724
2.29753
2.3034
2.32218
2.3323
2.34924
2.36098
2.39052
2.4095
2.50261
2.28387
0.896186
0.861417
0.84467
0.833159
0.825488
0.819458
0.81497
0.811105
0.808137
0.805364
0.803232
0.801124
0.799516
0.797853
0.796644
0.795663
0.795871
0.796062
0.798946
0.803998
0.825396
0.862799
1.00473
1.32261
2.0654
2.36459
2.37385
2.35486
2.31484
2.29876
2.29914
2.30531
2.32409
2.33389
2.35083
2.3626
2.39208
2.41119
2.50403
2.2851
0.896182
0.861421
0.844667
0.833163
0.825485
0.819461
0.814968
0.811107
0.808136
0.805366
0.803231
0.801127
0.799515
0.797855
0.796645
0.795663
0.795892
0.796052
0.799077
0.803864
0.826074
0.862969
1.00891
1.32652
2.06761
2.36252
2.37215
2.35347
2.31411
2.29887
2.29937
2.30644
2.32482
2.33418
2.35116
2.36301
2.39254
2.41183
2.50432
2.28516
0.896182
0.861422
0.844667
0.833163
0.825485
0.819461
0.814968
0.811107
0.808136
0.805366
0.803231
0.801127
0.799515
0.797855
0.796645
0.795664
0.795892
0.796053
0.799074
0.803833
0.82603
0.862757
1.00874
1.32455
2.06652
2.36144
2.37134
2.35292
2.31417
2.29971
2.30035
2.30822
2.32649
2.33543
2.35251
2.36449
2.3941
2.41365
2.50592
2.28612
0.896186
0.861417
0.84467
0.833159
0.825488
0.819458
0.81497
0.811105
0.808136
0.805364
0.803232
0.801125
0.799515
0.797854
0.796644
0.795665
0.79587
0.796065
0.798933
0.803927
0.825223
0.862384
1.00359
1.31796
2.06034
2.36149
2.37162
2.35349
2.31513
2.30163
2.30246
2.31079
2.32946
2.338
2.3551
2.36723
2.39705
2.41696
2.50943
2.28927
0.896181
0.861422
0.844666
0.833165
0.825484
0.819463
0.814967
0.811109
0.808135
0.805367
0.803231
0.801126
0.799515
0.797856
0.796642
0.795663
0.795894
0.796043
0.799045
0.804008
0.825892
0.863365
1.00745
1.32261
2.06194
2.3594
2.37015
2.35245
2.31498
2.30245
2.30354
2.31235
2.33118
2.33969
2.35683
2.36909
2.39905
2.41929
2.51186
2.2916
0.896181
0.861423
0.844666
0.833165
0.825484
0.819464
0.814966
0.81111
0.808134
0.805368
0.80323
0.801127
0.799515
0.797856
0.796642
0.795663
0.795894
0.796044
0.799035
0.804008
0.82576
0.862856
1.00743
1.31684
2.05913
2.35768
2.36866
2.35128
2.31449
2.30271
2.30394
2.31307
2.33184
2.34024
2.35717
2.36948
2.39942
2.41995
2.51241
2.29224
0.896179
0.861426
0.844664
0.833167
0.825482
0.819465
0.814965
0.811111
0.808132
0.80537
0.803228
0.801129
0.799513
0.797858
0.79664
0.795658
0.795888
0.796036
0.799013
0.803955
0.825634
0.862529
1.00684
1.31401
2.05606
2.35598
2.36727
2.35032
2.31433
2.30318
2.30459
2.31415
2.33274
2.34098
2.35762
2.36994
2.3998
2.4206
2.51301
2.29255
0.896178
0.861427
0.844662
0.833169
0.82548
0.819468
0.814962
0.811115
0.808129
0.805373
0.803226
0.801131
0.799511
0.79786
0.796635
0.795652
0.795875
0.79602
0.798979
0.80379
0.825494
0.862164
1.00565
1.31387
2.05261
2.35349
2.3653
2.34896
2.31418
2.30356
2.30519
2.31558
2.33372
2.34181
2.3581
2.37035
2.39998
2.42097
2.51339
2.29267
0.896179
0.861425
0.844663
0.833168
0.825481
0.819466
0.814963
0.811113
0.80813
0.805371
0.803226
0.801131
0.799509
0.79786
0.796633
0.795646
0.795842
0.796013
0.798799
0.80391
0.824562
0.861924
0.998791
1.30809
2.04297
2.35146
2.36413
2.34852
2.31508
2.30512
2.30699
2.31842
2.33591
2.34396
2.35982
2.372
2.40134
2.42248
2.51478
2.29373
0.896178
0.861427
0.844661
0.83317
0.825478
0.819469
0.814961
0.811115
0.808128
0.805373
0.803224
0.801133
0.799507
0.797862
0.79663
0.795639
0.795831
0.795988
0.798746
0.803976
0.824346
0.863022
0.996698
1.30778
2.03525
2.34759
2.36162
2.34693
2.31521
2.30612
2.30836
2.32061
2.33815
2.34608
2.36206
2.37422
2.40352
2.42511
2.51787
2.29689
0.89618
0.861425
0.844662
0.833169
0.825479
0.819468
0.814961
0.811116
0.808127
0.805375
0.803222
0.801136
0.799504
0.797864
0.796625
0.795633
0.795821
0.795983
0.79872
0.803763
0.824106
0.861177
0.995863
1.3017
2.02993
2.34471
2.35965
2.34566
2.31525
2.30684
2.30931
2.32226
2.33991
2.34788
2.3641
2.37624
2.40545
2.42748
2.52078
2.30092
0.896178
0.861427
0.844662
0.833169
0.82548
0.819468
0.814962
0.811115
0.808129
0.805374
0.803225
0.801133
0.799509
0.79786
0.796628
0.795624
0.79583
0.795959
0.798805
0.803576
0.824625
0.860922
1.00035
1.3002
2.02709
2.33971
2.35616
2.3429
2.31415
2.30652
2.30942
2.32285
2.3407
2.34878
2.36529
2.37745
2.4066
2.42908
2.52315
2.30414
0.896177
0.861428
0.844661
0.833171
0.825479
0.819469
0.814961
0.811116
0.808127
0.805376
0.803223
0.801136
0.799505
0.797864
0.796623
0.795621
0.795813
0.795952
0.798771
0.803199
0.824347
0.858896
0.999521
1.29207
2.02029
2.33438
2.35212
2.3395
2.31203
2.30506
2.30845
2.32215
2.34001
2.34811
2.3647
2.37681
2.40594
2.42885
2.5237
2.30598
0.896177
0.861429
0.844659
0.833172
0.825477
0.819471
0.814959
0.811118
0.808125
0.805377
0.80322
0.801138
0.799502
0.797866
0.796618
0.795616
0.795775
0.795948
0.798574
0.803166
0.823277
0.858578
0.992002
1.28418
2.00673
2.32948
2.3492
2.3372
2.31126
2.30441
2.30816
2.32185
2.33958
2.34761
2.3641
2.37607
2.40481
2.42805
2.52343
2.30687
0.896177
0.861429
0.84466
0.833172
0.825477
0.819471
0.814959
0.811118
0.808125
0.805377
0.80322
0.801138
0.799502
0.797866
0.796617
0.795607
0.795761
0.795905
0.798505
0.803447
0.823051
0.859794
0.989824
1.28123
1.99656
2.32436
2.34626
2.33497
2.31083
2.30452
2.30874
2.32242
2.33989
2.34782
2.3641
2.37592
2.40426
2.42766
2.52334
2.30789
0.896177
0.861429
0.844659
0.833172
0.825477
0.819471
0.814958
0.811118
0.808124
0.805378
0.803219
0.801138
0.799502
0.797866
0.796614
0.795599
0.795734
0.795892
0.798447
0.803092
0.822591
0.858225
0.98675
1.27531
1.98585
2.31805
2.34272
2.3323
2.31002
2.30439
2.30914
2.32301
2.34046
2.34837
2.36443
2.37614
2.40403
2.42767
2.5236
2.30882
0.896176
0.86143
0.844659
0.833173
0.825476
0.819472
0.814958
0.811118
0.808124
0.805378
0.803219
0.801139
0.799502
0.797866
0.796614
0.795592
0.795718
0.795856
0.798393
0.803133
0.822315
0.857826
0.985249
1.26814
1.97352
2.31124
2.33854
2.32903
2.30862
2.30384
2.30916
2.3232
2.34073
2.3487
2.36481
2.37653
2.40402
2.42785
2.52429
2.31066
0.896175
0.861431
0.844658
0.833173
0.825476
0.819473
0.814957
0.81112
0.808124
0.805379
0.80322
0.80114
0.799502
0.797867
0.796613
0.795584
0.795696
0.795828
0.798336
0.803032
0.821937
0.85729
0.9833
1.25977
1.96177
2.3034
2.33363
2.32534
2.30711
2.30305
2.30891
2.32308
2.34057
2.3486
2.36473
2.37646
2.4037
2.42781
2.52471
2.31266
0.896175
0.861433
0.844658
0.833175
0.825476
0.819474
0.814957
0.81112
0.808122
0.805377
0.803216
0.801137
0.799498
0.797864
0.796608
0.795573
0.79567
0.795799
0.798264
0.802845
0.821483
0.85615
0.980273
1.25227
1.94758
2.29513
2.32849
2.32138
2.30515
2.30165
2.308
2.32239
2.33999
2.34812
2.36433
2.37609
2.40302
2.42745
2.52529
2.31418
0.896174
0.861434
0.844652
0.83318
0.825468
0.819479
0.81495
0.811125
0.808118
0.805385
0.803214
0.801145
0.799496
0.797871
0.796604
0.79557
0.795628
0.795805
0.798169
0.802447
0.820976
0.854118
0.977901
1.24145
1.93321
2.28689
2.32376
2.31769
2.30351
2.30041
2.30705
2.3211
2.33846
2.34669
2.36292
2.37474
2.40142
2.42612
2.52521
2.31671
0.896171
0.861431
0.84466
0.833168
0.825486
0.819458
0.814975
0.811101
0.808144
0.805363
0.803234
0.801129
0.799513
0.797857
0.796616
0.795545
0.795623
0.795738
0.798117
0.802509
0.820572
0.854049
0.975346
1.23339
1.91714
2.27655
2.31801
2.31322
2.30127
2.29911
2.30621
2.32019
2.33727
2.34552
2.3616
2.3733
2.39968
2.42401
2.5244
2.3176
0.896152
0.861455
0.844638
0.833195
0.825459
0.819492
0.814943
0.811137
0.808112
0.805394
0.80321
0.801152
0.799495
0.797875
0.796604
0.79555
0.795569
0.795757
0.797987
0.802288
0.819989
0.852513
0.972019
1.22197
1.90057
2.26608
2.31214
2.30833
2.29827
2.29627
2.30418
2.3177
2.33462
2.34294
2.35913
2.37088
2.39734
2.4216
2.52368
2.31965
0.89613
0.861481
0.844615
0.833221
0.825437
0.819517
0.814923
0.811161
0.808094
0.805418
0.803193
0.801176
0.799478
0.797897
0.796584
0.795561
0.795529
0.795744
0.797901
0.801783
0.819354
0.849789
0.968816
1.20873
1.88212
2.25464
2.30702
2.30512
2.29694
2.29513
2.3038
2.31629
2.33271
2.34065
2.35641
2.36784
2.39389
2.41766
2.52159
2.32028
0.896128
0.861486
0.84461
0.83323
0.825428
0.819527
0.814913
0.811171
0.808084
0.805425
0.803184
0.801181
0.799469
0.797901
0.796575
0.795551
0.795499
0.79568
0.797919
0.801696
0.819306
0.848727
0.967276
1.19725
1.86339
2.24119
2.29894
2.29977
2.2934
2.29232
2.30212
2.31399
2.33041
2.33833
2.35397
2.36512
2.39074
2.41389
2.51956
2.32161
0.896127
0.861487
0.844609
0.833232
0.825426
0.819531
0.814907
0.811179
0.808074
0.805438
0.803168
0.8012
0.799449
0.797922
0.796549
0.795563
0.79545
0.795647
0.797827
0.80121
0.818592
0.845539
0.96231
1.17805
1.84368
2.22745
2.29337
2.29595
2.29108
2.29012
2.30038
2.31141
2.3275
2.33522
2.35073
2.36163
2.38686
2.40913
2.51628
2.32246
0.896135
0.861479
0.844617
0.833223
0.825433
0.819523
0.814914
0.81117
0.80808
0.80543
0.803175
0.801192
0.799456
0.797914
0.796552
0.795537
0.795411
0.795584
0.797685
0.801127
0.817837
0.844883
0.957475
1.16431
1.81576
2.20855
2.2843
2.28925
2.28665
2.28723
2.29858
2.30916
2.32505
2.33246
2.34746
2.35794
2.38274
2.40411
2.51229
2.32235
0.896126
0.861489
0.844607
0.833234
0.825424
0.819534
0.814904
0.811182
0.80807
0.805442
0.803165
0.801204
0.799445
0.797927
0.796538
0.795533
0.795356
0.79554
0.797444
0.800676
0.816413
0.843285
0.948709
1.15239
1.79169
2.19456
2.27978
2.2834
2.28171
2.28283
2.29492
2.30559
2.32221
2.32989
2.34429
2.35407
2.37779
2.39788
2.50844
2.32232
0.896126
0.861488
0.844609
0.833232
0.825427
0.819531
0.814908
0.811177
0.808075
0.805437
0.80317
0.801198
0.799451
0.797919
0.796542
0.795507
0.79531
0.795476
0.79729
0.800422
0.815482
0.841759
0.942439
1.13858
1.75837
2.18114
2.27852
2.28049
2.27829
2.27943
2.29014
2.3008
2.31738
2.32627
2.34142
2.35067
2.37308
2.39031
2.49985
2.31995
0.896138
0.861474
0.844622
0.833218
0.82544
0.819516
0.814922
0.811163
0.808088
0.805423
0.803184
0.801184
0.799464
0.797903
0.796554
0.795472
0.795262
0.795391
0.797212
0.800313
0.815006
0.839706
0.938526
1.11987
1.7136
2.15968
2.27517
2.27811
2.27627
2.27806
2.28774
2.29605
2.31205
2.32018
2.33667
2.34662
2.36966
2.38486
2.49432
2.31711
0.896129
0.861484
0.844614
0.833228
0.825432
0.819526
0.814914
0.811173
0.80808
0.805433
0.803175
0.801195
0.799455
0.797914
0.796543
0.795469
0.795198
0.795334
0.797113
0.799306
0.814274
0.834027
0.932085
1.09978
1.67213
2.12273
2.26036
2.26969
2.27119
2.27569
2.28692
2.29465
2.30899
2.31582
2.33014
2.33891
2.36168
2.37378
2.48214
2.31016
0.896017
0.861618
0.844497
0.833365
0.825314
0.819664
0.814796
0.811311
0.807963
0.80557
0.803059
0.801331
0.79934
0.798048
0.796427
0.795594
0.795043
0.795562
0.796069
0.801245
0.808316
0.844069
0.901558
1.12062
1.66395
2.11098
2.25533
2.26166
2.26309
2.26894
2.28332
2.29318
2.30854
2.31532
2.32895
2.33587
2.35608
2.36533
2.47174
2.29916
0.89602
0.861613
0.844501
0.83336
0.825319
0.81966
0.8148
0.811307
0.807967
0.805567
0.803062
0.801328
0.799342
0.798045
0.796426
0.795573
0.794975
0.795479
0.795871
0.800612
0.809025
0.840177
0.897851
1.0997
1.61668
2.09333
2.25476
2.26083
2.26184
2.26648
2.27936
2.2893
2.30631
2.31417
2.32792
2.33286
2.34785
2.35176
2.44899
2.28025
0.896027
0.861605
0.84451
0.83335
0.825328
0.819648
0.814811
0.811295
0.807977
0.805555
0.803073
0.801316
0.799354
0.798031
0.796436
0.79554
0.794902
0.795366
0.795708
0.800113
0.808106
0.83682
0.892053
1.07446
1.56265
2.05973
2.2502
2.26039
2.26583
2.2707
2.2852
2.29599
2.31378
2.32262
2.33693
2.33988
2.34876
2.34487
2.42264
2.22524
1.00317
0.996953
0.990484
0.98348
0.97787
0.973413
0.969602
0.96659
0.963807
0.961611
0.959479
0.957809
0.956097
0.954811
0.953495
0.953136
0.953244
0.954577
0.956832
0.96793
0.984864
1.05427
1.18268
1.62524
2.52988
2.73138
2.71787
2.68828
2.66204
2.65913
2.664
2.67655
2.6974
2.71006
2.73168
2.74953
2.78637
2.81782
2.90627
2.69855
1.00317
0.996934
0.990501
0.983458
0.977889
0.973389
0.969624
0.966565
0.963829
0.961585
0.959502
0.957782
0.956121
0.954784
0.953524
0.953123
0.953284
0.954847
0.957043
0.969485
0.986973
1.05068
1.19564
1.61512
2.50558
2.7254
2.71293
2.68362
2.65741
2.65428
2.6592
2.67139
2.69257
2.70494
2.7267
2.74459
2.78105
2.81237
2.90202
2.70287
1.00317
0.996934
0.990501
0.983458
0.977889
0.973389
0.969624
0.966565
0.963829
0.961585
0.959502
0.957782
0.956121
0.954784
0.953524
0.953124
0.953284
0.95485
0.957042
0.969486
0.986948
1.05068
1.19548
1.61509
2.50561
2.72517
2.71275
2.68339
2.6574
2.65413
2.65911
2.671
2.69227
2.70455
2.72631
2.74412
2.78037
2.81175
2.90147
2.70552
1.00317
0.996952
0.990485
0.983479
0.97787
0.973412
0.969603
0.966589
0.963807
0.96161
0.95948
0.957808
0.956097
0.95481
0.953496
0.953136
0.953246
0.954582
0.956826
0.967906
0.98478
1.05416
1.18252
1.62429
2.53005
2.73127
2.71785
2.68812
2.66258
2.65917
2.66419
2.67564
2.69702
2.70905
2.73067
2.74834
2.78439
2.81596
2.90466
2.70565
1.00317
0.996952
0.990485
0.983478
0.977871
0.97341
0.969604
0.966587
0.963809
0.961607
0.959481
0.957805
0.956099
0.954807
0.953498
0.953134
0.953257
0.954606
0.95684
0.967892
0.984718
1.05451
1.18336
1.62558
2.52738
2.7269
2.71402
2.68465
2.66
2.65685
2.66224
2.67364
2.69507
2.70708
2.72881
2.7465
2.78243
2.81427
2.90368
2.70993
1.00317
0.996952
0.990485
0.983479
0.97787
0.973412
0.969603
0.966589
0.963808
0.961609
0.95948
0.957807
0.956098
0.95481
0.953495
0.953132
0.953242
0.954574
0.956811
0.967852
0.984691
1.05389
1.18214
1.62346
2.52902
2.73089
2.71753
2.68793
2.66331
2.66015
2.66552
2.67689
2.69829
2.71002
2.73146
2.74895
2.78463
2.81648
2.90506
2.70946
1.00317
0.996932
0.990504
0.983455
0.977892
0.973386
0.969627
0.966562
0.963832
0.961582
0.959505
0.957779
0.956124
0.954781
0.953525
0.953114
0.953284
0.954739
0.957051
0.968922
0.98698
1.0489
1.19421
1.61503
2.49782
2.71901
2.70746
2.67842
2.65475
2.65212
2.65821
2.66998
2.69147
2.70338
2.72487
2.7423
2.7777
2.8099
2.90104
2.71486
1.00317
0.996948
0.990489
0.983474
0.977875
0.973407
0.969608
0.966584
0.963813
0.961604
0.959485
0.957802
0.956104
0.954804
0.953504
0.953136
0.953255
0.954629
0.956891
0.967759
0.984724
1.05385
1.18304
1.61979
2.52113
2.72887
2.71535
2.68566
2.66163
2.65822
2.66378
2.67524
2.69587
2.70734
2.72805
2.74492
2.77927
2.8107
2.90006
2.71656
1.00317
0.996935
0.990501
0.983458
0.977889
0.97339
0.969623
0.966565
0.963829
0.961585
0.959502
0.957783
0.956121
0.954785
0.953524
0.953125
0.95328
0.954877
0.957011
0.969535
0.986674
1.05041
1.1934
1.61108
2.49871
2.7226
2.7109
2.68239
2.65956
2.65725
2.66363
2.67552
2.69617
2.70772
2.72817
2.74483
2.77885
2.81022
2.89965
2.71774
1.00317
0.996935
0.990501
0.983458
0.977889
0.97339
0.969623
0.966565
0.963829
0.961585
0.959502
0.957783
0.956121
0.954785
0.953523
0.953125
0.953281
0.954868
0.957011
0.969503
0.986633
1.05027
1.19285
1.60976
2.49663
2.72095
2.70907
2.6807
2.65818
2.65602
2.66274
2.67493
2.69542
2.70701
2.7272
2.74362
2.77725
2.80843
2.8983
2.72053
1.00317
0.996948
0.990489
0.983475
0.977874
0.973408
0.969606
0.966585
0.963811
0.961605
0.959484
0.957803
0.956102
0.954805
0.953502
0.953138
0.953255
0.954619
0.956879
0.967756
0.98463
1.05337
1.18133
1.6154
2.51303
2.72488
2.71191
2.68337
2.66127
2.65913
2.66564
2.6778
2.69731
2.70867
2.7281
2.74399
2.7767
2.8074
2.89697
2.7247
1.00317
0.996935
0.990501
0.983458
0.977889
0.973389
0.969623
0.966565
0.963829
0.961585
0.959502
0.957782
0.956122
0.954784
0.953524
0.953126
0.953275
0.954938
0.956987
0.969703
0.986351
1.04967
1.19004
1.60601
2.49032
2.71823
2.70728
2.67991
2.65905
2.65802
2.66563
2.6778
2.69745
2.70866
2.72804
2.74371
2.77596
2.80625
2.89558
2.72834
1.00317
0.996937
0.990499
0.98346
0.977886
0.973392
0.96962
0.966568
0.963826
0.961587
0.9595
0.957785
0.956119
0.954786
0.953522
0.953131
0.95326
0.955117
0.95693
0.970471
0.985901
1.05121
1.18783
1.60117
2.4899
2.71884
2.7072
2.67987
2.65929
2.65845
2.666
2.67822
2.69759
2.7084
2.72764
2.74299
2.77472
2.80472
2.89429
2.73015
1.00317
0.996936
0.990499
0.98346
0.977887
0.973391
0.969621
0.966567
0.963827
0.961587
0.9595
0.957785
0.956119
0.954787
0.95352
0.953125
0.953253
0.955098
0.956904
0.970385
0.985752
1.05083
1.18678
1.59858
2.48578
2.71706
2.70605
2.67945
2.65935
2.65885
2.66658
2.67886
2.69797
2.7083
2.72706
2.74199
2.7731
2.80258
2.89225
2.73191
1.00317
0.996933
0.990502
0.983456
0.97789
0.973388
0.969624
0.966564
0.96383
0.961584
0.959503
0.957782
0.956122
0.954784
0.953519
0.953108
0.953253
0.954881
0.956903
0.969447
0.985879
1.04846
1.18681
1.59851
2.4781
2.71177
2.7022
2.67589
2.65742
2.6575
2.6664
2.67842
2.6977
2.70791
2.72643
2.74101
2.77148
2.80044
2.89029
2.73318
1.00317
0.996946
0.99049
0.983472
0.977876
0.973405
0.969608
0.966582
0.963813
0.961603
0.959486
0.957801
0.956103
0.954804
0.953495
0.953108
0.953216
0.954538
0.956724
0.967321
0.983858
1.05082
1.17544
1.60615
2.49234
2.71219
2.70179
2.67527
2.65716
2.65708
2.66674
2.67766
2.69691
2.70694
2.72517
2.73955
2.7696
2.79822
2.8885
2.73463
1.00317
0.996947
0.990489
0.983473
0.977875
0.973405
0.969607
0.966583
0.963813
0.961603
0.959485
0.957802
0.956101
0.954804
0.95349
0.953097
0.953207
0.954512
0.95667
0.967295
0.98362
1.05106
1.17506
1.60251
2.48667
2.70843
2.69969
2.67389
2.6565
2.6564
2.66745
2.67738
2.69629
2.70608
2.7237
2.73768
2.76698
2.79496
2.88638
2.73683
1.00317
0.996945
0.990491
0.983471
0.977877
0.973404
0.96961
0.966581
0.963815
0.961602
0.959487
0.9578
0.956103
0.954803
0.953489
0.953086
0.953188
0.954487
0.95663
0.967083
0.983345
1.04943
1.17226
1.59818
2.47966
2.70718
2.69807
2.67268
2.65623
2.65615
2.66874
2.67763
2.69596
2.70566
2.7228
2.7365
2.76493
2.79183
2.88326
2.74001
1.00317
0.996931
0.990504
0.983455
0.977892
0.973386
0.969626
0.966563
0.963832
0.961583
0.959504
0.957781
0.956121
0.954782
0.953508
0.953064
0.953197
0.954776
0.956697
0.969037
0.984867
1.04631
1.17995
1.58287
2.44937
2.70066
2.69333
2.66919
2.65499
2.65526
2.66876
2.67775
2.69583
2.70542
2.72188
2.73528
2.76299
2.78898
2.88098
2.74335
1.00317
0.99693
0.990505
0.983453
0.977893
0.973385
0.969627
0.966562
0.963833
0.961582
0.959505
0.95778
0.956121
0.954782
0.953506
0.953053
0.953194
0.954655
0.956671
0.968635
0.984733
1.04538
1.17918
1.57731
2.44
2.69626
2.68944
2.66475
2.65202
2.6527
2.66751
2.67711
2.69522
2.70487
2.7209
2.73401
2.76098
2.78577
2.87726
2.74514
1.00317
0.996945
0.990491
0.983472
0.977876
0.973405
0.969609
0.966582
0.963813
0.961604
0.959485
0.957803
0.9561
0.954805
0.953478
0.953056
0.953143
0.954368
0.956455
0.966787
0.98269
1.04748
1.16703
1.58071
2.44955
2.69508
2.68823
2.66313
2.65007
2.65065
2.66487
2.6752
2.69365
2.70352
2.71948
2.73244
2.75902
2.78309
2.87492
2.7461
1.00317
0.996945
0.990491
0.98347
0.977877
0.973402
0.96961
0.966579
0.963815
0.961601
0.959487
0.9578
0.956102
0.954802
0.953478
0.953044
0.95314
0.954363
0.956421
0.966626
0.982319
1.04697
1.16521
1.57625
2.43881
2.68977
2.68434
2.6611
2.64907
2.64972
2.66366
2.67397
2.69187
2.70139
2.71726
2.73017
2.75654
2.77958
2.87083
2.74613
1.00317
0.996946
0.99049
0.983472
0.977876
0.973405
0.969608
0.966582
0.963812
0.961604
0.959484
0.957803
0.956099
0.954805
0.95347
0.953032
0.953108
0.954279
0.956318
0.966393
0.982071
1.04494
1.16201
1.57166
2.42975
2.68566
2.6809
2.65834
2.64705
2.64822
2.66182
2.67243
2.68987
2.69889
2.71451
2.72732
2.75381
2.77672
2.86867
2.74615
1.00317
0.996942
0.990493
0.983468
0.97788
0.9734
0.969612
0.966577
0.963817
0.961598
0.959489
0.957798
0.956104
0.954799
0.953474
0.953021
0.953107
0.954308
0.956292
0.96621
0.981578
1.04423
1.15944
1.56236
2.41575
2.68017
2.67663
2.65521
2.64473
2.64654
2.66014
2.67105
2.68833
2.69694
2.71189
2.72417
2.75008
2.77227
2.86455
2.74585
1.00317
0.996941
0.990494
0.983466
0.977881
0.973399
0.969613
0.966576
0.963818
0.961597
0.959491
0.957797
0.956105
0.954799
0.953473
0.953009
0.953094
0.954281
0.956246
0.966056
0.981179
1.04356
1.15738
1.55272
2.39885
2.67351
2.67159
2.65211
2.64221
2.64466
2.65819
2.66907
2.68621
2.69519
2.7099
2.72163
2.74627
2.76817
2.86129
2.74571
1.00317
0.996941
0.990495
0.983467
0.977882
0.9734
0.969615
0.966576
0.963819
0.961597
0.959491
0.957797
0.956105
0.954797
0.953468
0.952992
0.95307
0.954234
0.956157
0.965803
0.980733
1.04174
1.15345
1.54498
2.38366
2.66681
2.66618
2.64826
2.6394
2.6426
2.65623
2.66723
2.68367
2.692
2.70685
2.7184
2.7425
2.76293
2.85685
2.7453
1.00317
0.996944
0.990492
0.983469
0.977878
0.973402
0.96961
0.966579
0.963814
0.9616
0.959486
0.9578
0.956099
0.954801
0.953457
0.952975
0.953035
0.954133
0.956039
0.96557
0.980393
1.04008
1.15027
1.53662
2.36984
2.65996
2.6627
2.64499
2.63663
2.64022
2.65386
2.66496
2.68168
2.68996
2.70409
2.71503
2.7385
2.75848
2.85172
2.74445
1.00317
0.996941
0.990493
0.983466
0.977879
0.973398
0.969612
0.966574
0.963818
0.961594
0.95949
0.957794
0.956103
0.954794
0.953458
0.952955
0.953026
0.95414
0.956009
0.965341
0.97984
1.03923
1.14731
1.52439
2.34957
2.64912
2.65839
2.64198
2.63373
2.63748
2.65078
2.66118
2.67746
2.68614
2.70056
2.71103
2.73321
2.7524
2.84738
2.74346
1.00317
0.996939
0.990493
0.983463
0.97788
0.973395
0.969612
0.966572
0.963817
0.961593
0.959489
0.957793
0.956101
0.954793
0.953451
0.952938
0.952999
0.954077
0.955881
0.965026
0.979234
1.03704
1.1425
1.5142
2.33184
2.63764
2.65381
2.63891
2.63186
2.63578
2.64872
2.65885
2.67424
2.68219
2.69681
2.70725
2.7289
2.7465
2.83978
2.74085
1.00316
0.996937
0.990492
0.983461
0.977879
0.973393
0.969611
0.966571
0.963816
0.961593
0.959487
0.957793
0.956099
0.954793
0.953443
0.952917
0.952964
0.953995
0.95577
0.964776
0.978702
1.0351
1.13776
1.50071
2.31315
2.62752
2.64968
2.6359
2.62955
2.63352
2.6462
2.65585
2.67077
2.6783
2.69203
2.70181
2.72339
2.74071
2.83484
2.73865
1.00317
0.996925
0.990506
0.983446
0.977894
0.973378
0.969628
0.966555
0.963834
0.961576
0.959505
0.957776
0.956117
0.954775
0.953458
0.952882
0.952983
0.954092
0.955791
0.966105
0.97941
1.03126
1.13949
1.47904
2.26956
2.61501
2.64583
2.63352
2.62795
2.63181
2.64368
2.65272
2.66683
2.67423
2.68789
2.69691
2.71622
2.73206
2.82564
2.7339
1.00317
0.996922
0.990509
0.983444
0.977897
0.973376
0.96963
0.966554
0.963835
0.961575
0.959507
0.957775
0.956118
0.954774
0.953453
0.95286
0.952963
0.953977
0.955734
0.965444
0.978939
1.02891
1.13481
1.46278
2.23969
2.60024
2.64115
2.63089
2.62654
2.63029
2.64126
2.65005
2.66289
2.66937
2.68264
2.6916
2.7114
2.72522
2.818
2.72859
1.00317
0.996924
0.990508
0.983445
0.977896
0.973377
0.969629
0.966554
0.963835
0.961575
0.959506
0.957775
0.956117
0.954773
0.953444
0.952827
0.952916
0.953923
0.955522
0.965272
0.97795
1.02667
1.12879
1.44877
2.20588
2.58029
2.63381
2.62668
2.62484
2.62882
2.63899
2.64688
2.65935
2.66513
2.67644
2.6839
2.70199
2.71545
2.80679
2.72213
1.00316
0.996926
0.990504
0.98345
0.977889
0.973385
0.969619
0.966564
0.963823
0.961587
0.959494
0.957787
0.956103
0.954786
0.953423
0.95281
0.952825
0.953724
0.955264
0.963314
0.975738
1.02611
1.11734
1.43922
2.19571
2.56097
2.62442
2.61973
2.62067
2.62609
2.63725
2.64388
2.65558
2.66111
2.67233
2.67893
2.69525
2.70549
2.79616
2.71123
1.00317
0.996913
0.990517
0.983438
0.977902
0.973372
0.969632
0.966551
0.963836
0.961575
0.959505
0.957777
0.956113
0.954775
0.953425
0.95277
0.952782
0.953634
0.955105
0.962844
0.974806
1.0233
1.111
1.42013
2.17088
2.54817
2.61768
2.61365
2.61455
2.62054
2.63403
2.64044
2.65052
2.6549
2.66438
2.66996
2.68524
2.6939
2.78153
2.70155
1.00317
0.996898
0.990533
0.983419
0.97792
0.973351
0.969653
0.966529
0.963857
0.961552
0.959527
0.957754
0.956135
0.954749
0.953444
0.95271
0.952775
0.953599
0.955011
0.963773
0.974972
1.01877
1.10883
1.39231
2.11013
2.532
2.6148
2.6112
2.60943
2.61405
2.62726
2.63644
2.64705
2.65114
2.65938
2.6634
2.67559
2.67936
2.76701
2.68237
1.00317
0.996889
0.990541
0.983409
0.97793
0.97334
0.969663
0.966517
0.963867
0.96154
0.959537
0.957741
0.956146
0.954735
0.953452
0.952666
0.952722
0.953468
0.954834
0.963188
0.973981
1.01558
1.10216
1.37118
2.04182
2.5
2.60976
2.60792
2.60647
2.60968
2.61853
2.62752
2.63956
2.64348
2.65096
2.65347
2.66461
2.66473
2.74526
2.66488
1.00315
0.996875
0.990544
0.983392
0.977933
0.973324
0.969666
0.966503
0.963869
0.961527
0.959539
0.95773
0.956146
0.954723
0.953447
0.95263
0.952665
0.953072
0.956062
0.959566
0.978505
1.00595
1.10503
1.33923
2.0285
2.46265
2.59799
2.60072
2.60265
2.60708
2.6152
2.62148
2.63323
2.63793
2.64458
2.64484
2.65141
2.64467
2.72371
2.62901
1.00316
0.996864
0.990555
0.98338
0.977944
0.973312
0.969677
0.96649
0.963881
0.961514
0.959551
0.957717
0.956158
0.954708
0.953455
0.952582
0.952606
0.952931
0.956098
0.958989
0.977992
1.00241
1.09738
1.31233
1.97844
2.43303
2.58635
2.58934
2.59307
2.60049
2.60918
2.61361
2.62347
2.6281
2.63415
2.6335
2.63661
2.62559
2.69129
2.59228
1.00316
0.996845
0.990577
0.98336
0.977967
0.973291
0.9697
0.96647
0.963903
0.961495
0.959573
0.957697
0.95618
0.954685
0.953473
0.952521
0.95253
0.952825
0.955662
0.958462
0.975919
0.9992
1.0868
1.28414
1.91737
2.39957
2.57556
2.58184
2.58819
2.59465
2.6052
2.60903
2.61755
2.6213
2.62596
2.62229
2.61827
2.59931
2.65626
2.51624
1.02212
1.02697
1.02393
1.02135
1.01821
1.01502
1.01198
1.00952
1.00704
1.00515
1.00316
1.00165
0.99999
0.998795
0.997578
0.997341
0.997449
0.99888
1.00156
1.01386
1.0349
1.10791
1.26568
1.73294
2.69974
2.77671
2.76218
2.72827
2.6967
2.69649
2.70558
2.71756
2.73829
2.75727
2.76591
2.78006
2.81215
2.82768
2.89501
2.72343
1.02214
1.02696
1.024
1.02128
1.01828
1.01495
1.01205
1.00945
1.00711
1.00508
1.00322
1.00158
1.00006
0.998726
0.997652
0.997286
0.997626
0.998406
1.00311
1.01053
1.04157
1.09677
1.28228
1.71103
2.67593
2.77535
2.76012
2.72577
2.69436
2.69383
2.70355
2.71491
2.73519
2.75455
2.76338
2.77717
2.80855
2.82359
2.89163
2.72837
1.02214
1.02696
1.024
1.02128
1.01828
1.01495
1.01205
1.00945
1.00711
1.00508
1.00322
1.00158
1.00006
0.998726
0.997651
0.997286
0.997625
0.998408
1.00311
1.01053
1.04155
1.09675
1.28219
1.71081
2.67545
2.77507
2.75984
2.72525
2.69424
2.69381
2.7039
2.7149
2.73547
2.75446
2.76295
2.77776
2.80784
2.82198
2.88992
2.73097
1.02212
1.02697
1.02393
1.02135
1.01821
1.01501
1.01198
1.00951
1.00704
1.00515
1.00316
1.00165
0.999991
0.998794
0.997579
0.997342
0.997453
0.99889
1.00157
1.01387
1.03465
1.108
1.2645
1.73318
2.69912
2.77619
2.76159
2.72708
2.69701
2.69698
2.70709
2.71812
2.73977
2.75732
2.76519
2.78222
2.81008
2.82363
2.89059
2.73032
1.02213
1.02697
1.02396
1.02133
1.01823
1.01499
1.012
1.00949
1.00706
1.00513
1.00318
1.00163
1.00001
0.998773
0.997599
0.997324
0.997572
0.998383
1.0043
1.0113
1.0428
1.09878
1.276
1.7127
2.68345
2.77189
2.757
2.7219
2.69339
2.69354
2.70498
2.71545
2.73732
2.75469
2.76265
2.78131
2.80764
2.8212
2.88941
2.73465
1.02212
1.02697
1.02394
1.02135
1.01821
1.01501
1.01198
1.00951
1.00704
1.00515
1.00316
1.00165
0.999992
0.998792
0.997579
0.997338
0.997445
0.998887
1.00155
1.01393
1.0343
1.10868
1.26349
1.73348
2.69795
2.7765
2.76153
2.72609
2.6975
2.6976
2.70877
2.71911
2.74107
2.757
2.76466
2.78437
2.80803
2.82119
2.89003
2.73437
1.02214
1.02696
1.024
1.02128
1.01827
1.01495
1.01205
1.00945
1.00711
1.00508
1.00322
1.00158
1.00006
0.998724
0.997652
0.99728
0.997573
0.99841
1.00294
1.01071
1.04084
1.09752
1.28151
1.71271
2.66657
2.77103
2.75619
2.72063
2.69385
2.69425
2.70707
2.71744
2.73974
2.75539
2.76329
2.78451
2.80668
2.81774
2.88809
2.73839
1.02212
1.02697
1.02394
1.02134
1.01822
1.01501
1.01199
1.00951
1.00705
1.00514
1.00317
1.00164
1
0.998783
0.997592
0.99734