/*--------------------------------*- C++ -*----------------------------------*\
  =========                 |
  \\      /  F ield         | OpenFOAM: The Open Source CFD Toolbox
   \\    /   O peration     | Website:  https://openfoam.org
    \\  /    A nd           | Version:  6.0
     \\/     M anipulation  |
\*---------------------------------------------------------------------------*/
FoamFile
{
    version     2.0;
    format      ascii;
    class       volVectorField;
    location    "1.5";
    object      U;
}
// * * * * * * * * * * * * * * * * * * * * * * * * * * * * * * * * * * * * * //

dimensions      [0 1 -1 0 0 0 0];

internalField   nonuniform List<vector> 
4800
(
(3 -1.27786e-12 0)
(3 -7.71604e-12 0)
(3 -2.31665e-11 0)
(3 -5.05219e-11 0)
(3 -9.26829e-11 0)
(3 -1.5057e-10 0)
(3 -2.16551e-10 0)
(3 -2.596e-10 0)
(3 -1.94777e-10 0)
(2.99999 1.76022e-10 0)
(2.99998 1.27327e-09 0)
(2.99996 3.93039e-09 0)
(2.99992 9.70576e-09 0)
(2.99984 2.13537e-08 0)
(2.99968 4.34565e-08 0)
(2.99934 8.31127e-08 0)
(2.99864 1.50346e-07 0)
(2.9972 2.57502e-07 0)
(2.99425 4.16276e-07 0)
(2.98813 6.29998e-07 0)
(2.9754 8.75452e-07 0)
(2.94845 1.05236e-06 0)
(2.88941 7.99485e-07 0)
(2.74924 -1.18227e-06 0)
(2.34247 -1.21202e-05 0)
(0.728419 -1.27425e-05 0)
(-0.548129 0.00288193 0)
(-0.401094 0.00509053 0)
(-0.192064 0.00464014 0)
(0.0992418 0.0214929 0)
(0.807867 -0.0343296 0)
(1.50488 -0.0157307 0)
(2.07854 -0.00223932 0)
(1.67839 0.0015945 0)
(1.05614 -0.07502 0)
(1.57746 -0.113473 0)
(2.15315 -0.384829 0)
(2.67834 -0.47276 0)
(-1.57077 -2.52496 0)
(-3.59723 -0.679092 0)
(3 -2.72635e-12 0)
(3 -1.71245e-11 0)
(3 -5.3128e-11 0)
(3 -1.17577e-10 0)
(3 -2.16905e-10 0)
(3 -3.52867e-10 0)
(3 -5.07124e-10 0)
(3 -6.06283e-10 0)
(3 -4.50994e-10 0)
(2.99999 4.18964e-10 0)
(2.99998 2.96732e-09 0)
(2.99996 9.07324e-09 0)
(2.99992 2.21895e-08 0)
(2.99984 4.83258e-08 0)
(2.99968 9.74163e-08 0)
(2.99934 1.85087e-07 0)
(2.99864 3.34842e-07 0)
(2.9972 5.8092e-07 0)
(2.99425 9.72814e-07 0)
(2.98813 1.58318e-06 0)
(2.9754 2.51517e-06 0)
(2.94845 3.85927e-06 0)
(2.88941 5.3195e-06 0)
(2.74924 4.50127e-06 0)
(2.34247 -1.4772e-05 0)
(0.729661 9.17329e-05 0)
(-0.545842 0.0126269 0)
(-0.393388 0.0284483 0)
(-0.172102 0.0477012 0)
(0.115576 0.100492 0)
(0.562626 0.0480643 0)
(1.36325 -0.0518925 0)
(1.96913 0.0576225 0)
(1.32669 -0.133751 0)
(0.857287 0.0010144 0)
(1.42068 -0.206676 0)
(1.9175 -0.250215 0)
(2.35289 -0.4135 0)
(-0.842453 -2.28397 0)
(-3.19089 -0.610826 0)
(3 -2.14455e-12 0)
(3 -1.51912e-11 0)
(3 -5.14939e-11 0)
(3 -1.18595e-10 0)
(3 -2.23382e-10 0)
(3 -3.70087e-10 0)
(3 -5.47792e-10 0)
(3 -7.0061e-10 0)
(3 -6.66375e-10 0)
(2.99999 -5.71989e-11 0)
(2.99998 1.96543e-09 0)
(2.99996 7.10412e-09 0)
(2.99992 1.86766e-08 0)
(2.99984 4.29845e-08 0)
(2.99968 9.18568e-08 0)
(2.99934 1.87536e-07 0)
(2.99864 3.72425e-07 0)
(2.9972 7.29132e-07 0)
(2.99425 1.42205e-06 0)
(2.98813 2.7813e-06 0)
(2.9754 5.45652e-06 0)
(2.94845 1.0631e-05 0)
(2.88941 2.00448e-05 0)
(2.74924 3.50003e-05 0)
(2.34252 4.96239e-05 0)
(0.733086 0.000523024 0)
(-0.539669 0.025544 0)
(-0.38309 0.0560374 0)
(-0.147559 0.0950803 0)
(0.130328 0.173791 0)
(0.449557 0.151726 0)
(0.928476 0.011439 0)
(1.74006 -0.0291832 0)
(0.968903 0.0160216 0)
(0.689953 0.0478946 0)
(1.07468 -0.152628 0)
(1.60775 -0.121687 0)
(2.04689 -0.371928 0)
(-0.490051 -1.97637 0)
(-2.73907 -0.662715 0)
(3 -7.60736e-13 0)
(3 -7.98892e-12 0)
(3 -3.31084e-11 0)
(3 -8.29723e-11 0)
(3 -1.64645e-10 0)
(3 -2.87959e-10 0)
(3 -4.62627e-10 0)
(3 -6.86821e-10 0)
(3 -9.1863e-10 0)
(2.99999 -1.00797e-09 0)
(2.99998 -5.34895e-10 0)
(2.99996 1.57227e-09 0)
(2.99992 7.93026e-09 0)
(2.99984 2.47653e-08 0)
(2.99968 6.66155e-08 0)
(2.99934 1.66878e-07 0)
(2.99864 4.0111e-07 0)
(2.9972 9.37666e-07 0)
(2.99425 2.1457e-06 0)
(2.98814 4.8192e-06 0)
(2.97541 1.06204e-05 0)
(2.94846 2.28895e-05 0)
(2.88942 4.79633e-05 0)
(2.74927 9.7818e-05 0)
(2.3427 0.000204401 0)
(0.739269 0.00131301 0)
(-0.529374 0.0392461 0)
(-0.370055 0.0814784 0)
(-0.124362 0.135078 0)
(0.150743 0.219966 0)
(0.4035 0.238323 0)
(0.767885 0.137033 0)
(1.34298 -0.0329736 0)
(0.808563 0.505727 0)
(0.519837 0.371456 0)
(0.783442 0.0709204 0)
(1.24021 -0.142303 0)
(1.7431 -0.389837 0)
(-0.356554 -1.66818 0)
(-2.43151 -0.661966 0)
(3 1.3931e-13 0)
(3 -2.25665e-12 0)
(3 -1.51381e-11 0)
(3 -4.27509e-11 0)
(3 -8.84084e-11 0)
(3 -1.56617e-10 0)
(3 -2.5107e-10 0)
(3 -3.64917e-10 0)
(3 -4.53863e-10 0)
(2.99999 -3.65844e-10 0)
(2.99998 3.41067e-10 0)
(2.99996 2.86508e-09 0)
(2.99992 1.03368e-08 0)
(2.99984 3.07296e-08 0)
(2.99968 8.39139e-08 0)
(2.99934 2.18391e-07 0)
(2.99864 5.50128e-07 0)
(2.9972 1.35073e-06 0)
(2.99425 3.24304e-06 0)
(2.98814 7.62397e-06 0)
(2.97541 1.75501e-05 0)
(2.94847 3.95287e-05 0)
(2.88945 8.71307e-05 0)
(2.74933 0.000190059 0)
(2.34306 0.000443946 0)
(0.748134 0.0024179 0)
(-0.515389 0.0528719 0)
(-0.354526 0.104832 0)
(-0.101346 0.166664 0)
(0.171144 0.251815 0)
(0.39217 0.277256 0)
(0.6846 0.215293 0)
(1.14734 0.166604 0)
(0.77638 1.02066 0)
(0.500214 1.13426 0)
(0.657947 0.481798 0)
(0.965011 0.0857176 0)
(1.45501 -0.443551 0)
(-0.254201 -1.35409 0)
(-2.04427 -0.505745 0)
(3 9.60425e-13 0)
(3 3.75696e-12 0)
(3 6.37735e-12 0)
(3 1.187e-11 0)
(3 3.06714e-11 0)
(3 8.69184e-11 0)
(3 2.35203e-10 0)
(3 5.99516e-10 0)
(3 1.45994e-09 0)
(2.99999 3.44495e-09 0)
(2.99998 7.96123e-09 0)
(2.99996 1.81623e-08 0)
(2.99992 4.11469e-08 0)
(2.99984 9.29685e-08 0)
(2.99968 2.10074e-07 0)
(2.99934 4.75387e-07 0)
(2.99864 1.07754e-06 0)
(2.9972 2.44457e-06 0)
(2.99425 5.54277e-06 0)
(2.98814 1.25373e-05 0)
(2.97542 2.82319e-05 0)
(2.94848 6.31745e-05 0)
(2.88949 0.000140528 0)
(2.74944 0.000314136 0)
(2.34365 0.000766111 0)
(0.759736 0.00381576 0)
(-0.497711 0.0667575 0)
(-0.337206 0.127765 0)
(-0.0790252 0.194476 0)
(0.188299 0.27511 0)
(0.38974 0.301221 0)
(0.627751 0.256274 0)
(0.982375 0.400554 0)
(0.913657 0.845059 0)
(0.551264 1.63759 0)
(0.617002 1.07291 0)
(0.834435 0.323905 0)
(1.13219 -0.303054 0)
(-0.120535 -1.00894 0)
(-1.67448 -0.2676 0)
(3 2.3677e-12 0)
(3 1.33122e-11 0)
(3 3.93836e-11 0)
(3 9.69098e-11 0)
(3 2.22947e-10 0)
(3 4.98302e-10 0)
(3 1.09609e-09 0)
(3 2.38457e-09 0)
(3 5.14447e-09 0)
(2.99999 1.10279e-08 0)
(2.99998 2.35306e-08 0)
(2.99996 5.00588e-08 0)
(2.99992 1.06347e-07 0)
(2.99984 2.25938e-07 0)
(2.99968 4.80623e-07 0)
(2.99934 1.02469e-06 0)
(2.99864 2.19102e-06 0)
(2.99721 4.70046e-06 0)
(2.99425 1.01185e-05 0)
(2.98815 2.18523e-05 0)
(2.97543 4.7331e-05 0)
(2.94851 0.000102813 0)
(2.88955 0.000224455 0)
(2.7496 0.000497934 0)
(2.34448 0.00121524 0)
(0.773942 0.00553575 0)
(-0.476347 0.0806925 0)
(-0.318336 0.15057 0)
(-0.0582194 0.221062 0)
(0.206065 0.302636 0)
(0.484694 0.355597 0)
(0.727706 -0.0883479 0)
(0.958139 -0.0725488 0)
(0.882651 0.929116 0)
(0.419744 0.973836 0)
(0.524338 0.921846 0)
(0.689684 0.454345 0)
(0.832064 -0.0467408 0)
(0.0468082 -0.614019 0)
(-1.06161 -0.208826 0)
(3 4.74039e-12 0)
(3 2.83222e-11 0)
(3 8.84972e-11 0)
(3 2.20673e-10 0)
(3 5.01103e-10 0)
(3 1.09382e-09 0)
(3 2.34637e-09 0)
(3 4.98864e-09 0)
(3 1.05463e-08 0)
(2.99999 2.22005e-08 0)
(2.99998 4.65776e-08 0)
(2.99996 9.74882e-08 0)
(2.99992 2.03774e-07 0)
(2.99984 4.25843e-07 0)
(2.99968 8.90672e-07 0)
(2.99934 1.8661e-06 0)
(2.99864 3.919e-06 0)
(2.99721 8.25262e-06 0)
(2.99425 1.74276e-05 0)
(2.98815 3.69083e-05 0)
(2.97544 7.84024e-05 0)
(2.94855 0.000167216 0)
(2.88963 0.000359382 0)
(2.74983 0.000787964 0)
(2.34558 0.00190095 0)
(0.790316 0.00788213 0)
(-0.451386 0.0950675 0)
(-0.297988 0.173629 0)
(-0.0369565 0.24774 0)
(0.221009 0.337631 0)
(0.506752 0.385536 0)
(0.724414 -0.334245 0)
(0.95571 -0.448001 0)
(0.646558 0.241412 0)
(0.292414 0.221595 0)
(0.242572 0.0437251 0)
(0.579822 0.297401 0)
(0.715023 -0.00123777 0)
(0.113223 -0.305775 0)
(-0.693055 -0.10222 0)
(3 8.68997e-12 0)
(3 5.17676e-11 0)
(3 1.60677e-10 0)
(3 3.9539e-10 0)
(3 8.82021e-10 0)
(3 1.88758e-09 0)
(3 3.9727e-09 0)
(3 8.30986e-09 0)
(3 1.73482e-08 0)
(2.99999 3.62002e-08 0)
(2.99998 7.55335e-08 0)
(2.99996 1.57604e-07 0)
(2.99992 3.28861e-07 0)
(2.99984 6.86363e-07 0)
(2.99968 1.43324e-06 0)
(2.99934 2.99549e-06 0)
(2.99864 6.26861e-06 0)
(2.99721 1.31392e-05 0)
(2.99426 2.75921e-05 0)
(2.98817 5.80682e-05 0)
(2.97547 0.00012254 0)
(2.94861 0.000259691 0)
(2.88977 0.000555139 0)
(2.75018 0.00121304 0)
(2.34709 0.00291082 0)
(0.809302 0.0111773 0)
(-0.422674 0.110339 0)
(-0.276034 0.197258 0)
(-0.0146288 0.275296 0)
(0.235284 0.369096 0)
(0.493483 0.408303 0)
(0.519021 0.197551 0)
(0.7841 -0.390813 0)
(0.471852 -0.0872892 0)
(0.0456797 -0.279357 0)
(0.167989 -0.190999 0)
(0.307023 -0.0427167 0)
(0.282389 -0.369053 0)
(-0.130061 -0.247487 0)
(-0.236157 -0.122551 0)
(3 1.41095e-11 0)
(3 8.30315e-11 0)
(3 2.54442e-10 0)
(3 6.1982e-10 0)
(3 1.36938e-09 0)
(3 2.90042e-09 0)
(3 6.03976e-09 0)
(3 1.25085e-08 0)
(3 2.58971e-08 0)
(2.99999 5.37092e-08 0)
(2.99998 1.11644e-07 0)
(2.99996 2.32564e-07 0)
(2.99992 4.85255e-07 0)
(2.99984 1.0137e-06 0)
(2.99968 2.11934e-06 0)
(2.99934 4.43351e-06 0)
(2.99864 9.27952e-06 0)
(2.99721 1.94345e-05 0)
(2.99427 4.0737e-05 0)
(2.98819 8.54989e-05 0)
(2.97551 0.00017983 0)
(2.9487 0.000379802 0)
(2.88997 0.000809571 0)
(2.75069 0.00176649 0)
(2.34919 0.00422646 0)
(0.831453 0.0153406 0)
(-0.390238 0.126095 0)
(-0.252267 0.221199 0)
(0.00632373 0.303922 0)
(0.249786 0.39197 0)
(0.467838 0.431319 0)
(0.510511 0.259034 0)
(0.817973 0.0172392 0)
(0.401781 0.061299 0)
(-0.0916187 0.0996974 0)
(0.0877194 0.117841 0)
(0.156172 0.0748912 0)
(0.187603 -0.0627089 0)
(0.138917 -0.199645 0)
(0.0263284 -0.336076 0)
(3 2.07871e-11 0)
(3 1.21002e-10 0)
(3 3.67285e-10 0)
(3 8.91458e-10 0)
(3 1.96704e-09 0)
(3 4.16106e-09 0)
(3 8.64699e-09 0)
(3 1.78583e-08 0)
(3 3.68594e-08 0)
(2.99999 7.62235e-08 0)
(2.99998 1.58078e-07 0)
(2.99996 3.28788e-07 0)
(2.99992 6.85535e-07 0)
(2.99984 1.43192e-06 0)
(2.99968 2.99416e-06 0)
(2.99934 6.26346e-06 0)
(2.99865 1.31018e-05 0)
(2.99722 2.73973e-05 0)
(2.99428 5.72737e-05 0)
(2.98821 0.000119743 0)
(2.97557 0.000250639 0)
(2.94882 0.000526507 0)
(2.89026 0.00111645 0)
(2.75141 0.00242614 0)
(2.35198 0.00577631 0)
(0.856753 0.0200831 0)
(-0.354239 0.141886 0)
(-0.226484 0.245083 0)
(0.0262483 0.333821 0)
(0.264832 0.417198 0)
(0.448636 0.454588 0)
(0.51063 0.326017 0)
(0.809955 0.167313 0)
(0.216205 0.100505 0)
(-0.178329 0.241758 0)
(-0.00322042 0.209858 0)
(0.0629141 0.167648 0)
(0.0981259 0.133342 0)
(0.0929698 -0.125982 0)
(-0.012312 -0.404136 0)
(3 2.85572e-11 0)
(3 1.65068e-10 0)
(3 4.98753e-10 0)
(3 1.21281e-09 0)
(3 2.68875e-09 0)
(3 5.71634e-09 0)
(3 1.19272e-08 0)
(3 2.46968e-08 0)
(3 5.10267e-08 0)
(2.99999 1.05481e-07 0)
(2.99998 2.18428e-07 0)
(2.99996 4.53275e-07 0)
(2.99992 9.42508e-07 0)
(2.99984 1.96287e-06 0)
(2.99968 4.09189e-06 0)
(2.99934 8.53308e-06 0)
(2.99865 1.77906e-05 0)
(2.99723 3.70685e-05 0)
(2.9943 7.71774e-05 0)
(2.98825 0.000160614 0)
(2.97565 0.000334468 0)
(2.94899 0.000698784 0)
(2.89064 0.0014739 0)
(2.75236 0.0031884 0)
(2.35547 0.00754903 0)
(0.884801 0.0253335 0)
(-0.314774 0.157971 0)
(-0.198481 0.269095 0)
(0.0463128 0.364562 0)
(0.277881 0.449647 0)
(0.439596 0.483806 0)
(0.517837 0.390807 0)
(0.816777 0.238273 0)
(0.37477 0.0212598 0)
(-0.148929 0.222538 0)
(-0.0245503 0.169413 0)
(0.023145 0.183721 0)
(0.0548703 0.0825524 0)
(0.0300356 -0.152225 0)
(-0.0684925 -0.424645 0)
(3 3.71441e-11 0)
(3 2.14386e-10 0)
(3 6.4854e-10 0)
(3 1.58611e-09 0)
(3 3.54367e-09 0)
(3 7.59399e-09 0)
(3 1.59566e-08 0)
(3 3.32198e-08 0)
(3 6.88708e-08 0)
(2.99999 1.42541e-07 0)
(2.99998 2.94885e-07 0)
(2.99996 6.10145e-07 0)
(2.99992 1.26295e-06 0)
(2.99984 2.61529e-06 0)
(2.99968 5.41743e-06 0)
(2.99935 1.12235e-05 0)
(2.99866 2.32514e-05 0)
(2.99724 4.81614e-05 0)
(2.99432 9.97454e-05 0)
(2.9883 0.00020663 0)
(2.97575 0.000428623 0)
(2.94921 0.000892645 0)
(2.89112 0.00187823 0)
(2.75355 0.00405664 0)
(2.35973 0.00957394 0)
(0.915594 0.0312017 0)
(-0.271772 0.17488 0)
(-0.168301 0.293808 0)
(0.0676272 0.39539 0)
(0.291111 0.487946 0)
(0.437594 0.528223 0)
(0.528319 0.465108 0)
(0.817054 0.324625 0)
(0.554273 -0.11432 0)
(-0.0942693 0.20716 0)
(-0.0305905 0.193856 0)
(-0.0147873 0.169279 0)
(-0.00288272 0.0144894 0)
(-0.0447999 -0.159595 0)
(-0.128871 -0.424542 0)
(3 4.67422e-11 0)
(3 2.70537e-10 0)
(3 8.22158e-10 0)
(3 2.02238e-09 0)
(3 4.54569e-09 0)
(3 9.79634e-09 0)
(3 2.06837e-08 0)
(3 4.32203e-08 0)
(3 8.9814e-08 0)
(2.99999 1.86047e-07 0)
(2.99998 3.8463e-07 0)
(2.99996 7.94131e-07 0)
(2.99992 1.6381e-06 0)
(2.99985 3.37678e-06 0)
(2.99968 6.95772e-06 0)
(2.99935 1.4332e-05 0)
(2.99866 2.95182e-05 0)
(2.99725 6.07996e-05 0)
(2.99435 0.000125277 0)
(2.98836 0.000258378 0)
(2.97588 0.000534066 0)
(2.94949 0.00110941 0)
(2.89173 0.002331 0)
(2.75503 0.00503301 0)
(2.36486 0.0118546 0)
(0.949315 0.0376729 0)
(-0.225263 0.192525 0)
(-0.136185 0.319231 0)
(0.0906902 0.426066 0)
(0.306372 0.525733 0)
(0.443532 0.582224 0)
(0.543344 0.559981 0)
(0.778475 0.430334 0)
(0.529445 -0.130678 0)
(-0.0971014 0.198479 0)
(-0.0128231 0.0640976 0)
(-0.0262633 0.114822 0)
(-0.0167465 -0.0168015 0)
(-0.0915908 -0.154484 0)
(-0.180579 -0.405666 0)
(3 5.7384e-11 0)
(3 3.34088e-10 0)
(3 1.02217e-09 0)
(3 2.52719e-09 0)
(3 5.70108e-09 0)
(3 1.23183e-08 0)
(3 2.60552e-08 0)
(3 5.45051e-08 0)
(3 1.13322e-07 0)
(2.99999 2.34733e-07 0)
(2.99998 4.85011e-07 0)
(2.99996 1.00033e-06 0)
(2.99993 2.06033e-06 0)
(2.99985 4.23894e-06 0)
(2.99968 8.71382e-06 0)
(2.99935 1.79012e-05 0)
(2.99867 3.67601e-05 0)
(2.99727 7.54757e-05 0)
(2.99439 0.000155008 0)
(2.98844 0.000318663 0)
(2.97604 0.000656691 0)
(2.94982 0.00136065 0)
(2.89246 0.00285358 0)
(2.75683 0.00615508 0)
(2.37088 0.0144557 0)
(0.985711 0.0448359 0)
(-0.175468 0.210585 0)
(-0.102239 0.34496 0)
(0.114587 0.456314 0)
(0.324812 0.559432 0)
(0.460483 0.636455 0)
(0.569017 0.665021 0)
(0.749045 0.601995 0)
(0.659498 0.0848389 0)
(-0.0040882 0.11755 0)
(0.0346316 -0.057419 0)
(0.111731 -0.00461286 0)
(0.026168 -0.0237442 0)
(-0.0978949 -0.0951945 0)
(-0.217592 -0.386237 0)
(3 6.95579e-11 0)
(3 4.07572e-10 0)
(3 1.25571e-09 0)
(3 3.11826e-09 0)
(3 7.05095e-09 0)
(3 1.52505e-08 0)
(3 3.2266e-08 0)
(3 6.74911e-08 0)
(3 1.40287e-07 0)
(2.99999 2.90502e-07 0)
(2.99998 6.00058e-07 0)
(2.99996 1.2372e-06 0)
(2.99993 2.54717e-06 0)
(2.99985 5.23783e-06 0)
(2.99969 1.07597e-05 0)
(2.99936 2.20843e-05 0)
(2.99868 4.52986e-05 0)
(2.99729 9.28795e-05 0)
(2.99443 0.000190449 0)
(2.98853 0.000390842 0)
(2.97623 0.000803986 0)
(2.95023 0.00166297 0)
(2.89335 0.00348244 0)
(2.75898 0.0075023 0)
(2.37789 0.017555 0)
(1.02437 0.0531295 0)
(-0.122848 0.229251 0)
(-0.0666753 0.370834 0)
(0.139021 0.485489 0)
(0.345445 0.588923 0)
(0.48848 0.679908 0)
(0.606022 0.741985 0)
(0.719003 0.706137 0)
(0.730211 0.482349 0)
(0.340601 -0.126669 0)
(0.119942 -0.101251 0)
(0.2016 -0.143289 0)
(0.131904 -0.0702497 0)
(-0.0712268 -0.0234171 0)
(-0.236665 -0.326733 0)
(3 8.49906e-11 0)
(3 4.99871e-10 0)
(3 1.54713e-09 0)
(3 3.85478e-09 0)
(3 8.73143e-09 0)
(3 1.88926e-08 0)
(3 3.99529e-08 0)
(3 8.34945e-08 0)
(3 1.73372e-07 0)
(2.99999 3.58659e-07 0)
(2.99998 7.40203e-07 0)
(2.99996 1.52505e-06 0)
(2.99993 3.13796e-06 0)
(2.99985 6.44966e-06 0)
(2.99969 1.32441e-05 0)
(2.99936 2.71748e-05 0)
(2.9987 5.57242e-05 0)
(2.99732 0.000114224 0)
(2.99449 0.000234144 0)
(2.98864 0.000480335 0)
(2.97646 0.000987624 0)
(2.95072 0.00204165 0)
(2.89443 0.00427239 0)
(2.76157 0.00919458 0)
(2.38604 0.0214253 0)
(1.06501 0.0632399 0)
(-0.0680656 0.248919 0)
(-0.0299215 0.396898 0)
(0.163424 0.513123 0)
(0.366648 0.611599 0)
(0.519265 0.707971 0)
(0.638808 0.764832 0)
(0.701254 0.724656 0)
(0.741544 0.40769 0)
(0.554889 -0.12861 0)
(0.286444 -0.13471 0)
(0.288055 -0.217509 0)
(0.2842 -0.188743 0)
(0.0100474 0.00234421 0)
(-0.233923 -0.226379 0)
(3 1.04923e-10 0)
(3 6.18225e-10 0)
(3 1.91942e-09 0)
(3 4.79833e-09 0)
(3 1.0893e-08 0)
(3 2.35899e-08 0)
(3 4.98732e-08 0)
(3 1.04123e-07 0)
(3 2.15914e-07 0)
(2.99999 4.46029e-07 0)
(2.99998 9.19308e-07 0)
(2.99996 1.89203e-06 0)
(2.99993 3.89006e-06 0)
(2.99985 7.9918e-06 0)
(2.99969 1.64079e-05 0)
(2.99937 3.36684e-05 0)
(2.99871 6.9055e-05 0)
(2.99735 0.000141593 0)
(2.99456 0.000290335 0)
(2.98878 0.000595756 0)
(2.97675 0.00122509 0)
(2.95133 0.00253238 0)
(2.89576 0.00529733 0)
(2.76473 0.0113891 0)
(2.39564 0.0264182 0)
(1.10731 0.0760309 0)
(-0.0122639 0.270079 0)
(0.00726698 0.423611 0)
(0.186871 0.539126 0)
(0.387014 0.624329 0)
(0.546709 0.713006 0)
(0.663007 0.755718 0)
(0.706816 0.718675 0)
(0.747131 0.448351 0)
(0.742543 0.235916 0)
(0.47176 -0.0944608 0)
(0.381482 -0.236074 0)
(0.407646 -0.232555 0)
(0.0885178 0.0124674 0)
(-0.244378 -0.143192 0)
(3 1.28619e-10 0)
(3 7.60857e-10 0)
(3 2.37546e-09 0)
(3 5.97034e-09 0)
(3 1.36096e-08 0)
(3 2.95532e-08 0)
(3 6.25801e-08 0)
(3 1.30761e-07 0)
(3 2.71253e-07 0)
(2.99999 5.60411e-07 0)
(2.99998 1.15505e-06 0)
(2.99997 2.37705e-06 0)
(2.99993 4.88688e-06 0)
(2.99985 1.0039e-05 0)
(2.9997 2.06098e-05 0)
(2.99938 4.22887e-05 0)
(2.99873 8.67331e-05 0)
(2.99739 0.000177838 0)
(2.99464 0.000364663 0)
(2.98895 0.000748311 0)
(2.97711 0.00153894 0)
(2.95208 0.00318143 0)
(2.8974 0.00665498 0)
(2.76862 0.0143006 0)
(2.40705 0.0330378 0)
(1.15084 0.0928522 0)
(0.0427787 0.294167 0)
(0.0436413 0.451628 0)
(0.207836 0.561787 0)
(0.402615 0.624279 0)
(0.571363 0.700355 0)
(0.684764 0.746296 0)
(0.725196 0.71888 0)
(0.76011 0.521736 0)
(0.73599 0.265111 0)
(0.576059 -0.0246748 0)
(0.463252 -0.221527 0)
(0.506559 -0.229591 0)
(0.128062 0.059896 0)
(-0.29909 -0.0744017 0)
(3 1.56863e-10 0)
(3 9.34301e-10 0)
(3 2.94159e-09 0)
(3 7.44592e-09 0)
(3 1.70652e-08 0)
(3 3.72042e-08 0)
(3 7.90125e-08 0)
(3 1.65465e-07 0)
(3 3.43843e-07 0)
(2.99999 7.11341e-07 0)
(2.99998 1.46757e-06 0)
(2.99997 3.02213e-06 0)
(2.99993 6.21505e-06 0)
(2.99986 1.27682e-05 0)
(2.9997 2.62099e-05 0)
(2.99939 5.37704e-05 0)
(2.99876 0.00011027 0)
(2.99745 0.000226114 0)
(2.99475 0.000463808 0)
(2.98917 0.000952391 0)
(2.97757 0.00196059 0)
(2.95304 0.0040583 0)
(2.89948 0.00850095 0)
(2.7735 0.0182849 0)
(2.42094 0.042145 0)
(1.19575 0.116172 0)
(0.0947185 0.325523 0)
(0.0765533 0.481646 0)
(0.224526 0.575401 0)
(0.414584 0.619375 0)
(0.595085 0.689963 0)
(0.707064 0.741272 0)
(0.747323 0.721119 0)
(0.771965 0.570981 0)
(0.739334 0.318611 0)
(0.628376 0.0292983 0)
(0.523046 -0.193232 0)
(0.590203 -0.268932 0)
(0.411224 -0.050848 0)
(-0.257605 -0.0317689 0)
(3 1.95087e-10 0)
(3 1.16847e-09 0)
(3 3.7031e-09 0)
(3 9.42119e-09 0)
(3 2.16656e-08 0)
(3 4.73289e-08 0)
(3 1.00621e-07 0)
(3 2.10809e-07 0)
(3 4.38112e-07 0)
(2.99999 9.06305e-07 0)
(2.99998 1.86963e-06 0)
(2.99997 3.85004e-06 0)
(2.99993 7.91887e-06 0)
(2.99986 1.6275e-05 0)
(2.99971 3.34321e-05 0)
(2.99941 6.86599e-05 0)
(2.99879 0.000141008 0)
(2.99751 0.000289676 0)
(2.99488 0.000595504 0)
(2.98945 0.00122596 0)
(2.97815 0.00253103 0)
(2.95427 0.00525541 0)
(2.90216 0.0110438 0)
(2.77982 0.0238225 0)
(2.43858 0.0549322 0)
(1.24495 0.149747 0)
(0.141049 0.377497 0)
(0.100049 0.50014 0)
(0.236735 0.57653 0)
(0.424475 0.612035 0)
(0.614241 0.680218 0)
(0.727337 0.732459 0)
(0.769112 0.717179 0)
(0.784631 0.596979 0)
(0.761528 0.369741 0)
(0.672643 0.093725 0)
(0.540116 -0.153052 0)
(0.570972 -0.246468 0)
(0.257596 0.171441 0)
(-0.39329 0.0450652 0)
(3 2.46519e-10 0)
(3 1.48013e-09 0)
(3 4.70225e-09 0)
(3 1.19739e-08 0)
(3 2.75232e-08 0)
(3 6.00393e-08 0)
(3 1.27397e-07 0)
(3 2.66374e-07 0)
(3 5.52642e-07 0)
(2.99999 1.1419e-06 0)
(2.99998 2.35457e-06 0)
(2.99997 4.85015e-06 0)
(2.99993 9.98651e-06 0)
(2.99986 2.05604e-05 0)
(2.99972 4.23342e-05 0)
(2.99943 8.71882e-05 0)
(2.99883 0.000179634 0)
(2.9976 0.000370309 0)
(2.99506 0.000764077 0)
(2.98982 0.00157906 0)
(2.97891 0.00327301 0)
(2.95589 0.00682376 0)
(2.90572 0.0143976 0)
(2.78823 0.0311714 0)
(2.46219 0.0720102 0)
(1.31094 0.194983 0)
(0.178095 0.466339 0)
(0.105538 0.501997 0)
(0.242627 0.563592 0)
(0.421739 0.591056 0)
(0.624233 0.659659 0)
(0.743222 0.714306 0)
(0.789838 0.707652 0)
(0.80345 0.611995 0)
(0.793321 0.41179 0)
(0.731774 0.16893 0)
(0.565483 -0.0775864 0)
(0.433991 -0.146884 0)
(-0.0507835 -0.469317 0)
(-0.593388 -0.0521715 0)
(3 2.99986e-10 0)
(3 1.80823e-09 0)
(3 5.76476e-09 0)
(3 1.46933e-08 0)
(3 3.37561e-08 0)
(3 7.35488e-08 0)
(3 1.55871e-07 0)
(3 3.25647e-07 0)
(3 6.75548e-07 0)
(2.99999 1.39691e-06 0)
(2.99999 2.88507e-06 0)
(2.99997 5.95729e-06 0)
(2.99994 1.23039e-05 0)
(2.99987 2.54224e-05 0)
(2.99973 5.25524e-05 0)
(2.99946 0.000108688 0)
(2.99888 0.000224904 0)
(2.99771 0.000465693 0)
(2.99529 0.000965217 0)
(2.99029 0.00200383 0)
(2.9799 0.0041725 0)
(2.95801 0.00873884 0)
(2.91039 0.0185193 0)
(2.79942 0.0402472 0)
(2.49398 0.0930746 0)
(1.41072 0.249849 0)
(0.216227 0.5889 0)
(0.087321 0.487339 0)
(0.239939 0.530267 0)
(0.420278 0.559841 0)
(0.626241 0.624567 0)
(0.754282 0.691556 0)
(0.810147 0.701977 0)
(0.827655 0.624694 0)
(0.82648 0.447386 0)
(0.762892 0.205543 0)
(0.578119 -0.00305967 0)
(-0.0223693 -0.192726 0)
(-0.371847 -0.693074 0)
(-0.61728 -0.103193 0)
(3 3.35519e-10 0)
(3 2.03997e-09 0)
(3 6.56222e-09 0)
(3 1.68251e-08 0)
(3 3.88152e-08 0)
(3 8.48602e-08 0)
(3 1.80419e-07 0)
(3 3.78168e-07 0)
(3 7.87232e-07 0)
(2.99999 1.63387e-06 0)
(2.99999 3.38748e-06 0)
(2.99997 7.02249e-06 0)
(2.99994 1.45626e-05 0)
(2.99988 3.0213e-05 0)
(2.99975 6.27171e-05 0)
(2.99949 0.000130267 0)
(2.99895 0.000270757 0)
(2.99784 0.000563238 0)
(2.99557 0.00117305 0)
(2.99089 0.00244755 0)
(2.98117 0.00512271 0)
(2.96072 0.0107836 0)
(2.91645 0.0229589 0)
(2.81408 0.050069 0)
(2.53606 0.115721 0)
(1.55965 0.306604 0)
(0.267598 0.734386 0)
(0.0466042 0.460163 0)
(0.230572 0.462007 0)
(0.419897 0.515532 0)
(0.624809 0.588857 0)
(0.763595 0.670895 0)
(0.828815 0.701701 0)
(0.852956 0.637828 0)
(0.856478 0.481487 0)
(0.792841 0.263061 0)
(0.606419 0.0866321 0)
(0.260799 0.127955 0)
(-0.345926 -0.239553 0)
(-0.645038 -0.113649 0)
(3 3.48428e-10 0)
(3 2.13423e-09 0)
(3 6.92738e-09 0)
(3 1.79076e-08 0)
(3 4.16066e-08 0)
(3 9.15166e-08 0)
(3 1.95571e-07 0)
(3 4.11664e-07 0)
(3 8.59891e-07 0)
(2.99999 1.78951e-06 0)
(2.99999 3.71824e-06 0)
(2.99997 7.72215e-06 0)
(2.99994 1.60399e-05 0)
(2.99989 3.33339e-05 0)
(2.99977 6.93273e-05 0)
(2.99953 0.000144329 0)
(2.99903 0.000300842 0)
(2.99801 0.000628037 0)
(2.99592 0.00131357 0)
(2.99161 0.00275396 0)
(2.9827 0.00579243 0)
(2.96404 0.0122459 0)
(2.92391 0.0261477 0)
(2.83234 0.0570659 0)
(2.58881 0.131346 0)
(1.76857 0.34038 0)
(0.356831 0.847229 0)
(0.036034 0.532723 0)
(0.215466 0.412346 0)
(0.425087 0.471182 0)
(0.624978 0.569495 0)
(0.770056 0.660446 0)
(0.844447 0.701908 0)
(0.876028 0.651215 0)
(0.88093 0.512205 0)
(0.821548 0.311796 0)
(0.675483 0.168579 0)
(0.195732 0.0994811 0)
(-0.552881 -0.071753 0)
(-0.544003 -0.168361 0)
(3 3.45408e-10 0)
(3 2.11058e-09 0)
(3 6.8437e-09 0)
(3 1.77142e-08 0)
(3 4.12267e-08 0)
(3 9.07784e-08 0)
(3 1.94e-07 0)
(3 4.07915e-07 0)
(3 8.50252e-07 0)
(2.99999 1.76415e-06 0)
(2.99999 3.65186e-06 0)
(2.99998 7.55134e-06 0)
(2.99995 1.56082e-05 0)
(2.9999 3.22595e-05 0)
(2.99979 6.66845e-05 0)
(2.99956 0.000137882 0)
(2.99911 0.000285201 0)
(2.99818 0.000590233 0)
(2.99628 0.00122252 0)
(2.99239 0.00253579 0)
(2.98436 0.00527428 0)
(2.96765 0.0110311 0)
(2.93203 0.023342 0)
(2.85226 0.0506491 0)
(2.64627 0.116405 0)
(2.00169 0.297274 0)
(0.532596 0.821097 0)
(0.105053 0.643703 0)
(0.212908 0.458114 0)
(0.423604 0.461252 0)
(0.62592 0.560509 0)
(0.772556 0.656304 0)
(0.855098 0.701889 0)
(0.894041 0.662845 0)
(0.89736 0.538488 0)
(0.841679 0.360133 0)
(0.71544 0.222535 0)
(0.346815 0.106339 0)
(-0.292122 0.0874706 0)
(-0.313453 -0.0698897 0)
(3 3.07162e-10 0)
(3 1.87015e-09 0)
(3 6.04257e-09 0)
(3 1.56025e-08 0)
(3 3.6239e-08 0)
(3 7.96035e-08 0)
(3 1.69563e-07 0)
(3 3.55007e-07 0)
(3 7.36056e-07 0)
(2.99999 1.51763e-06 0)
(2.99999 3.11881e-06 0)
(2.99998 6.39587e-06 0)
(2.99995 1.30963e-05 0)
(2.9999 2.67818e-05 0)
(2.9998 5.47004e-05 0)
(2.9996 0.000111575 0)
(2.99918 0.000227251 0)
(2.99832 0.000462138 0)
(2.99657 0.000938474 0)
(2.99297 0.00190456 0)
(2.98555 0.00387093 0)
(2.97015 0.00791566 0)
(2.9375 0.0164353 0)
(2.86537 0.0352785 0)
(2.684 0.0815879 0)
(2.14519 0.21336 0)
(0.732184 0.676548 0)
(0.150057 0.657242 0)
(0.228474 0.520089 0)
(0.428963 0.48788 0)
(0.629511 0.562622 0)
(0.774139 0.653072 0)
(0.862281 0.700811 0)
(0.906394 0.670836 0)
(0.908225 0.562161 0)
(0.857011 0.415482 0)
(0.742663 0.290642 0)
(0.548544 0.197327 0)
(-0.191772 0.171818 0)
(-0.236884 -0.0572203 0)
(3 2.4927e-10 0)
(3 1.5111e-09 0)
(3 4.8565e-09 0)
(3 1.24773e-08 0)
(3 2.88492e-08 0)
(3 6.30796e-08 0)
(3 1.33684e-07 0)
(3 2.78303e-07 0)
(3 5.73434e-07 0)
(2.99999 1.17441e-06 0)
(2.99999 2.39629e-06 0)
(2.99998 4.87707e-06 0)
(2.99996 9.90665e-06 0)
(2.99991 2.00882e-05 0)
(2.99982 4.06656e-05 0)
(2.99962 8.21825e-05 0)
(2.99923 0.000165802 0)
(2.99842 0.000333947 0)
(2.99676 0.000671662 0)
(2.99336 0.00134998 0)
(2.98636 0.00271635 0)
(2.97179 0.00549362 0)
(2.94096 0.0112631 0)
(2.87325 0.0238485 0)
(2.70659 0.0545405 0)
(2.22623 0.150416 0)
(0.896287 0.52906 0)
(0.191722 0.638524 0)
(0.249444 0.565317 0)
(0.435969 0.525582 0)
(0.634605 0.580419 0)
(0.775804 0.6581 0)
(0.866737 0.701126 0)
(0.913946 0.676748 0)
(0.915902 0.585115 0)
(0.870337 0.466255 0)
(0.770362 0.367725 0)
(0.634075 0.279476 0)
(-0.0789083 0.145532 0)
(-0.253574 0.0751131 0)
(3 2.00542e-10 0)
(3 1.20513e-09 0)
(3 3.83812e-09 0)
(3 9.79767e-09 0)
(3 2.25376e-08 0)
(3 4.90386e-08 0)
(3 1.03396e-07 0)
(3 2.14078e-07 0)
(3 4.38604e-07 0)
(3 8.93198e-07 0)
(2.99999 1.81263e-06 0)
(2.99998 3.67082e-06 0)
(2.99996 7.42361e-06 0)
(2.99991 1.49966e-05 0)
(2.99982 3.02644e-05 0)
(2.99964 6.10134e-05 0)
(2.99926 0.000122874 0)
(2.99849 0.000247204 0)
(2.9969 0.000496934 0)
(2.99364 0.000998776 0)
(2.98692 0.00201009 0)
(2.97293 0.00406403 0)
(2.94329 0.00831101 0)
(2.87823 0.0174529 0)
(2.72014 0.0388765 0)
(2.26758 0.108762 0)
(0.990035 0.401599 0)
(0.222273 0.59713 0)
(0.269307 0.587577 0)
(0.446024 0.561551 0)
(0.641959 0.606414 0)
(0.777524 0.671991 0)
(0.868565 0.704911 0)
(0.917674 0.681162 0)
(0.920623 0.603287 0)
(0.883007 0.506716 0)
(0.799225 0.43269 0)
(0.706604 0.36263 0)
(0.335267 0.303773 0)
(-0.202718 0.213068 0)
(3 1.52352e-10 0)
(3 9.18876e-10 0)
(3 2.94324e-09 0)
(3 7.56461e-09 0)
(3 1.75081e-08 0)
(3 3.82907e-08 0)
(3 8.10611e-08 0)
(3 1.68322e-07 0)
(3 3.4547e-07 0)
(3 7.04103e-07 0)
(2.99999 1.4291e-06 0)
(2.99998 2.89379e-06 0)
(2.99996 5.85215e-06 0)
(2.99992 1.18272e-05 0)
(2.99983 2.3895e-05 0)
(2.99965 4.82671e-05 0)
(2.99929 9.74867e-05 0)
(2.99854 0.000196893 0)
(2.99701 0.000397747 0)
(2.99387 0.000804126 0)
(2.98737 0.001629 0)
(2.97385 0.00331539 0)
(2.94522 0.00681641 0)
(2.8824 0.0143328 0)
(2.73156 0.0315362 0)
(2.30243 0.0847032 0)
(1.06218 0.303447 0)
(0.234331 0.556393 0)
(0.282622 0.602559 0)
(0.453913 0.596365 0)
(0.649903 0.632265 0)
(0.779559 0.68702 0)
(0.867754 0.709842 0)
(0.917417 0.68425 0)
(0.922606 0.615178 0)
(0.893755 0.539998 0)
(0.825082 0.478786 0)
(0.754164 0.429107 0)
(0.411908 0.370764 0)
(-0.242357 0.241005 0)
(3 1.17627e-10 0)
(3 7.19716e-10 0)
(3 2.34112e-09 0)
(3 6.08735e-09 0)
(3 1.42147e-08 0)
(3 3.13234e-08 0)
(3 6.6768e-08 0)
(3 1.39526e-07 0)
(3 2.88033e-07 0)
(3 5.90089e-07 0)
(2.99999 1.20315e-06 0)
(2.99998 2.44591e-06 0)
(2.99996 4.96371e-06 0)
(2.99992 1.00637e-05 0)
(2.99984 2.03946e-05 0)
(2.99966 4.13267e-05 0)
(2.99931 8.37572e-05 0)
(2.99859 0.000169829 0)
(2.99711 0.000344649 0)
(2.99405 0.000700467 0)
(2.98775 0.00142735 0)
(2.97463 0.00292245 0)
(2.94686 0.0060398 0)
(2.88595 0.0127314 0)
(2.74052 0.0279417 0)
(2.32758 0.0709171 0)
(1.10555 0.239057 0)
(0.241201 0.530064 0)
(0.292036 0.624296 0)
(0.460261 0.636895 0)
(0.656363 0.659558 0)
(0.781897 0.697519 0)
(0.865806 0.711268 0)
(0.91436 0.687845 0)
(0.922777 0.629232 0)
(0.901229 0.568821 0)
(0.841302 0.51328 0)
(0.774638 0.464179 0)
(0.385866 0.39086 0)
(-0.289548 0.256681 0)
(3 1.11151e-10 0)
(3 6.79983e-10 0)
(3 2.20441e-09 0)
(3 5.69347e-09 0)
(3 1.32075e-08 0)
(3 2.89547e-08 0)
(3 6.15135e-08 0)
(3 1.28342e-07 0)
(3 2.64925e-07 0)
(3 5.43335e-07 0)
(2.99999 1.10989e-06 0)
(2.99998 2.2616e-06 0)
(2.99996 4.60145e-06 0)
(2.99992 9.354e-06 0)
(2.99984 1.90075e-05 0)
(2.99967 3.86217e-05 0)
(2.99933 7.84956e-05 0)
(2.99863 0.000159622 0)
(2.99719 0.00032489 0)
(2.99423 0.000662267 0)
(2.98811 0.00135351 0)
(2.97537 0.00277954 0)
(2.94843 0.00576149 0)
(2.88942 0.0121727 0)
(2.74919 0.0267806 0)
(2.35374 0.065742 0)
(1.15425 0.207822 0)
(0.259248 0.521331 0)
(0.304422 0.655256 0)
(0.467613 0.685292 0)
(0.659513 0.692065 0)
(0.783033 0.705902 0)
(0.864433 0.709317 0)
(0.912014 0.690791 0)
(0.921572 0.646027 0)
(0.903917 0.593651 0)
(0.848463 0.542859 0)
(0.77541 0.49336 0)
(0.344586 0.406039 0)
(-0.321329 0.31587 0)
(3 1.22367e-10 0)
(3 7.3744e-10 0)
(3 2.34779e-09 0)
(3 5.96697e-09 0)
(3 1.36613e-08 0)
(3 2.96352e-08 0)
(3 6.24324e-08 0)
(3 1.29406e-07 0)
(3 2.65798e-07 0)
(3 5.43173e-07 0)
(2.99999 1.10687e-06 0)
(2.99998 2.25208e-06 0)
(2.99996 4.5785e-06 0)
(2.99992 9.30477e-06 0)
(2.99985 1.89084e-05 0)
(2.99968 3.8429e-05 0)
(2.99935 7.81277e-05 0)
(2.99867 0.000158924 0)
(2.99727 0.000323556 0)
(2.9944 0.000659673 0)
(2.98845 0.00134829 0)
(2.97609 0.00276838 0)
(2.94996 0.00573483 0)
(2.89282 0.012095 0)
(2.75766 0.0264853 0)
(2.37932 0.0638109 0)
(1.21325 0.191593 0)
(0.29098 0.520374 0)
(0.321237 0.686894 0)
(0.475268 0.733945 0)
(0.660299 0.72322 0)
(0.782432 0.713967 0)
(0.863786 0.709122 0)
(0.911182 0.691932 0)
(0.920246 0.659171 0)
(0.903318 0.61639 0)
(0.849118 0.571585 0)
(0.768018 0.52606 0)
(0.31359 0.443325 0)
(-0.345396 0.38477 0)
(3 1.31635e-10 0)
(3 7.87637e-10 0)
(3 2.49026e-09 0)
(3 6.30819e-09 0)
(3 1.44282e-08 0)
(3 3.13059e-08 0)
(3 6.59973e-08 0)
(3 1.36883e-07 0)
(3 2.81252e-07 0)
(3 5.74754e-07 0)
(2.99999 1.1709e-06 0)
(2.99998 2.38134e-06 0)
(2.99996 4.83906e-06 0)
(2.99993 9.83032e-06 0)
(2.99985 1.99702e-05 0)
(2.99969 4.05781e-05 0)
(2.99937 8.24821e-05 0)
(2.99871 0.000167745 0)
(2.99736 0.000341394 0)
(2.99457 0.000695626 0)