/*--------------------------------*- C++ -*----------------------------------*\
  =========                 |
  \\      /  F ield         | OpenFOAM: The Open Source CFD Toolbox
   \\    /   O peration     | Website:  https://openfoam.org
    \\  /    A nd           | Version:  6.0
     \\/     M anipulation  |
\*---------------------------------------------------------------------------*/
FoamFile
{
    version     2.0;
    format      ascii;
    class       volScalarField;
    location    "2.000578";
    object      p;
}
// * * * * * * * * * * * * * * * * * * * * * * * * * * * * * * * * * * * * * //

dimensions      [1 -1 -2 0 0 0 0];

internalField   nonuniform List<scalar> 
1200
(
1
1
1
1
1
1
1
1
1
1
4.1567
10.0261
10.9275
11.3025
11.4082
11.1865
11.0592
11.3377
11.7261
11.9787
1
1
1
1
1
1
1
1
1
1
4.17598
10.1708
10.6813
10.9296
11.2398
11.3989
11.5236
11.707
11.8408
11.7854
1
1
1
1
1
1
1
1
1
1
4.1672
10.2336
10.5103
10.6076
10.8194
11.3285
11.9597
12.0618
11.7868
11.6203
1
1
1
1
1
1
1
1
1
1
4.09429
10.1711
10.4754
10.4816
10.852
11.6325
12.0235
11.9611
11.6286
11.5501
1
1
1
1
1
1
1
1
1
1
3.97212
10.0035
10.4787
10.7919
11.3733
11.6796
11.6952
11.5475
11.4794
11.4696
1
1
1
1
1
1
1
1
1
1
3.83009
9.82303
10.6224
11.1983
11.4422
11.449
11.2341
11.1902
11.4028
11.7602
1
1
1
1
1
1
1
1
1
1
3.71898
9.74107
10.8103
11.1917
11.2852
11.0574
10.9587
11.0359
11.5952
12.4384
1
1
1
1
1
1
1
1
1
1
3.63755
9.83781
10.751
10.978
10.9486
10.8582
10.827
11.3051
12.1663
12.3213
1
1
1
1
1
1
1
1
1
1
3.51962
9.89567
10.7314
10.6449
10.6696
10.6467
11.0845
11.9943
12.1036
11.8923
1
1
1
1
1
1
1
1
1
1
3.35386
9.85842
10.5999
10.3984
10.3338
10.774
11.7996
12.1056
11.7681
11.2194
1
1
1
1
1
1
1
1
1
1
3.10382
9.62295
10.3147
10.1688
10.4959
11.4583
11.9082
11.8171
11.1005
10.8134
1
1
1
1
1
1
1
1
1
1
2.82781
9.24374
10.0728
10.3408
11.182
11.6267
11.5538
11.1701
10.6362
10.531
1
1
1
1
1
1
1
1
1
1
2.53936
8.86699
10.0199
10.9096
11.4137
11.4188
11.1339
10.4265
10.4018
10.5858
1
1
1
1
1
1
1
1
1
1
2.32222
8.54329
10.4976
11.0336
11.251
11.1461
10.3483
10.062
10.526
11.6263
1
1
1
1
1
1
1
1
1
1
2.18768
8.58932
10.7493
10.9267
10.9762
10.3678
9.94699
9.98498
10.9011
12.3
1
1
1
1
1
1
1
1
1
1
1.98617
8.59336
10.8376
10.7464
10.3524
9.86697
9.82629
10.2987
11.538
11.8216
1
1
1
1
1
1
1
1
1
1
1.68628
8.23063
10.7899
10.3801
9.82734
9.71083
10.185
11.3719
11.2732
10.7199
1
1
1
1
1
1
1
1
1
1
1.3872
7.72148
10.4989
9.96217
9.61571
10.134
11.3347
11.4177
10.7512
9.56654
1
1
1
1
1
1
1
1
1
1
1.11795
7.26286
10.2524
9.77989
10.0267
10.7215
11.2552
11.1497
10.0822
8.89175
1
1
1
1
1
1
1
1
1
1
1.01148
6.85188
10.0359
9.96498
10.2113
10.6436
10.9514
10.8484
9.51657
8.13598
1
1
1
1
1
1
1
1
1
1
1.00033
5.48666
9.6908
10.013
10.2897
10.3112
10.0105
9.51177
8.82506
7.02683
1
1
1
1
1
1
1
1
1
1
1
3.20348
8.95028
9.89094
9.83104
9.60258
9.21337
8.74847
8.21023
6.70981
1
1
1
1
1
1
1
1
1
1
1
1.2776
7.23935
9.69303
9.36909
9.19244
8.98562
8.51144
7.5077
6.16397
1
1
1
1
1
1
1
1
1
1
1
1.00509
4.38813
8.84819
9.01905
8.88487
8.51529
7.95627
7.06529
6.10594
1
1
1
1
1
1
1
1
1
1
1
0.999975
1.48514
7.15693
8.91862
8.58738
8.12597
7.60009
6.8937
6.10138
1
1
1
1
1
1
1
1
1
1
1
0.999995
1.01351
3.93856
8.11435
8.23456
7.82572
7.39243
6.78106
6.09583
1
1
1
1
1
1
1
1
1
1
1
0.999999
1.00001
1.37244
5.80263
8.12883
7.71849
7.29407
6.73286
6.14229
1
1
1
1
1
1
1
1
1
1
1
1
1
1.00722
2.16698
6.65559
7.63878
7.17659
6.70248
6.18642
1
1
1
1
1
1
1
1
1
1
1
1
1
1.00002
1.06588
3.22437
6.86829
7.22957
6.72884
6.25362
1
1
1
1
1
1
1
1
1
1
1
1
1
1
1.0005
1.23679
4.07279
6.87133
6.7989
6.32598
1
1
1
1
1
1
1
1
1
1
1
1
1
1
1
1.00384
1.48448
4.54245
6.52973
6.46318
1
1
1
1
1
1
1
1
1
1
1
1
1
1
1
1.00001
1.01369
1.70386
4.60124
6.24218
1
1
1
1
1
1
1
1
1
1
1
1
1
1
1
1
1.00006
1.02771
1.80679
4.7099
1
1
1
1
1
1
1
1
1
1
1
1
1
1
1
1
1
1.0002
1.03536
2.08214
1
1
1
1
1
1
1
1
1
1
1
1
1
1
1
1
1
1
1.00025
1.06649
1
1
1
1
1
1
1
1
1
1
1
1
1
1
1
1
1
1
1
1.00042
1
1
1
1
1
1
1
1
1
1
1
1
1
1
1
1
1
1
1
1
1
1
1
1
1
1
1
1
1
1
1
1
1
1
1
1
1
1
1
1
1
1
1
1
1
1
1
1
1
1
1
1
1
1
1
1
1
1
1
1
1
1
1
1
1
1
1
1
1
1
1
1
1
1
1
1
1
1
1
1
1.16876
0.929875
1.0294
1.17857
1.25062
1.32283
1.32313
1.31651
1.83658
4.03916
5.08756
4.98857
4.44803
4.02803
3.68042
3.38294
3.10295
2.84176
2.60751
2.25805
2.6721
1.27518
1.04198
1.12804
1.25093
1.3084
1.29309
1.33488
2.00398
3.5711
4.79688
4.79997
4.39346
4.0056
3.67083
3.36536
3.08435
2.83288
2.60885
2.26141
3.30417
1.62671
1.06134
1.13077
1.26425
1.31146
1.28071
1.45104
2.22317
3.05275
4.34615
4.81146
4.46289
4.03581
3.66252
3.33893
3.05214
2.81335
2.60713
2.26142
3.83894
2.14179
1.24989
1.18501
1.19839
1.25031
1.2779
1.72472
2.61618
2.74881
3.49652
4.27654
4.34834
4.02101
3.6377
3.32284
3.04798
2.80048
2.59379
2.26061
4.23412
2.5491
1.5091
1.27377
1.16075
1.18424
1.29885
2.10565
2.9543
2.81062
2.85309
3.47713
3.9861
3.94159
3.64758
3.32852
3.04459
2.78249
2.56303
2.23221
4.5349
2.87949
1.84738
1.45828
1.1914
1.16675
1.41864
2.46266
2.99071
2.85726
2.58221
2.64997
3.27269
3.688
3.59491
3.33854
3.05537
2.77692
2.54577
2.21936
4.801
3.14038
2.17511
1.6525
1.22793
1.19894
1.71493
2.74181
2.91525
2.78095
2.48128
2.25621
2.48237
3.11464
3.40804
3.29164
3.05933
2.78685
2.53787
2.20626
5.00902
3.35146
2.48942
1.85578
1.34972
1.36255
2.17778
2.8455
2.81466
2.63411
2.37757
2.1712
2.08262
2.42125
3.01904
3.12327
3.00319
2.77368
2.53414
2.20869
5.19628
3.54742
2.79712
2.02639
1.51582
1.68779
2.68045
2.82417
2.70447
2.51189
2.29618
2.12469
2.00746
1.97908
2.36559
2.871
2.86364
2.71906
2.51174
2.21534
5.30588
3.77963
3.05362
2.17454
1.70726
2.33754
3.18821
2.95439
2.65194
2.41723
2.22952
2.12024
1.96189
1.82392
1.8618
2.25368
2.65013
2.61254
2.48243
2.20994
5.40269
4.05161
3.24229
2.31797
2.02216
3.20696
3.4893
3.13361
2.70758
2.41061
2.19728
2.03874
1.92805
1.77359
1.64618
1.71225
2.08522
2.40064
2.38732
2.20991
5.55494
4.36663
3.34254
2.4722
2.6914
4.07243
3.7553
3.23525
2.75103
2.40591
2.1427
1.9621
1.8282
1.69655
1.55847
1.45574
1.54219
1.88591
2.19224
2.12159
5.60741
4.66909
3.37122
2.71452
3.81507
4.64216
4.06825
3.37913
2.83292
2.43081
2.12394
1.91331
1.75046
1.61456
1.48561
1.37302
1.29535
1.39119
1.74965
1.93298
5.3795
4.87551
3.42982
3.21421
5.20507
5.01735
4.28439
3.49427
2.90015
2.45894
2.11942
1.88341
1.69829
1.5484
1.42265
1.31715
1.22421
1.16738
1.26783
1.62686
4.76646
4.58032
3.56754
4.4153
6.26348
5.37831
4.42949
3.61003
2.98827
2.51245
2.15027
1.88379
1.67464
1.50041
1.36883
1.27435
1.18013
1.10327
1.07153
1.2774
3.41428
4.27177
3.81885
6.35352
6.90765
5.68428
4.5454
3.69656
3.06328
2.57164
2.19857
1.89978
1.66349
1.46836
1.34801
1.24244
1.15874
1.07885
1.01994
1.03932
2.53963
3.98905
4.93995
7.94881
7.16808
5.82565
4.63469
3.77202
3.12872
2.62075
2.2354
1.92523
1.66615
1.45911
1.31071
1.19473
1.10985
1.03979
0.989823
0.951689
1.6436
3.48957
6.91567
9.31452
7.415
5.91709
4.71339
3.84309
3.19158
2.67818
2.28447
1.96596
1.68099
1.47375
1.30699
1.18368
1.09309
1.01949
0.968073
0.903044
1.12702
2.9653
8.58278
9.65972
7.61855
5.92826
4.73247
3.8749
3.21114
2.69904
2.28489
1.9578
1.74781
1.55368
1.37227
1.22364
1.10952
1.02064
0.960056
0.883578
1.00267
3.6866
10.6385
10.3778
7.85117
5.89333
4.71589
3.8933
3.24657
2.72157
2.30315
1.98167
1.70302
1.49695
1.31916
1.17548
1.06426
0.980343
0.922469
0.85822
)
;

boundaryField
{
    inlet
    {
        type            fixedValue;
        value           uniform 1;
    }
    outlet
    {
        type            zeroGradient;
    }
    top
    {
        type            symmetryPlane;
    }
    bottom
    {
        type            symmetryPlane;
    }
    step
    {
        type            zeroGradient;
    }
    defaultFaces
    {
        type            empty;
    }
}


// ************************************************************************* //
