/*--------------------------------*- C++ -*----------------------------------*\
  =========                 |
  \\      /  F ield         | OpenFOAM: The Open Source CFD Toolbox
   \\    /   O peration     | Website:  https://openfoam.org
    \\  /    A nd           | Version:  6.0
     \\/     M anipulation  |
\*---------------------------------------------------------------------------*/
FoamFile
{
    version     2.0;
    format      ascii;
    class       volScalarField;
    location    "2.000578";
    object      rho;
}
// * * * * * * * * * * * * * * * * * * * * * * * * * * * * * * * * * * * * * //

dimensions      [1 -3 0 0 0 0 0];

internalField   nonuniform List<scalar> 
1200
(
1.39997
1.39997
1.39997
1.39997
1.39997
1.39997
1.39997
1.39997
1.39997
1.39997
2.98828
5.25
5.55139
5.67886
5.71071
5.62481
5.57208
5.66383
5.7957
5.88198
1.39997
1.39997
1.39997
1.39997
1.39997
1.39997
1.39997
1.39997
1.39997
1.39997
2.99588
5.30393
5.46133
5.54289
5.64903
5.70046
5.7383
5.79542
5.83668
5.81475
1.39997
1.39997
1.39997
1.39997
1.39997
1.39997
1.39997
1.39997
1.39997
1.39997
2.99069
5.32593
5.39549
5.42267
5.49576
5.67445
5.89236
5.92164
5.81821
5.75672
1.39997
1.39997
1.39997
1.39997
1.39997
1.39997
1.39997
1.39997
1.39997
1.39997
2.95617
5.29972
5.37981
5.37397
5.50599
5.78211
5.91506
5.8869
5.76281
5.73251
1.39997
1.39997
1.39997
1.39997
1.39997
1.39997
1.39997
1.39997
1.39997
1.39997
2.90104
5.23471
5.37779
5.48445
5.69151
5.7985
5.79969
5.74082
5.71065
5.70494
1.39997
1.39997
1.39997
1.39997
1.39997
1.39997
1.39997
1.39997
1.39997
1.39997
2.83678
5.16528
5.42589
5.62863
5.71508
5.71584
5.63523
5.61365
5.68381
5.80882
1.39997
1.39997
1.39997
1.39997
1.39997
1.39997
1.39997
1.39997
1.39997
1.39997
2.78386
5.13388
5.49231
5.62572
5.6578
5.57486
5.53659
5.55955
5.75409
6.04668
1.39997
1.39997
1.39997
1.39997
1.39997
1.39997
1.39997
1.39997
1.39997
1.39997
2.74376
5.17305
5.47189
5.54897
5.53657
5.50348
5.48999
5.65821
5.95624
6.00763
1.39997
1.39997
1.39997
1.39997
1.39997
1.39997
1.39997
1.39997
1.39997
1.39997
2.68902
5.20347
5.46915
5.43068
5.43732
5.42786
5.58563
5.90292
5.93582
5.85855
1.39997
1.39997
1.39997
1.39997
1.39997
1.39997
1.39997
1.39997
1.39997
1.39997
2.61298
5.20596
5.42826
5.34513
5.31726
5.47841
5.84196
5.94453
5.81895
5.61964
1.39997
1.39997
1.39997
1.39997
1.39997
1.39997
1.39997
1.39997
1.39997
1.39997
2.49882
5.13568
5.33212
5.26511
5.38143
5.72734
5.88369
5.84655
5.58134
5.4748
1.39997
1.39997
1.39997
1.39997
1.39997
1.39997
1.39997
1.39997
1.39997
1.39997
2.37202
5.00345
5.24902
5.33488
5.63724
5.79258
5.764
5.61758
5.41476
5.37413
1.39997
1.39997
1.39997
1.39997
1.39997
1.39997
1.39997
1.39997
1.39997
1.39997
2.23664
4.86684
5.23537
5.55053
5.72623
5.72627
5.61778
5.34957
5.33129
5.39707
1.39997
1.39997
1.39997
1.39997
1.39997
1.39997
1.39997
1.39997
1.39997
1.39997
2.12588
4.74463
5.41946
5.60234
5.67677
5.63453
5.33388
5.21772
5.37815
5.76892
1.39997
1.39997
1.39997
1.39997
1.39997
1.39997
1.39997
1.39997
1.39997
1.39997
2.05262
4.7654
5.51893
5.57587
5.58643
5.35267
5.18862
5.19266
5.51686
6.0079
1.39997
1.39997
1.39997
1.39997
1.39997
1.39997
1.39997
1.39997
1.39997
1.39997
1.95453
4.79068
5.56402
5.52339
5.36251
5.17132
5.14722
5.31564
5.74656
5.84472
1.39997
1.39997
1.39997
1.39997
1.39997
1.39997
1.39997
1.39997
1.39997
1.39997
1.81687
4.70897
5.57192
5.40158
5.17237
5.11728
5.28726
5.70459
5.65815
5.45198
1.39997
1.39997
1.39997
1.39997
1.39997
1.39997
1.39997
1.39997
1.39997
1.39997
1.66744
4.57815
5.49234
5.25786
5.10246
5.27774
5.70763
5.72494
5.47101
5.02784
1.39997
1.39997
1.39997
1.39997
1.39997
1.39997
1.39997
1.39997
1.39997
1.39997
1.49931
4.41515
5.42383
5.1984
5.2662
5.50116
5.68358
5.63056
5.22057
4.7651
1.39997
1.39997
1.39997
1.39997
1.39997
1.39997
1.39997
1.39997
1.39997
1.39997
1.41071
4.20565
5.34654
5.27395
5.33882
5.48227
5.57913
5.51651
4.99708
4.42272
1.39997
1.39997
1.39997
1.39997
1.39997
1.39997
1.39997
1.39997
1.39997
1.39997
1.40027
3.58865
5.19325
5.29074
5.37749
5.37337
5.23804
5.01951
4.72041
3.85128
1.39997
1.39997
1.39997
1.39997
1.39997
1.39997
1.39997
1.39997
1.39997
1.39997
1.39997
2.57729
4.95444
5.25889
5.22433
5.11842
4.95006
4.74834
4.50165
3.78873
1.39997
1.39997
1.39997
1.39997
1.39997
1.39997
1.39997
1.39997
1.39997
1.39997
1.39997
1.59805
4.39934
5.23292
5.08126
4.98737
4.88509
4.67734
4.25133
3.65453
1.39997
1.39997
1.39997
1.39997
1.39997
1.39997
1.39997
1.39997
1.39997
1.39997
1.39997
1.404
3.17261
4.9812
4.96804
4.90369
4.73422
4.48751
4.10286
3.67507
1.39997
1.39997
1.39997
1.39997
1.39997
1.39997
1.39997
1.39997
1.39997
1.39997
1.39997
1.39994
1.73196
4.45201
5.00389
4.84751
4.63025
4.38654
4.06753
3.70619
1.39997
1.39997
1.39997
1.39997
1.39997
1.39997
1.39997
1.39997
1.39997
1.39997
1.39997
1.39996
1.4109
3.02229
4.79594
4.75791
4.55982
4.35013
4.06548
3.74365
1.39997
1.39997
1.39997
1.39997
1.39997
1.39997
1.39997
1.39997
1.39997
1.39997
1.39997
1.39997
1.39998
1.66399
3.91108
4.78489
4.58665
4.37608
4.10309
3.81397
1.39997
1.39997
1.39997
1.39997
1.39997
1.39997
1.39997
1.39997
1.39997
1.39997
1.39997
1.39997
1.39997
1.40595
2.15305
4.33188
4.62205
4.4011
4.16082
3.89698
1.39997
1.39997
1.39997
1.39997
1.39997
1.39997
1.39997
1.39997
1.39997
1.39997
1.39997
1.39997
1.39997
1.39999
1.45307
2.73921
4.45155
4.4811
4.24148
3.99666
1.39997
1.39997
1.39997
1.39997
1.39997
1.39997
1.39997
1.39997
1.39997
1.39997
1.39997
1.39997
1.39997
1.39997
1.40043
1.57878
3.20037
4.42225
4.35096
4.10124
1.39997
1.39997
1.39997
1.39997
1.39997
1.39997
1.39997
1.39997
1.39997
1.39997
1.39997
1.39997
1.39997
1.39997
1.39997
1.40333
1.75028
3.43869
4.30591
4.24088
1.39997
1.39997
1.39997
1.39997
1.39997
1.39997
1.39997
1.39997
1.39997
1.39997
1.39997
1.39997
1.39997
1.39997
1.39997
1.39998
1.41171
1.89488
3.5024
4.20111
1.39997
1.39997
1.39997
1.39997
1.39997
1.39997
1.39997
1.39997
1.39997
1.39997
1.39997
1.39997
1.39997
1.39997
1.39997
1.39997
1.40003
1.4236
1.97234
3.54411
1.39997
1.39997
1.39997
1.39997
1.39997
1.39997
1.39997
1.39997
1.39997
1.39997
1.39997
1.39997
1.39997
1.39997
1.39997
1.39997
1.39997
1.40016
1.43006
2.12126
1.39997
1.39997
1.39997
1.39997
1.39997
1.39997
1.39997
1.39997
1.39997
1.39997
1.39997
1.39997
1.39997
1.39997
1.39997
1.39997
1.39997
1.39997
1.40021
1.4544
1.39997
1.39997
1.39997
1.39997
1.39997
1.39997
1.39997
1.39997
1.39997
1.39997
1.39997
1.39997
1.39997
1.39997
1.39997
1.39997
1.39997
1.39997
1.39997
1.40035
1.39997
1.39997
1.39997
1.39997
1.39997
1.39997
1.39997
1.39997
1.39997
1.39997
1.39997
1.39997
1.39997
1.39997
1.39997
1.39997
1.39997
1.39997
1.39997
1.39997
1.39997
1.39997
1.39997
1.39997
1.39997
1.39997
1.39997
1.39997
1.39997
1.39997
1.39997
1.39997
1.39997
1.39997
1.39997
1.39997
1.39997
1.39997
1.39997
1.39997
1.39997
1.39997
1.39997
1.39997
1.39997
1.39997
1.39997
1.39997
1.39997
1.39997
1.39997
1.39997
1.39997
1.39997
1.39997
1.39997
1.39997
1.39997
1.39997
1.39997
1.39997
1.39997
1.39997
1.39997
1.39997
1.39997
1.39997
1.39997
1.39997
1.39997
1.39997
1.39997
1.39997
1.39997
1.39997
1.39997
1.39997
1.39997
1.39997
1.39997
0.92597
0.761349
0.827588
0.91945
0.953529
0.991047
0.99287
0.996286
1.26932
2.23676
2.65792
2.6466
2.47298
2.32146
2.18294
2.05637
1.93225
1.81405
1.70766
1.54393
1.78856
1.00688
0.873429
0.922976
0.985728
1.0097
1.00017
1.02708
1.38847
2.13676
2.63205
2.6555
2.51011
2.35407
2.21108
2.07542
1.94648
1.82897
1.72422
1.55717
2.25291
1.29929
0.94417
0.986004
1.05998
1.07273
1.04968
1.14767
1.58107
2.04438
2.63425
2.82587
2.66715
2.46931
2.29176
2.13549
1.99354
1.87336
1.76979
1.59245
2.59902
1.67602
1.12462
1.07578
1.07937
1.10222
1.11423
1.37316
1.87661
1.9772
2.3765
2.74818
2.74759
2.58243
2.38759
2.22469
2.07851
1.945
1.83298
1.64888
2.838
1.95403
1.33356
1.17561
1.08849
1.10122
1.17147
1.63461
2.11178
2.05609
2.10441
2.43388
2.68008
2.6342
2.47983
2.31257
2.15895
2.01341
1.8894
1.69704
3.0127
2.16093
1.56838
1.31953
1.129
1.10948
1.27524
1.85263
2.16935
2.11457
1.98736
2.03308
2.36904
2.57424
2.51858
2.37802
2.22588
2.07181
1.93984
1.7457
3.17009
2.31844
1.77676
1.45439
1.16789
1.14505
1.47163
2.03073
2.15867
2.10004
1.95265
1.83913
1.97219
2.32399
2.47154
2.40399
2.27491
2.12294
1.98045
1.7819
3.31245
2.45169
1.96998
1.58919
1.26019
1.26879
1.7397
2.12199
2.11889
2.04146
1.9157
1.80866
1.7694
1.97342
2.3102
2.35936
2.28784
2.15428
2.01459
1.81815
3.45289
2.58407
2.16074
1.70566
1.37884
1.48337
2.02677
2.13283
2.08227
1.99516
1.89059
1.80225
1.74243
1.73854
1.97492
2.26619
2.25155
2.16223
2.03661
1.85369
3.56115
2.7409
2.32791
1.81272
1.51323
1.86516
2.3298
2.2203
2.07456
1.9645
1.87356
1.82168
1.73525
1.65909
1.69425
1.94317
2.17459
2.14239
2.05666
1.88356
3.66961
2.92387
2.46335
1.92008
1.72392
2.33802
2.51891
2.34707
2.13445
1.98512
1.87555
1.79202
1.73504
1.64669
1.57513
1.62609
1.87232
2.06302
2.0398
1.9204
3.81125
3.13744
2.55303
2.02914
2.13685
2.82515
2.68463
2.43672
2.18995
2.00694
1.86364
1.76549
1.69235
1.61703
1.53469
1.47645
1.54133
1.77713
1.96382
1.9049
3.89354
3.36298
2.61625
2.19592
2.74185
3.15282
2.88912
2.55105
2.26665
2.04859
1.87687
1.75851
1.66476
1.58432
1.5055
1.43566
1.38927
1.46138
1.71366
1.81906
3.81555
3.52529
2.70772
2.51779
3.44566
3.37711
3.04273
2.65074
2.33853
2.09752
1.9044
1.7666
1.65507
1.56177
1.48107
1.41301
1.3513
1.31241
1.38958
1.6368
3.4635
3.37139
2.80215
3.18426
4.0073
3.61065
3.16286
2.75471
2.42966
2.1691
1.9602
1.79867
1.66613
1.55069
1.46035
1.39649
1.3296
1.27267
1.25
1.40365
2.7311
3.19524
2.94424
4.09399
4.37086
3.81909
3.2812
2.85736
2.52389
2.24963
2.02948
1.84115
1.68346
1.54678
1.46124
1.38417
1.32227
1.2603
1.21389
1.2284
2.39404
3.08433
3.53226
4.88035
4.56966
3.97473
3.40646
2.9661
2.61704
2.32306
2.08739
1.88482
1.70466
1.55309
1.44277
1.35399
1.28759
1.23116
1.19066
1.16
1.95425
2.95754
4.5485
5.61766
4.8069
4.12321
3.52791
3.06663
2.69982
2.39272
2.14329
1.93032
1.72886
1.57488
1.44655
1.34863
1.27524
1.21487
1.17294
1.11886
1.5232
2.79063
5.58019
5.95073
5.01869
4.20276
3.58954
3.12162
2.7371
2.42411
2.15577
1.93264
1.78267
1.63937
1.50016
1.38193
1.28912
1.21628
1.16691
1.10239
1.40256
3.30255
6.66727
6.38099
5.17022
4.20793
3.59734
3.14419
2.76645
2.44373
2.17198
1.95178
1.75097
1.59703
1.45926
1.34379
1.25214
1.18254
1.13471
1.07996
)
;

boundaryField
{
    inlet
    {
        type            calculated;
        value           uniform 1.39997;
    }
    outlet
    {
        type            calculated;
        value           nonuniform List<scalar> 
20
(
1.54456
1.55791
1.59331
1.6494
1.69754
1.74621
1.78246
1.81859
1.8534
1.8833
1.92099
1.90701
1.82133
1.64098
1.4076
1.2303
1.16067
1.11948
1.10313
1.08077
)
;
    }
    top
    {
        type            symmetryPlane;
    }
    bottom
    {
        type            symmetryPlane;
    }
    step
    {
        type            calculated;
        value           nonuniform List<scalar> 
40
(
5.88198
5.81475
5.75672
5.73251
5.70494
5.80882
6.04668
6.00763
5.85855
5.61964
5.4748
5.37413
5.39707
5.76892
6.0079
5.84472
5.45198
5.02784
4.7651
4.42272
0.92597
0.761349
0.827588
0.91945
0.953529
0.991047
0.99287
0.996286
1.26932
2.23676
2.65792
2.6466
2.47298
2.32146
2.18294
2.05637
1.93225
1.81405
1.70766
1.54393
)
;
    }
    defaultFaces
    {
        type            empty;
    }
}


// ************************************************************************* //
