/*--------------------------------*- C++ -*----------------------------------*\
  =========                 |
  \\      /  F ield         | OpenFOAM: The Open Source CFD Toolbox
   \\    /   O peration     | Website:  https://openfoam.org
    \\  /    A nd           | Version:  6.0
     \\/     M anipulation  |
\*---------------------------------------------------------------------------*/
FoamFile
{
    version     2.0;
    format      ascii;
    class       volScalarField;
    location    "2.000578";
    object      T;
}
// * * * * * * * * * * * * * * * * * * * * * * * * * * * * * * * * * * * * * //

dimensions      [0 0 0 1 0 0 0];

internalField   nonuniform List<scalar> 
1200
(
1
1
1
1
1
1
1
1
1
1
1.94736
2.67355
2.75573
2.78632
2.79671
2.78423
2.77859
2.80243
2.83247
2.85104
1
1
1
1
1
1
1
1
1
1
1.95143
2.68457
2.73808
2.76049
2.7855
2.79945
2.81139
2.828
2.8401
2.83746
1
1
1
1
1
1
1
1
1
1
1.9507
2.68998
2.72712
2.73855
2.7561
2.79491
2.84151
2.8516
2.83613
2.82593
1
1
1
1
1
1
1
1
1
1
1.93895
2.6868
2.72597
2.73056
2.75926
2.81648
2.84571
2.84447
2.82496
2.82073
1
1
1
1
1
1
1
1
1
1
1.91684
2.67534
2.72787
2.75477
2.79754
2.81988
2.82306
2.81601
2.81419
2.8146
1
1
1
1
1
1
1
1
1
1
1.89017
2.66238
2.74074
2.78526
2.80288
2.80419
2.79091
2.79069
2.80859
2.83428
1
1
1
1
1
1
1
1
1
1
1.87023
2.65631
2.75552
2.78507
2.79243
2.77676
2.77099
2.77899
2.82111
2.87983
1
1
1
1
1
1
1
1
1
1
1.85601
2.66238
2.75062
2.76967
2.76845
2.7621
2.76092
2.79713
2.8596
2.87125
1
1
1
1
1
1
1
1
1
1
1.8324
2.66238
2.74697
2.74413
2.74714
2.74601
2.77819
2.84464
2.85465
2.8418
1
1
1
1
1
1
1
1
1
1
1.79691
2.65109
2.73376
2.72349
2.72076
2.75322
2.82766
2.85095
2.83125
2.79498
1
1
1
1
1
1
1
1
1
1
1.73892
2.62318
2.70817
2.70385
2.73048
2.80082
2.83344
2.82964
2.78433
2.7651
1
1
1
1
1
1
1
1
1
1
1.66898
2.58641
2.68653
2.71361
2.77697
2.80999
2.80621
2.78372
2.74996
2.74334
1
1
1
1
1
1
1
1
1
1
1.58945
2.55063
2.67939
2.75164
2.79047
2.7917
2.77461
2.72859
2.73145
2.74591
1
1
1
1
1
1
1
1
1
1
1.52927
2.52082
2.71176
2.75719
2.77465
2.76938
2.71608
2.69974
2.74
2.82141
1
1
1
1
1
1
1
1
1
1
1.49208
2.52335
2.72675
2.74343
2.75065
2.71165
2.68385
2.69201
2.76629
2.86615
1
1
1
1
1
1
1
1
1
1
1.42263
2.51122
2.72686
2.72381
2.70265
2.67116
2.67261
2.71235
2.81087
2.83158
1
1
1
1
1
1
1
1
1
1
1.29934
2.44695
2.71099
2.69028
2.6599
2.65666
2.69679
2.7908
2.78927
2.75269
1
1
1
1
1
1
1
1
1
1
1.16468
2.36118
2.67612
2.65255
2.63827
2.68813
2.78018
2.79206
2.75111
2.66374
1
1
1
1
1
1
1
1
1
1
1.04387
2.30293
2.64628
2.6338
2.66551
2.72846
2.77236
2.77225
2.70369
2.61236
1
1
1
1
1
1
1
1
1
1
1.00378
2.28084
2.62787
2.6452
2.67764
2.71797
2.74802
2.75308
2.66614
2.57536
1
1
1
1
1
1
1
1
1
1
1.00012
2.1404
2.61239
2.6495
2.67881
2.68646
2.6755
2.65288
2.61732
2.55431
1
1
1
1
1
1
1
1
1
1
1
1.74011
2.52907
2.63307
2.63443
2.62646
2.60571
2.57934
2.5533
2.47933
1
1
1
1
1
1
1
1
1
1
1
1.11924
2.30372
2.59319
2.58133
2.58034
2.5751
2.54755
2.4723
2.36128
1
1
1
1
1
1
1
1
1
1
1
1.00221
1.93634
2.48679
2.54152
2.53657
2.51808
2.48212
2.4108
2.32597
1
1
1
1
1
1
1
1
1
1
1
0.999994
1.20046
2.25055
2.49522
2.48005
2.45691
2.42558
2.37268
2.30472
1
1
1
1
1
1
1
1
1
1
1
0.999999
1.00566
1.8244
2.36864
2.42294
2.40267
2.37905
2.33509
2.27959
1
1
1
1
1
1
1
1
1
1
1
1
1.00001
1.15468
2.07705
2.37834
2.35589
2.33348
2.29725
2.25461
1
1
1
1
1
1
1
1
1
1
1
1
1
1.00293
1.40902
2.15094
2.3137
2.28284
2.25515
2.22244
1
1
1
1
1
1
1
1
1
1
1
1
1
1.00001
1.02693
1.64792
2.16001
2.25864
2.22096
2.19055
1
1
1
1
1
1
1
1
1
1
1
1
1
1
1.00017
1.09671
1.7816
2.17528
2.18762
2.15939
1
1
1
1
1
1
1
1
1
1
1
1
1
1
1
1.00144
1.18737
1.84934
2.123
2.13358
1
1
1
1
1
1
1
1
1
1
1
1
1
1
1
1
1.00526
1.25884
1.8392
2.08013
1
1
1
1
1
1
1
1
1
1
1
1
1
1
1
1
1.00002
1.01065
1.28246
1.86047
1
1
1
1
1
1
1
1
1
1
1
1
1
1
1
1
1
1.00006
1.01358
1.37415
1
1
1
1
1
1
1
1
1
1
1
1
1
1
1
1
1
1
1.00008
1.02658
1
1
1
1
1
1
1
1
1
1
1
1
1
1
1
1
1
1
1
1.00015
1
1
1
1
1
1
1
1
1
1
1
1
1
1
1
1
1
1
1
1
1
1
1
1
1
1
1
1
1
1
1
1
1
1
1
1
1
1
1
1
1
1
1
1
1
1
1
1
1
1
1
1
1
1
1
1
1
1
1
1
1
1
1
1
1
1
1
1
1
1
1
1
1
1
1
1
1
1
1
1
1.76705
1.70986
1.74136
1.79451
1.83616
1.86865
1.86564
1.84995
2.02563
2.52808
2.6797
2.6388
2.51806
2.42913
2.36034
2.30309
2.24817
2.19309
2.13769
2.0475
2.09155
1.77302
1.67013
1.71101
1.77661
1.81412
1.80997
1.81952
2.02057
2.33973
2.55142
2.53052
2.45037
2.38214
2.32422
2.2701
2.21837
2.1684
2.11824
2.03312
2.05322
1.75275
1.57371
1.60551
1.66976
1.71153
1.7081
1.77003
1.96852
2.09048
2.30975
2.38365
2.34254
2.2881
2.23733
2.18892
2.14337
2.10242
2.06233
1.98808
2.06786
1.78902
1.55591
1.54212
1.55435
1.58807
1.60561
1.7584
1.95169
1.94631
2.05976
2.17854
2.21559
2.17984
2.13297
2.09102
2.05295
2.01572
1.98104
1.91935
2.08867
1.8263
1.58425
1.51686
1.49291
1.50551
1.5522
1.8034
1.95851
1.91372
1.89804
2.00004
2.08218
2.09479
2.05922
2.01499
1.97426
1.93473
1.8991
1.84145
2.10732
1.86549
1.64901
1.54718
1.47734
1.47223
1.5574
1.86095
1.93002
1.89167
1.819
1.82476
1.93398
2.00567
1.99826
1.96544
1.92168
1.87643
1.83726
1.77982
2.12021
1.89629
1.71385
1.59067
1.47195
1.46586
1.63141
1.89019
1.89064
1.85389
1.77898
1.71745
1.76213
1.87626
1.93044
1.91689
1.8827
1.83779
1.79401
1.73337
2.11701
1.91376
1.76911
1.63481
1.49943
1.50342
1.7525
1.8773
1.85967
1.80639
1.7375
1.68058
1.64779
1.71766
1.82952
1.85325
1.8377
1.80249
1.76101
1.70068
2.10682
1.92188
1.81229
1.66322
1.53904
1.5929
1.85149
1.85376
1.81829
1.76255
1.7003
1.65044
1.61291
1.59366
1.6769
1.7736
1.78055
1.7605
1.72657
1.6731
2.08586
1.93052
1.8364
1.6794
1.57948
1.75453
1.91578
1.86284
1.7896
1.7226
1.66595
1.62942
1.58282
1.53905
1.53842
1.62368
1.70611
1.70719
1.68979
1.64255
2.06114
1.93994
1.84265
1.69008
1.64216
1.92027
1.9393
1.86913
1.77587
1.70004
1.64011
1.59271
1.55571
1.50786
1.46312
1.47415
1.55915
1.62908
1.63848
1.61102
2.04047
1.94845
1.8329
1.70564
1.76328
2.01805
1.9583
1.85875
1.75865
1.67828
1.6096
1.55587
1.51235
1.46881
1.42167
1.38033
1.40075
1.48566
1.56281
1.55922
2.01621
1.94369
1.80396
1.7306
1.94795
2.06129
1.97133
1.8544
1.74972
1.66117
1.58427
1.52321
1.47204
1.42669
1.38148
1.33889
1.30532
1.33273
1.42937
1.48765
1.9738
1.93617
1.77331
1.7872
2.11481
2.07993
1.97126
1.84547
1.73619
1.6412
1.55803
1.49254
1.43653
1.38798
1.34474
1.30499
1.2683
1.24526
1.27731
1.39147
1.92663
1.90198
1.78236
1.9412
2.18818
2.08535
1.96061
1.83465
1.72184
1.62157
1.53572
1.46622
1.40712
1.35458
1.31223
1.27752
1.2426
1.21362
1.20009
1.27405
1.75017
1.87164
1.81584
2.17263
2.2125
2.0837
1.93936
1.81114
1.69916
1.60036
1.51661
1.44455
1.38336
1.32899
1.29148
1.25663
1.22683
1.19842
1.17628
1.18449
1.48511
1.81062
1.95789
2.28018
2.19603
2.0519
1.90474
1.78036
1.67368
1.57937
1.49924
1.42998
1.36834
1.31525
1.27183
1.2353
1.20672
1.18235
1.16382
1.14857
1.17743
1.65181
2.12855
2.32126
2.15956
2.00905
1.8704
1.75443
1.65497
1.56699
1.49218
1.42581
1.36121
1.31007
1.2649
1.22873
1.20001
1.17483
1.15545
1.12993
1.03584
1.48759
2.15326
2.27255
2.1252
1.97474
1.84573
1.7378
1.64243
1.55874
1.48382
1.41819
1.37259
1.32679
1.28063
1.23961
1.20493
1.17478
1.1518
1.12209
1.00082
1.56277
2.23383
2.27685
2.12591
1.9607
1.83527
1.73351
1.64294
1.55914
1.48451
1.42141
1.36163
1.31224
1.26556
1.22463
1.1899
1.16059
1.13812
1.11252
)
;

boundaryField
{
    inlet
    {
        type            fixedValue;
        value           uniform 1;
    }
    outlet
    {
        type            inletOutlet;
        inletValue      uniform 1;
        value           nonuniform List<scalar> 
20
(
2.04666
2.03215
1.98701
1.91875
1.84091
1.7793
1.73283
1.70027
1.67336
1.64278
1.61052
1.5575
1.48579
1.38793
1.27048
1.18266
1.1479
1.12931
1.12134
1.11169
)
;
    }
    top
    {
        type            symmetryPlane;
    }
    bottom
    {
        type            symmetryPlane;
    }
    step
    {
        type            zeroGradient;
    }
    defaultFaces
    {
        type            empty;
    }
}


// ************************************************************************* //
