/*--------------------------------*- C++ -*----------------------------------*\
  =========                 |
  \\      /  F ield         | OpenFOAM: The Open Source CFD Toolbox
   \\    /   O peration     | Website:  https://openfoam.org
    \\  /    A nd           | Version:  6.0
     \\/     M anipulation  |
\*---------------------------------------------------------------------------*/
FoamFile
{
    version     2.0;
    format      ascii;
    class       volVectorField;
    location    "2.000578";
    object      U;
}
// * * * * * * * * * * * * * * * * * * * * * * * * * * * * * * * * * * * * * //

dimensions      [0 1 -1 0 0 0 0];

internalField   nonuniform List<vector> 
1200
(
(3 8.96157e-18 0)
(3 2.40446e-16 0)
(3 3.72375e-16 0)
(3 6.97548e-16 0)
(3 1.22001e-15 0)
(3 5.40152e-16 0)
(3 5.09416e-16 0)
(3 -6.16683e-16 0)
(3 -4.66157e-16 0)
(3 -2.76705e-16 0)
(1.64275 0.0135345 0)
(0.745467 0.0222083 0)
(0.664973 0.0130856 0)
(0.600222 -0.0049526 0)
(0.512505 -0.0103042 0)
(0.416808 0.00290058 0)
(0.315074 0.0215307 0)
(0.23768 0.0254674 0)
(0.153009 0.0283856 0)
(0.054035 0.0277314 0)
(3 1.1401e-16 0)
(3 2.45106e-16 0)
(3 3.42389e-16 0)
(3 7.61756e-16 0)
(3 1.11301e-15 0)
(3 1.63624e-15 0)
(3 1.71242e-15 0)
(3 5.01301e-17 0)
(3 -7.31372e-16 0)
(3 -4.46966e-16 0)
(1.64628 0.037641 0)
(0.754191 0.0480356 0)
(0.658646 0.0562482 0)
(0.585965 0.0300273 0)
(0.503506 -0.00447951 0)
(0.417205 -0.0156215 0)
(0.337946 0.0123847 0)
(0.251466 0.0567972 0)
(0.160537 0.0729844 0)
(0.0553854 0.0777317 0)
(3 8.99041e-17 0)
(3 1.57154e-16 0)
(3 -9.5748e-18 0)
(3 3.97869e-16 0)
(3 1.02634e-16 0)
(3 1.87086e-16 0)
(3 5.75631e-16 0)
(3 8.58764e-16 0)
(3 1.80471e-16 0)
(3 -7.8217e-16 0)
(1.65923 0.0503736 0)
(0.757878 0.0572853 0)
(0.644704 0.0579939 0)
(0.565542 0.0406894 0)
(0.483976 0.0326936 0)
(0.416919 0.0416248 0)
(0.342472 0.085931 0)
(0.248064 0.101537 0)
(0.151014 0.0913067 0)
(0.0508115 0.0726701 0)
(3 1.78436e-16 0)
(3 1.8864e-16 0)
(3 2.10888e-16 0)
(3 4.77157e-17 0)
(3 -1.00782e-16 0)
(3 -5.6613e-16 0)
(3 -4.14766e-16 0)
(3 6.10636e-16 0)
(3 1.00172e-15 0)
(3 -6.36537e-16 0)
(1.67604 0.0652947 0)
(0.757372 0.0611632 0)
(0.638379 0.0573614 0)
(0.558422 0.0680519 0)
(0.487351 0.0877194 0)
(0.425457 0.126217 0)
(0.341028 0.133873 0)
(0.24243 0.12471 0)
(0.138423 0.0991479 0)
(0.0520736 0.0825527 0)
(3 1.86053e-16 0)
(3 5.65092e-16 0)
(3 3.14968e-16 0)
(3 -1.56079e-16 0)
(3 -6.79959e-16 0)
(3 -3.85948e-16 0)
(3 -3.25625e-16 0)
(3 -3.88606e-16 0)
(3 3.51427e-16 0)
(3 1.91116e-16 0)
(1.70635 0.0799753 0)
(0.749826 0.0676987 0)
(0.637507 0.0556243 0)
(0.568718 0.0928376 0)
(0.495382 0.153577 0)
(0.417865 0.179083 0)
(0.329945 0.160246 0)
(0.233199 0.136108 0)
(0.131695 0.117288 0)
(0.0510435 0.111494 0)
(3 -4.95128e-17 0)
(3 1.99622e-16 0)
(3 6.92476e-17 0)
(3 3.88313e-16 0)
(3 3.61961e-17 0)
(3 -2.94178e-16 0)
(3 -4.16863e-16 0)
(3 -4.24517e-16 0)
(3 2.88322e-16 0)
(3 6.03889e-16 0)
(1.74159 0.0953045 0)
(0.741129 0.0810409 0)
(0.643512 0.0980071 0)
(0.576882 0.145631 0)
(0.493513 0.175893 0)
(0.407398 0.176661 0)
(0.316295 0.153582 0)
(0.223877 0.132431 0)
(0.127705 0.154845 0)
(0.0553905 0.191858 0)
(3 1.33254e-16 0)
(3 -1.25674e-16 0)
(3 1.73005e-16 0)
(3 3.9965e-16 0)
(3 6.46845e-16 0)
(3 1.19719e-16 0)
(3 -8.2807e-17 0)
(3 2.65017e-16 0)
(3 8.23635e-16 0)
(3 8.13204e-16 0)
(1.77759 0.123473 0)
(0.751198 0.118068 0)
(0.652686 0.151476 0)
(0.579051 0.16725 0)
(0.492593 0.170321 0)
(0.398531 0.158515 0)
(0.306298 0.14388 0)
(0.223735 0.15629 0)
(0.155098 0.217091 0)
(0.0621223 0.285191 0)
(3 -8.86827e-17 0)
(3 -2.46142e-16 0)
(3 3.0766e-16 0)
(3 1.73729e-16 0)
(3 2.86139e-16 0)
(3 2.58256e-16 0)
(3 6.19367e-17 0)
(3 1.0115e-15 0)
(3 6.80361e-16 0)
(3 3.48975e-16 0)
(1.81956 0.158748 0)
(0.764133 0.164362 0)
(0.652467 0.19102 0)
(0.576106 0.18228 0)
(0.485602 0.164487 0)
(0.395147 0.147286 0)
(0.307377 0.157205 0)
(0.245963 0.206437 0)
(0.176233 0.300284 0)
(0.0631406 0.330135 0)
(3 -2.24565e-16 0)
(3 4.54229e-17 0)
(3 3.68268e-16 0)
(3 2.5128e-16 0)
(3 2.91058e-16 0)
(3 -6.76496e-16 0)
(3 -6.15326e-17 0)
(3 3.2396e-16 0)
(3 1.46006e-15 0)
(3 3.50595e-16 0)
(1.88188 0.185976 0)
(0.786996 0.198518 0)
(0.654387 0.212935 0)
(0.57021 0.196763 0)
(0.478499 0.166576 0)
(0.39382 0.164162 0)
(0.328484 0.204418 0)
(0.270695 0.305162 0)
(0.182635 0.336096 0)
(0.062528 0.324939 0)
(3 -3.45779e-16 0)
(3 -2.7022e-17 0)
(3 1.79053e-16 0)
(3 4.63957e-17 0)
(3 1.27683e-16 0)
(3 -2.90372e-16 0)
(3 -6.24737e-17 0)
(3 -3.41536e-17 0)
(3 7.48868e-17 0)
(3 2.43501e-16 0)
(1.9605 0.205614 0)
(0.805183 0.226311 0)
(0.65569 0.216084 0)
(0.56555 0.188025 0)
(0.474055 0.186838 0)
(0.412914 0.209088 0)
(0.366915 0.311794 0)
(0.27854 0.347874 0)
(0.1759 0.335692 0)
(0.0561045 0.303699 0)
(3 -7.47946e-17 0)
(3 -2.37922e-16 0)
(3 -5.85344e-16 0)
(3 2.17273e-16 0)
(3 -1.04551e-16 0)
(3 9.04905e-16 0)
(3 1.40456e-16 0)
(3 -3.76403e-16 0)
(3 -9.57293e-16 0)
(3 2.44545e-16 0)
(2.05795 0.214462 0)
(0.817541 0.239526 0)
(0.651212 0.202176 0)
(0.568139 0.196427 0)
(0.496138 0.223539 0)
(0.453314 0.322858 0)
(0.379395 0.359672 0)
(0.28006 0.360561 0)
(0.154665 0.315599 0)
(0.0550106 0.299939 0)
(3 3.39865e-16 0)
(3 1.6973e-16 0)
(3 -2.54394e-16 0)
(3 5.31837e-16 0)
(3 6.59531e-16 0)
(3 6.17021e-16 0)
(3 2.49387e-16 0)
(3 -2.20324e-16 0)
(3 -8.84527e-16 0)
(3 -6.0275e-16 0)
(2.16905 0.218823 0)
(0.823831 0.247503 0)
(0.643444 0.200909 0)
(0.586727 0.218865 0)
(0.535326 0.325397 0)
(0.466506 0.371247 0)
(0.388834 0.374943 0)
(0.27269 0.346524 0)
(0.138363 0.312964 0)
(0.0607988 0.334268 0)
(3 1.17693e-16 0)
(3 -2.47511e-17 0)
(3 5.71743e-18 0)
(3 1.32635e-16 0)
(3 4.9765e-16 0)
(3 -7.47836e-17 0)
(3 -1.61236e-16 0)
(3 -5.50833e-16 0)
(3 -4.32703e-16 0)
(3 -1.43755e-15 0)
(2.28604 0.217586 0)
(0.821425 0.245027 0)
(0.653727 0.226268 0)
(0.619894 0.311131 0)
(0.558522 0.358488 0)
(0.481035 0.378774 0)
(0.390226 0.359452 0)
(0.261314 0.31452 0)
(0.134912 0.351275 0)
(0.0674569 0.38724 0)
(3 2.28292e-16 0)
(3 -9.17993e-17 0)
(3 -4.70258e-16 0)
(3 -3.314e-16 0)
(3 -2.83565e-16 0)
(3 8.66344e-16 0)
(3 -1.14629e-16 0)
(3 -1.29987e-15 0)
(3 -2.30152e-16 0)
(3 -1.65144e-16 0)
(2.38557 0.228447 0)
(0.830991 0.269058 0)
(0.680715 0.310438 0)
(0.637601 0.355551 0)
(0.568158 0.37227 0)
(0.490484 0.365504 0)
(0.377714 0.315502 0)
(0.270053 0.319733 0)
(0.167824 0.402481 0)
(0.082003 0.537825 0)
(3 2.53756e-16 0)
(3 -5.46851e-17 0)
(3 -3.50706e-16 0)
(3 -6.68034e-16 0)
(3 4.49708e-16 0)
(3 8.45712e-16 0)
(3 7.93361e-16 0)
(3 5.30372e-16 0)
(3 2.24214e-16 0)
(3 4.84904e-16 0)
(2.48004 0.254528 0)
(0.872855 0.336115 0)
(0.70004 0.35962 0)
(0.64727 0.382776 0)
(0.574294 0.381052 0)
(0.482033 0.332911 0)
(0.378056 0.307159 0)
(0.295227 0.360403 0)
(0.22662 0.520731 0)
(0.0989578 0.649108 0)
(3 1.37686e-17 0)
(3 -1.37118e-16 0)
(3 -1.16848e-16 0)
(3 7.72875e-17 0)
(3 9.79386e-16 0)
(3 7.79542e-16 0)
(3 1.26161e-15 0)
(3 1.09507e-15 0)
(3 1.06913e-15 0)
(3 -1.49917e-16 0)
(2.62749 0.267674 0)
(0.922049 0.420371 0)
(0.723154 0.381157 0)
(0.669333 0.38547 0)
(0.578209 0.36537 0)
(0.470111 0.312988 0)
(0.394349 0.337091 0)
(0.342902 0.443373 0)
(0.282351 0.637016 0)
(0.10821 0.699642 0)
(3 -1.29503e-16 0)
(3 -4.16833e-16 0)
(3 -2.82785e-16 0)
(3 -3.74817e-16 0)
(3 4.82147e-17 0)
(3 3.53743e-16 0)
(3 1.15476e-15 0)
(3 4.34517e-16 0)
(3 4.39304e-16 0)
(3 -7.09594e-17 0)
(2.83622 0.239063 0)
(1.00006 0.44472 0)
(0.759065 0.378509 0)
(0.694982 0.368878 0)
(0.576149 0.333444 0)
(0.477746 0.337812 0)
(0.439149 0.412178 0)
(0.395762 0.603129 0)
(0.314199 0.691885 0)
(0.113444 0.722125 0)
(3 -3.48231e-16 0)
(3 1.75724e-16 0)
(3 -1.2217e-16 0)
(3 2.58738e-16 0)
(3 -1.38334e-16 0)
(3 -1.20977e-16 0)
(3 5.58127e-17 0)
(3 4.91415e-16 0)
(3 3.85e-16 0)
(3 1.34026e-16 0)
(3.0301 0.14826 0)
(1.10202 0.43958 0)
(0.823588 0.373882 0)
(0.723522 0.341762 0)
(0.597046 0.348519 0)
(0.525426 0.435397 0)
(0.502851 0.575839 0)
(0.424213 0.649164 0)
(0.341053 0.711865 0)
(0.11294 0.73751 0)
(3 3.70665e-17 0)
(3 -7.58228e-17 0)
(3 3.70611e-16 0)
(3 7.6081e-16 0)
(3 1.44815e-16 0)
(3 -5.21889e-16 0)
(3 -1.11058e-15 0)
(3 -1.12724e-16 0)
(3 3.81256e-16 0)
(3 -2.2676e-16 0)
(3.07986 0.0437592 0)
(1.18248 0.410031 0)
(0.854819 0.385689 0)
(0.763897 0.377781 0)
(0.667075 0.429214 0)
(0.60888 0.52573 0)
(0.552625 0.62684 0)
(0.455323 0.672503 0)
(0.373176 0.689195 0)
(0.1255 0.749582 0)
(3 7.27299e-17 0)
(3 2.44673e-16 0)
(3 1.47221e-15 0)
(3 5.70122e-16 0)
(3 -1.21945e-16 0)
(3 -2.13469e-16 0)
(3 -2.09411e-16 0)
(3 5.50198e-16 0)
(3 7.02851e-16 0)
(3 -1.94307e-16 0)
(3.02311 0.00243865 0)
(1.22285 0.396546 0)
(0.847795 0.416358 0)
(0.780001 0.446237 0)
(0.715043 0.493128 0)
(0.664578 0.544777 0)
(0.618453 0.641762 0)
(0.511758 0.725055 0)
(0.405135 0.70914 0)
(0.178271 0.845649 0)
(3 -7.56977e-19 0)
(3 6.99366e-17 0)
(3 3.30932e-16 0)
(3 2.37314e-16 0)
(3 -3.58218e-16 0)
(3 -5.87561e-16 0)
(3 -6.11802e-16 0)
(3 -1.17816e-16 0)
(3 2.63932e-16 0)
(3 -4.2882e-17 0)
(3.0021 -0.000245032 0)
(1.41643 0.421129 0)
(0.826698 0.452116 0)
(0.791037 0.499903 0)
(0.75951 0.540627 0)
(0.727164 0.57417 0)
(0.69745 0.594869 0)
(0.618776 0.671369 0)
(0.594875 0.819684 0)
(0.741927 1.10246 0)
(3 -1.18512e-16 0)
(3 -5.69637e-16 0)
(3 -6.94238e-16 0)
(3 -3.96756e-16 0)
(3 6.27131e-17 0)
(3 5.64819e-17 0)
(3 -2.16785e-16 0)
(3 -2.52006e-17 0)
(3 3.268e-16 0)
(3 1.82314e-16 0)
(3.00001 -8.99768e-07 0)
(2.09924 0.453442 0)
(0.916679 0.566236 0)
(0.826637 0.556374 0)
(0.801677 0.581809 0)
(0.777361 0.605303 0)
(0.762983 0.648992 0)
(0.779249 0.751058 0)
(0.913228 0.916385 0)
(1.1517 1.04835 0)
(3 -2.04416e-17 0)
(3 -5.38462e-17 0)
(3 -3.38903e-16 0)
(3 -3.43757e-16 0)
(3 1.19804e-16 0)
(3 2.33e-16 0)
(3 1.49578e-16 0)
(3 9.96978e-17 0)
(3 -4.67389e-17 0)
(3 1.96286e-16 0)
(3 -3.36217e-08 0)
(3.04813 0.110567 0)
(1.24014 0.628353 0)
(0.936225 0.576138 0)
(0.888972 0.601764 0)
(0.872193 0.647293 0)
(0.887869 0.720893 0)
(0.938326 0.812306 0)
(1.05884 0.89239 0)
(1.28345 0.948969 0)
(3 7.86417e-17 0)
(3 5.20883e-16 0)
(3 6.12646e-16 0)
(3 -2.61629e-16 0)
(3 -3.14271e-16 0)
(3 -2.12779e-16 0)
(3 -1.91806e-16 0)
(3 -2.40072e-16 0)
(3 -3.02955e-16 0)
(3 1.17128e-16 0)
(3 -2.73146e-08 0)
(3.01368 0.000998742 0)
(1.81039 0.588086 0)
(1.01155 0.694612 0)
(0.957028 0.703499 0)
(0.969477 0.728713 0)
(0.991971 0.763355 0)
(1.04299 0.806951 0)
(1.15825 0.857153 0)
(1.34544 0.894039 0)
(3 -6.37485e-17 0)
(3 1.6519e-16 0)
(3 3.82417e-16 0)
(3 4.04786e-16 0)
(3 -2.65742e-17 0)
(3 -3.33107e-17 0)
(3 1.15247e-16 0)
(3 -5.14898e-17 0)
(3 -3.83986e-16 0)
(3 -1.31597e-16 0)
(3 -2.00193e-09 0)
(3.00008 3.23443e-06 0)
(2.9509 0.17748 0)
(1.31542 0.73414 0)
(1.06236 0.740191 0)
(1.07757 0.73898 0)
(1.08561 0.766419 0)
(1.1427 0.800134 0)
(1.24277 0.833003 0)
(1.38314 0.85678 0)
(3 -1.05175e-17 0)
(3 -2.95756e-16 0)
(3 -2.20803e-16 0)
(3 1.23973e-16 0)
(3 1.92841e-16 0)
(3 -1.40604e-16 0)
(3 -1.65366e-16 0)
(3 -1.6727e-16 0)
(3 -4.11168e-16 0)
(3 -5.51972e-16 0)
(3 -6.91928e-12 0)
(3.00001 -2.75765e-06 0)
(3.01648 0.00303266 0)
(2.00868 0.629099 0)
(1.16863 0.807607 0)
(1.14241 0.805158 0)
(1.16639 0.814464 0)
(1.22358 0.832015 0)
(1.30368 0.845441 0)
(1.4129 0.851335 0)
(3 1.16576e-16 0)
(3 3.01289e-16 0)
(3 6.30921e-17 0)
(3 -2.01385e-16 0)
(3 2.01461e-16 0)
(3 2.70876e-16 0)
(3 1.222e-16 0)
(3 2.72151e-16 0)
(3 4.3796e-17 0)
(3 -4.91811e-16 0)
(3 8.14179e-14 0)
(3 -3.98966e-07 0)
(3.00009 3.70199e-05 0)
(2.97062 0.128252 0)
(1.61838 0.788691 0)
(1.21385 0.840232 0)
(1.26082 0.83602 0)
(1.29837 0.845061 0)
(1.36442 0.842894 0)
(1.44887 0.841838 0)
(3 -1.60881e-18 0)
(3 3.27457e-16 0)
(3 2.00749e-16 0)
(3 -5.69622e-17 0)
(3 -4.37078e-17 0)
(3 4.478e-16 0)
(3 8.43406e-16 0)
(3 3.89554e-16 0)
(3 7.36288e-17 0)
(3 -6.54279e-16 0)
(3 1.79852e-14 0)
(3 -1.6493e-08 0)
(3 -7.67151e-09 0)
(3.00435 0.00448915 0)
(2.67692 0.398142 0)
(1.4874 0.881969 0)
(1.30867 0.884497 0)
(1.36059 0.874958 0)
(1.4164 0.867332 0)
(1.48257 0.86498 0)
(3 2.56927e-17 0)
(3 -7.47892e-17 0)
(3 -2.85055e-16 0)
(3 -4.4727e-16 0)
(3 -6.69668e-16 0)
(3 -5.71961e-16 0)
(3 -4.41887e-17 0)
(3 2.8416e-16 0)
(3 7.22802e-16 0)
(3 1.93124e-16 0)
(3 6.98668e-16 0)
(3 -7.6352e-11 0)
(3 -2.5031e-09 0)
(3.00001 2.18033e-05 0)
(3.00992 0.0256643 0)
(2.33928 0.637812 0)
(1.43811 0.915283 0)
(1.40352 0.906934 0)
(1.4752 0.886014 0)
(1.52553 0.878907 0)
(3 4.84459e-17 0)
(3 -1.47272e-16 0)
(3 -3.00915e-16 0)
(3 -5.72624e-16 0)
(3 -5.3889e-16 0)
(3 -3.38573e-16 0)
(3 -4.28822e-16 0)
(3 -7.81435e-16 0)
(3 -2.90769e-16 0)
(3 -1.66876e-16 0)
(3 3.71325e-16 0)
(3 -6.12031e-14 0)
(3 -1.65571e-10 0)
(3 5.42858e-09 0)
(3.00014 0.000493561 0)
(2.98686 0.0897515 0)
(2.08376 0.74163 0)
(1.49788 0.922013 0)
(1.50075 0.923231 0)
(1.56104 0.90384 0)
(3 -7.17558e-17 0)
(3 -5.87875e-17 0)
(3 1.23073e-16 0)
(3 5.56068e-16 0)
(3 3.82454e-16 0)
(3 1.38586e-16 0)
(3 -3.58501e-16 0)
(3 -4.59121e-16 0)
(3 -6.76939e-16 0)
(3 -8.28785e-16 0)
(3 -6.23116e-16 0)
(3 7.00386e-16 0)
(3 -2.66324e-12 0)
(3 -1.90133e-12 0)
(3 4.33857e-07 0)
(3.00054 0.00305804 0)
(2.89922 0.183574 0)
(1.9885 0.801032 0)
(1.57774 0.937068 0)
(1.57879 0.934959 0)
(3 -2.49387e-17 0)
(3 1.77055e-17 0)
(3 3.38178e-16 0)
(3 9.8339e-16 0)
(3 9.02043e-16 0)
(3 -8.08881e-17 0)
(3 -5.41184e-16 0)
(3 -2.80891e-16 0)
(3 -2.46896e-16 0)
(3 9.86197e-17 0)
(3 1.90646e-16 0)
(3 1.62237e-16 0)
(3 -6.7054e-15 0)
(3 -5.14837e-13 0)
(3 9.64066e-11 0)
(3 7.31707e-06 0)
(2.99981 0.00883863 0)
(2.8056 0.267408 0)
(1.99556 0.826214 0)
(1.65063 0.942377 0)
(3 1.21699e-17 0)
(3 -9.68753e-18 0)
(3 2.74024e-16 0)
(3 2.96696e-16 0)
(3 -1.65911e-16 0)
(3 -2.69085e-16 0)
(3 -3.49991e-16 0)
(3 -3.5264e-16 0)
(3 -2.67039e-16 0)
(3 4.78131e-16 0)
(3 4.74844e-16 0)
(3 2.89813e-16 0)
(3 3.88676e-16 0)
(3 -4.71222e-14 0)
(3 -4.04085e-14 0)
(3 3.31169e-09 0)
(3 4.10832e-05 0)
(2.99554 0.0175541 0)
(2.80087 0.296106 0)
(1.95805 0.863206 0)
(3 -4.94934e-18 0)
(3 -1.02712e-16 0)
(3 -1.30767e-16 0)
(3 -4.78462e-16 0)
(3 -5.20887e-16 0)
(3 -4.78026e-16 0)
(3 -7.17504e-17 0)
(3 -1.49982e-16 0)
(3 -3.43516e-16 0)
(3 -5.90568e-16 0)
(3 -4.99582e-16 0)
(3 -1.23311e-16 0)
(3 9.68094e-17 0)
(3 -1.1202e-16 0)
(3 -1.06543e-14 0)
(3 2.48987e-13 0)
(3 2.64782e-08 0)
(2.99996 0.000149963 0)
(2.99845 0.0176162 0)
(2.68399 0.412385 0)
(3 2.93744e-17 0)
(3 -9.70351e-17 0)
(3 -5.81451e-16 0)
(3 -7.36951e-16 0)
(3 -6.68461e-16 0)
(3 -2.21832e-16 0)
(3 1.99617e-16 0)
(3 1.39461e-16 0)
(3 -1.6335e-16 0)
(3 -1.08127e-15 0)
(3 -1.113e-15 0)
(3 -8.50496e-16 0)
(3 -5.74201e-16 0)
(3 -6.92009e-17 0)
(3 -1.76025e-15 0)
(3 -2.1161e-15 0)
(3 3.98705e-12 0)
(3 9.9024e-08 0)
(2.99997 0.0002527 0)
(3.00731 0.0196924 0)
(3 -4.66653e-17 0)
(3 2.17411e-17 0)
(3 5.56636e-17 0)
(3 -7.16394e-17 0)
(3 -1.86545e-17 0)
(3 -1.33681e-17 0)
(3 -2.72313e-16 0)
(3 1.5435e-17 0)
(3 6.27825e-17 0)
(3 6.77472e-17 0)
(3 3.48674e-16 0)
(3 1.73363e-16 0)
(3 3.77488e-16 0)
(3 2.83507e-16 0)
(3 -3.77969e-16 0)
(3 -1.85104e-15 0)
(3 -1.71889e-15 0)
(3 1.64199e-11 0)
(3 4.13969e-07 0)
(3.0005 8.66377e-05 0)
(3 -8.20862e-18 0)
(3 1.2843e-16 0)
(3 3.38189e-16 0)
(3 1.31691e-16 0)
(3 1.53099e-16 0)
(3 3.76194e-16 0)
(3 2.68758e-16 0)
(3 2.65243e-16 0)
(3 1.82918e-16 0)
(3 1.89336e-16 0)
(3 3.34097e-16 0)
(3 4.81565e-16 0)
(3 5.90003e-16 0)
(3 4.18064e-17 0)
(3 -1.97494e-16 0)
(3 -4.81077e-16 0)
(3 -1.36836e-15 0)
(3 4.5577e-16 0)
(3 1.33547e-10 0)
(3 5.32273e-08 0)
(3 1.76404e-16 0)
(3 2.04225e-16 0)
(3 3.70731e-18 0)
(3 2.78438e-16 0)
(3 3.78436e-16 0)
(3 2.35825e-16 0)
(3 2.76485e-16 0)
(3 3.44361e-16 0)
(3 -7.40343e-17 0)
(3 -7.36095e-17 0)
(3 -2.94066e-16 0)
(3 -3.21249e-16 0)
(3 -3.35179e-16 0)
(3 2.30766e-17 0)
(3 1.44461e-16 0)
(3 4.37384e-16 0)
(3 3.48319e-16 0)
(3 4.405e-16 0)
(3 1.27396e-14 0)
(3 2.48046e-12 0)
(3 -1.55173e-17 0)
(3 -8.12704e-17 0)
(3 -3.10369e-16 0)
(3 -1.39092e-16 0)
(3 -2.12934e-16 0)
(3 -3.65528e-16 0)
(3 -5.181e-16 0)
(3 -7.54602e-16 0)
(3 -1.90796e-16 0)
(3 -3.30544e-16 0)
(3 -9.83306e-16 0)
(3 -9.29804e-16 0)
(3 -6.71149e-16 0)
(3 3.53772e-16 0)
(3 1.07795e-15 0)
(3 5.37285e-16 0)
(3 7.79044e-16 0)
(3 6.26816e-16 0)
(3 7.45848e-16 0)
(3 -3.60018e-13 0)
(3 -1.60829e-16 0)
(3 -1.21623e-16 0)
(3 -1.16097e-16 0)
(3 -3.38625e-16 0)
(3 -5.54434e-16 0)
(3 -4.50314e-16 0)
(3 -5.37651e-16 0)
(3 -6.53495e-16 0)
(3 -2.22284e-16 0)
(3 -5.08205e-16 0)
(3 -9.12064e-16 0)
(3 -6.41502e-16 0)
(3 -3.66518e-16 0)
(3 3.33017e-16 0)
(3 7.97861e-16 0)
(3 4.38164e-16 0)
(3 5.29948e-16 0)
(3 5.33821e-16 0)
(3 6.0417e-17 0)
(3 -4.1933e-14 0)
(1.70679 1.27417 0)
(2.1125 0.0631806 0)
(2.30426 -0.0774239 0)
(2.31265 -0.0502997 0)
(2.30465 -0.00199411 0)
(2.28228 -0.00453491 0)
(2.28653 -0.00246269 0)
(2.28862 -0.00790975 0)
(2.10168 -0.0973054 0)
(1.57614 -0.174352 0)
(1.53139 -0.0922341 0)
(1.66537 -0.0420809 0)
(1.80826 0.00435681 0)
(1.91734 0.0116449 0)
(2.02457 0.0122262 0)
(2.12531 0.0117769 0)
(2.22025 0.0139211 0)
(2.30759 0.0138338 0)
(2.37979 0.0164324 0)
(2.48372 0.0198744 0)
(1.85039 0.666616 0)
(2.27236 -0.174749 0)
(2.43004 -0.153822 0)
(2.39328 -0.0843862 0)
(2.3579 -0.0209328 0)
(2.32853 0.0029487 0)
(2.33231 0.0179953 0)
(2.32965 -0.0187072 0)
(2.0985 -0.394292 0)
(1.89728 -0.269639 0)
(1.70101 -0.056178 0)
(1.73989 0.00887499 0)
(1.83856 0.0331523 0)
(1.94832 0.0390775 0)
(2.05355 0.0346302 0)
(2.15225 0.0305628 0)
(2.24554 0.0316522 0)
(2.3307 0.0298644 0)
(2.40158 0.0296714 0)
(2.50469 0.0299345 0)
(1.87064 0.702553 0)
(2.27936 0.21691 0)
(2.49597 -0.0449095 0)
(2.49395 -0.0935296 0)
(2.46444 -0.0247472 0)
(2.42741 0.00848559 0)
(2.43345 0.0129335 0)
(2.41002 -0.0865786 0)
(2.09537 -0.560952 0)
(2.10635 -0.550971 0)
(1.91123 -0.195437 0)
(1.86998 -0.00584113 0)
(1.93434 0.0227342 0)
(2.02216 0.0221823 0)
(2.11629 0.0332846 0)
(2.20559 0.0481369 0)
(2.28794 0.0604013 0)
(2.36419 0.0533481 0)
(2.42764 0.0533154 0)
(2.52223 0.0651319 0)
(1.79369 0.784561 0)
(2.26874 0.274833 0)
(2.52948 0.0351698 0)
(2.54489 -0.173919 0)
(2.5338 -0.113364 0)
(2.526 -0.0224523 0)
(2.537 0.0131965 0)
(2.42155 -0.198049 0)
(2.13724 -0.58578 0)
(2.19172 -0.682785 0)
(2.10468 -0.403372 0)
(2.00273 -0.102875 0)
(2.02873 0.0322348 0)
(2.09032 0.0740255 0)
(2.178 0.0712929 0)
(2.26069 0.0690733 0)
(2.335 0.0796581 0)
(2.40302 0.0774695 0)
(2.46025 0.0725037 0)
(2.54938 0.073257 0)
(1.76298 0.760449 0)
(2.18254 0.416056 0)
(2.44849 0.214671 0)
(2.53218 -0.0884303 0)
(2.60169 -0.0837822 0)
(2.60327 -0.0525829 0)
(2.60194 -0.0416708 0)
(2.32211 -0.391446 0)
(2.16467 -0.589189 0)
(2.20074 -0.661908 0)
(2.21983 -0.565531 0)
(2.17615 -0.283292 0)
(2.09769 -0.0381835 0)
(2.15467 0.0722524 0)
(2.22988 0.0968179 0)
(2.30701 0.0887704 0)
(2.37495 0.0957618 0)
(2.43765 0.102531 0)
(2.48938 0.109565 0)
(2.57189 0.115295 0)
(1.71858 0.775375 0)
(2.12398 0.501947 0)
(2.36197 0.32124 0)
(2.51312 -0.0404066 0)
(2.60991 -0.0769145 0)
(2.63096 -0.0757519 0)
(2.60099 -0.134598 0)
(2.22005 -0.55445 0)
(2.16665 -0.631729 0)
(2.19817 -0.645863 0)
(2.26756 -0.635304 0)
(2.28544 -0.463915 0)
(2.23023 -0.170093 0)
(2.20982 0.027246 0)
(2.26579 0.121803 0)
(2.33908 0.136135 0)
(2.40255 0.135528 0)
(2.4628 0.131787 0)
(2.5131 0.135235 0)
(2.59357 0.140448 0)
(1.70932 0.767245 0)
(2.05842 0.589416 0)
(2.29695 0.386155 0)
(2.4632 0.0784243 0)
(2.54444 0.0383788 0)
(2.57481 -0.0692643 0)
(2.47757 -0.331632 0)
(2.17478 -0.637924 0)
(2.17259 -0.6759 0)
(2.21038 -0.659262 0)
(2.2782 -0.642516 0)
(2.35324 -0.567216 0)
(2.35927 -0.373034 0)
(2.29621 -0.0502371 0)
(2.32162 0.10631 0)
(2.3581 0.172175 0)
(2.41992 0.184197 0)
(2.4843 0.165694 0)
(2.53311 0.161758 0)
(2.60782 0.170107 0)
(1.69716 0.790048 0)
(2.02228 0.652005 0)
(2.23335 0.456274 0)
(2.42138 0.18601 0)
(2.54634 0.106466 0)
(2.48569 -0.127639 0)
(2.3193 -0.504706 0)
(2.11374 -0.721395 0)
(2.17201 -0.702472 0)
(2.22879 -0.671738 0)
(2.30385 -0.627297 0)
(2.37156 -0.575663 0)
(2.43658 -0.47933 0)
(2.43774 -0.262387 0)
(2.39495 0.0383353 0)
(2.40001 0.194479 0)
(2.43475 0.218792 0)
(2.50032 0.210063 0)
(2.55019 0.202895 0)
(2.61691 0.206301 0)
(1.71082 0.795646 0)
(1.97558 0.710638 0)
(2.19656 0.48548 0)
(2.38676 0.300002 0)
(2.51605 0.149844 0)
(2.44231 -0.105096 0)
(2.10816 -0.649206 0)
(2.11357 -0.757908 0)
(2.18156 -0.726752 0)
(2.26546 -0.675753 0)
(2.33509 -0.613006 0)
(2.42388 -0.545415 0)
(2.47658 -0.494423 0)
(2.50963 -0.375218 0)
(2.50271 -0.135236 0)
(2.49011 0.107477 0)
(2.47719 0.236885 0)
(2.50798 0.25266 0)
(2.56148 0.254941 0)
(2.63255 0.242655 0)
(1.72359 0.83024 0)
(1.94298 0.746123 0)
(2.16453 0.514707 0)
(2.33633 0.425805 0)
(2.46862 0.181248 0)
(2.32363 -0.231131 0)
(2.10362 -0.630973 0)
(2.13341 -0.704244 0)
(2.23304 -0.703137 0)
(2.31783 -0.659934 0)
(2.38798 -0.599453 0)
(2.46083 -0.524902 0)
(2.51241 -0.46514 0)
(2.56555 -0.40846 0)
(2.58129 -0.279441 0)
(2.56925 -0.0269298 0)
(2.56059 0.164211 0)
(2.55285 0.268245 0)
(2.56883 0.305161 0)
(2.63436 0.296735 0)
(1.74358 0.861131 0)
(1.92797 0.754503 0)
(2.13922 0.548112 0)
(2.30842 0.519646 0)
(2.36559 0.202372 0)
(2.17879 -0.340444 0)
(2.07301 -0.644363 0)
(2.15508 -0.67707 0)
(2.26922 -0.673237 0)
(2.36602 -0.630804 0)
(2.43982 -0.584146 0)
(2.49994 -0.508129 0)
(2.54905 -0.43622 0)
(2.59964 -0.39105 0)
(2.64186 -0.335913 0)
(2.647 -0.208906 0)
(2.62557 0.0400722 0)
(2.62484 0.215518 0)
(2.60509 0.322627 0)
(2.64427 0.338523 0)
(1.74462 0.899245 0)
(1.92252 0.762041 0)
(2.1324 0.601892 0)
(2.2964 0.58105 0)
(2.2163 0.135912 0)
(2.06295 -0.390577 0)
(2.06734 -0.574176 0)
(2.17493 -0.601838 0)
(2.29186 -0.610386 0)
(2.39617 -0.58994 0)
(2.46381 -0.551282 0)
(2.51897 -0.494362 0)
(2.57221 -0.430294 0)
(2.62158 -0.373344 0)
(2.6596 -0.345375 0)
(2.70256 -0.286788 0)
(2.7034 -0.165024 0)
(2.67734 0.0963626 0)
(2.66894 0.291308 0)
(2.68528 0.351744 0)
(1.777 0.901488 0)
(1.93233 0.774792 0)
(2.10835 0.703391 0)
(2.25815 0.568333 0)
(2.09686 -0.00314573 0)
(1.98392 -0.432128 0)
(2.06764 -0.511104 0)
(2.19551 -0.539846 0)
(2.30912 -0.538439 0)
(2.40046 -0.529111 0)
(2.47442 -0.507619 0)
(2.53364 -0.461784 0)
(2.59083 -0.417699 0)
(2.64061 -0.373074 0)
(2.68254 -0.330722 0)
(2.71715 -0.304554 0)
(2.75941 -0.242548 0)
(2.75699 -0.110894 0)
(2.74128 0.150376 0)
(2.74333 0.352767 0)
(1.85117 0.846243 0)
(1.92938 0.818346 0)
(2.11421 0.796543 0)
(2.17962 0.496484 0)
(1.98942 -0.10729 0)
(1.97625 -0.398724 0)
(2.07192 -0.438151 0)
(2.20181 -0.457902 0)
(2.31698 -0.469514 0)
(2.41072 -0.479939 0)
(2.48605 -0.465829 0)
(2.54896 -0.426369 0)
(2.60792 -0.391502 0)
(2.66255 -0.358509 0)
(2.70903 -0.318591 0)
(2.74544 -0.278974 0)
(2.77927 -0.250164 0)
(2.81835 -0.18005 0)
(2.81777 -0.0404143 0)
(2.8217 0.251317 0)
(1.95039 0.758254 0)
(1.91915 0.873123 0)
(2.0963 0.855895 0)
(2.03724 0.34916 0)
(1.87679 -0.189583 0)
(1.94592 -0.337802 0)
(2.07138 -0.361003 0)
(2.20094 -0.374587 0)
(2.31107 -0.381978 0)
(2.40031 -0.39368 0)
(2.47825 -0.389927 0)
(2.55325 -0.37274 0)
(2.62753 -0.356309 0)
(2.69147 -0.333513 0)
(2.74817 -0.294573 0)
(2.78205 -0.252826 0)
(2.81626 -0.217398 0)
(2.84363 -0.183444 0)
(2.87776 -0.10458 0)
(2.89605 0.103151 0)
(2.12913 0.680065 0)
(1.89277 0.925014 0)
(2.03502 0.849696 0)
(1.80318 0.150731 0)
(1.78837 -0.189245 0)
(1.92066 -0.273449 0)
(2.07848 -0.300301 0)
(2.21656 -0.310898 0)
(2.33381 -0.324701 0)
(2.43114 -0.343762 0)
(2.51236 -0.347906 0)
(2.59122 -0.338114 0)
(2.66594 -0.323537 0)
(2.73448 -0.304273 0)
(2.78643 -0.269755 0)
(2.83473 -0.228941 0)
(2.86419 -0.190388 0)
(2.88931 -0.151961 0)
(2.9045 -0.0994085 0)
(2.9367 -0.00906677 0)
(2.60914 0.580947 0)
(1.98653 0.963643 0)
(1.9192 0.638824 0)
(1.55822 -0.0141926 0)
(1.71275 -0.193604 0)
(1.90288 -0.207988 0)
(2.08809 -0.227957 0)
(2.23743 -0.238757 0)
(2.35722 -0.247936 0)
(2.4545 -0.256551 0)
(2.53678 -0.26068 0)
(2.61699 -0.259847 0)
(2.68754 -0.255735 0)
(2.74932 -0.236819 0)
(2.79672 -0.226185 0)
(2.84717 -0.198135 0)
(2.88384 -0.165667 0)
(2.90989 -0.128815 0)
(2.91847 -0.0927856 0)
(2.95725 -0.0125307 0)
(3.11889 0.259001 0)
(2.21939 1.01704 0)
(1.78685 0.430431 0)
(1.56896 0.013656 0)
(1.75402 -0.152559 0)
(1.96043 -0.168369 0)
(2.14623 -0.177892 0)
(2.29069 -0.186603 0)
(2.40691 -0.196405 0)
(2.50295 -0.204134 0)
(2.58782 -0.204154 0)
(2.66329 -0.214511 0)
(2.73087 -0.209885 0)
(2.78492 -0.190785 0)
(2.8282 -0.168033 0)
(2.86974 -0.139852 0)
(2.90246 -0.12324 0)
(2.9263 -0.0978127 0)
(2.93883 -0.0647829 0)
(2.97206 -0.0256966 0)
(3.13118 0.0234757 0)
(2.56264 0.843052 0)
(1.64654 0.112237 0)
(1.66149 -0.0879856 0)
(1.86343 -0.144474 0)
(2.06603 -0.131049 0)
(2.22378 -0.115589 0)
(2.34361 -0.115739 0)
(2.44376 -0.119487 0)
(2.53203 -0.119586 0)
(2.60158 -0.115529 0)
(2.6743 -0.126779 0)
(2.74287 -0.124858 0)
(2.79585 -0.10978 0)
(2.84672 -0.101294 0)
(2.89348 -0.0889682 0)
(2.92445 -0.0794155 0)
(2.94526 -0.0603495 0)
(2.96663 -0.0320949 0)
(3.00407 -0.00106423 0)
(3.01153 0.00146975 0)
(2.77037 0.700477 0)
(1.732 0.157198 0)
(1.7419 0.024694 0)
(1.93843 -0.0383352 0)
(2.13321 -0.0473714 0)
(2.27011 -0.0407943 0)
(2.37868 -0.0400787 0)
(2.47749 -0.0413221 0)
(2.56903 -0.043924 0)
(2.65185 -0.0524845 0)
(2.70292 -0.0447349 0)
(2.72812 -0.055202 0)
(2.76383 -0.0533774 0)
(2.81398 -0.0537406 0)
(2.86508 -0.0491915 0)
(2.90197 -0.0460566 0)
(2.9314 -0.0350936 0)
(2.9678 -0.0274659 0)
(3.01261 -0.0143606 0)
)
;

boundaryField
{
    inlet
    {
        type            fixedValue;
        value           uniform (3 0 0);
    }
    outlet
    {
        type            inletOutlet;
        inletValue      uniform (3 0 0);
        value           nonuniform List<vector> 
20
(
(2.48372 0.0198744 0)
(2.50469 0.0299345 0)
(2.52223 0.0651319 0)
(2.54938 0.073257 0)
(2.57189 0.115295 0)
(2.59357 0.140448 0)
(2.60782 0.170107 0)
(2.61691 0.206301 0)
(2.63255 0.242655 0)
(2.63436 0.296735 0)
(2.64427 0.338523 0)
(2.68528 0.351744 0)
(2.74333 0.352767 0)
(2.8217 0.251317 0)
(2.89605 0.103151 0)
(2.9367 -0.00906677 0)
(2.95725 -0.0125307 0)
(2.97206 -0.0256966 0)
(3.00407 -0.00106423 0)
(3.01261 -0.0143606 0)
)
;
    }
    top
    {
        type            symmetryPlane;
    }
    bottom
    {
        type            symmetryPlane;
    }
    step
    {
        type            slip;
    }
    defaultFaces
    {
        type            empty;
    }
}


// ************************************************************************* //
