/*--------------------------------*- C++ -*----------------------------------*\
  =========                 |
  \\      /  F ield         | OpenFOAM: The Open Source CFD Toolbox
   \\    /   O peration     | Website:  https://openfoam.org
    \\  /    A nd           | Version:  6.0
     \\/     M anipulation  |
\*---------------------------------------------------------------------------*/
FoamFile
{
    version     2.0;
    format      ascii;
    class       volScalarField;
    location    "0.5";
    object      p;
}
// * * * * * * * * * * * * * * * * * * * * * * * * * * * * * * * * * * * * * //

dimensions      [1 -1 -2 0 0 0 0];

internalField   nonuniform List<scalar> 
24000
(
0.704443
0.583131
0.535349
0.50025
0.477523
0.460229
0.448101
0.436514
0.432677
0.433142
0.435533
0.44329
0.464528
0.519159
0.66074
1.05983
2.37749
6.66485
6.5441
6.46333
0.704442
0.583131
0.535349
0.500251
0.477523
0.460229
0.448101
0.436514
0.432675
0.43314
0.435531
0.443287
0.464523
0.519151
0.660724
1.05979
2.37751
6.6649
6.54372
6.46388
0.704442
0.583131
0.535349
0.500251
0.477522
0.460229
0.4481
0.436515
0.432671
0.433136
0.435526
0.44328
0.464512
0.51913
0.660683
1.05971
2.3774
6.66498
6.54228
6.46349
0.704442
0.583131
0.53535
0.500251
0.477522
0.460229
0.4481
0.436515
0.432665
0.433129
0.435519
0.443269
0.464493
0.519094
0.660608
1.05954
2.37707
6.66483
6.53944
6.46108
0.704441
0.583132
0.53535
0.500251
0.477522
0.460229
0.448099
0.436515
0.432656
0.433119
0.435507
0.443252
0.464464
0.519037
0.660487
1.05926
2.37642
6.66389
6.53438
6.45571
0.70444
0.583132
0.535351
0.500251
0.477521
0.46023
0.448098
0.436516
0.432643
0.433106
0.43549
0.443228
0.464421
0.518952
0.660302
1.05881
2.37526
6.66127
6.52647
6.44589
0.70444
0.583133
0.535351
0.500251
0.47752
0.46023
0.448096
0.436517
0.432626
0.433087
0.435467
0.443193
0.464361
0.51883
0.660032
1.05814
2.37337
6.65567
6.5147
6.43096
0.704439
0.583134
0.535352
0.500251
0.477519
0.460231
0.448094
0.436518
0.432603
0.433062
0.435436
0.443147
0.464276
0.518658
0.659645
1.05716
2.37043
6.64557
6.49789
6.41057
0.704439
0.583135
0.535352
0.500251
0.477518
0.460233
0.448092
0.436521
0.432573
0.433029
0.435395
0.443083
0.46416
0.518418
0.659098
1.05576
2.36604
6.62952
6.47468
6.38433
0.704438
0.583136
0.535352
0.500251
0.477516
0.460234
0.448089
0.436524
0.432533
0.432987
0.435341
0.442999
0.464004
0.51809
0.658338
1.05376
2.35956
6.60666
6.44318
6.35125
0.704438
0.583136
0.535352
0.500251
0.477515
0.460237
0.448086
0.436529
0.432483
0.432932
0.435271
0.44289
0.463797
0.517649
0.657302
1.05099
2.35037
6.57451
6.40157
6.30947
0.704437
0.583137
0.535351
0.500251
0.477513
0.46024
0.448081
0.436535
0.432419
0.432862
0.435181
0.442747
0.463527
0.517067
0.655922
1.04725
2.33781
6.53061
6.34802
6.25756
0.704437
0.583138
0.53535
0.500251
0.477511
0.460244
0.448075
0.436542
0.432339
0.432774
0.435067
0.442566
0.463178
0.516311
0.654115
1.04232
2.32116
6.47242
6.28039
6.19348
0.704436
0.583138
0.535348
0.500252
0.477509
0.460249
0.448066
0.436551
0.432239
0.432664
0.434925
0.442336
0.462734
0.515342
0.651783
1.03591
2.2995
6.39698
6.19599
6.11444
0.704436
0.583138
0.535345
0.500253
0.477507
0.460255
0.448055
0.436562
0.432116
0.432529
0.434748
0.442049
0.462173
0.51411
0.648805
1.02769
2.27169
6.30122
6.09191
6.01672
0.704435
0.583137
0.535341
0.500255
0.477503
0.460264
0.448039
0.436576
0.431965
0.432363
0.434531
0.441692
0.461471
0.512558
0.645036
1.01723
2.23637
6.18042
5.9636
5.89537
0.704435
0.583136
0.535336
0.50026
0.477497
0.460276
0.448012
0.436599
0.431781
0.43216
0.434263
0.44125
0.460597
0.51062
0.640305
1.00405
2.19194
6.02838
5.80565
5.74035
0.704435
0.583136
0.535327
0.500269
0.477484
0.460298
0.447968
0.436641
0.431555
0.43191
0.433933
0.440706
0.459521
0.508221
0.634411
0.987513
2.13629
5.83617
5.60998
5.54004
0.704431
0.583137
0.535316
0.500282
0.477466
0.46033
0.447901
0.43671
0.431281
0.431605
0.433528
0.440041
0.458203
0.505264
0.627084
0.966759
2.06669
5.58891
5.36118
5.2676
0.70442
0.583143
0.535307
0.5003
0.477442
0.460373
0.447811
0.436799
0.43096
0.431247
0.433052
0.439248
0.456615
0.50166
0.618031
0.940631
1.97721
5.2602
5.03948
4.87877
1.04736
1.03819
1.01411
0.975235
0.949757
0.926025
0.909
0.892333
0.889799
0.891345
0.897976
0.917516
0.967922
1.09246
1.40467
2.25096
4.98475
14.6999
14.0392
13.7679
1.04736
1.03819
1.01411
0.975235
0.949757
0.926025
0.909
0.892332
0.889796
0.891342
0.897971
0.917509
0.967909
1.09244
1.40461
2.25083
4.98415
14.6982
14.034
13.7571
1.04736
1.03819
1.01411
0.975235
0.949756
0.926026
0.909
0.89233
0.889789
0.891334
0.897962
0.917493
0.967881
1.09238
1.40449
2.25053
4.98297
14.6932
14.0214
13.7323
1.04736
1.03819
1.01411
0.975235
0.949755
0.926026
0.909
0.892328
0.889778
0.891322
0.897946
0.917468
0.967835
1.09229
1.40429
2.25004
4.98104
14.6836
13.9987
13.6932
1.04736
1.03819
1.01411
0.975236
0.949754
0.926026
0.908999
0.892324
0.889763
0.891304
0.897922
0.91743
0.967765
1.09215
1.40398
2.24928
4.97811
14.6672
13.9653
13.6385
1.04736
1.03819
1.01411
0.975236
0.949753
0.926027
0.908999
0.892318
0.889741
0.89128
0.897888
0.917376
0.967665
1.09194
1.40353
2.24815
4.97381
14.642
13.9183
13.5683
1.04736
1.03819
1.01411
0.975236
0.949751
0.926028
0.908998
0.892311
0.889711
0.891246
0.897842
0.9173
0.967523
1.09165
1.40288
2.24652
4.96763
14.6051
13.8548
13.4821
1.04736
1.03819
1.01411
0.975236
0.94975
0.926029
0.908997
0.892303
0.889672
0.891201
0.89778
0.917197
0.967327
1.09124
1.40197
2.24418
4.95885
14.5536
13.773
13.377
1.04736
1.03819
1.01411
0.975237
0.949748
0.92603
0.908995
0.892292
0.88962
0.891142
0.897698
0.917058
0.967059
1.09068
1.40069
2.2409
4.94657
14.4844
13.6697
13.2521
1.04736
1.03819
1.01411
0.975237
0.949745
0.926032
0.908994
0.892278
0.889553
0.891065
0.897589
0.916873
0.966699
1.08992
1.39893
2.23632
4.92942
14.3952
13.5417
13.1056
1.04736
1.03819
1.01411
0.975238
0.949743
0.926034
0.908992
0.892261
0.889466
0.890965
0.897448
0.916631
0.966223
1.08889
1.39656
2.2301
4.90614
14.2808
13.3868
12.9369
1.04736
1.03819
1.01411
0.97524
0.949741
0.926037
0.908989
0.89224
0.889356
0.890838
0.897267
0.916317
0.965602
1.08755
1.39342
2.2218
4.87533
14.1367
13.202
12.7425
1.04736
1.03819
1.01411
0.975242
0.949738
0.92604
0.908985
0.892214
0.889216
0.890678
0.897038
0.915917
0.964803
1.08581
1.38933
2.21095
4.83544
13.9584
12.9828
12.5204
1.04736
1.03819
1.01411
0.975244
0.949735
0.926044
0.908979
0.892181
0.889043
0.890478
0.896751
0.915412
0.963788
1.0836
1.38409
2.19697
4.78462
13.7408
12.7249
12.265
1.04735
1.03819
1.01411
0.975247
0.949731
0.92605
0.90897
0.892142
0.88883
0.890231
0.896395
0.914781
0.962513
1.08079
1.37744
2.17916
4.72059
13.4786
12.4202
11.972
1.04735
1.03819
1.0141
0.975251
0.949726
0.926059
0.908953
0.892098
0.88857
0.889929
0.895955
0.913997
0.96092
1.07728
1.36908
2.15667
4.64067
13.162
12.0678
11.6314
1.04735
1.03818
1.0141
0.975258
0.949718
0.926076
0.90892
0.892056
0.888253
0.88956
0.895415
0.913031
0.958954
1.07293
1.35868
2.12853
4.54189
12.7802
11.6569
11.227
1.04734
1.03818
1.01409
0.975271
0.949705
0.926106
0.908854
0.892052
0.887846
0.889092
0.894748
0.911855
0.956564
1.06762
1.34586
2.09364
4.4207
12.3178
11.184
10.7393
1.04734
1.03817
1.01407
0.975291
0.949687
0.926154
0.908742
0.892119
0.887315
0.888496
0.89393
0.910448
0.953703
1.06119
1.33021
2.05074
4.2729
11.7544
10.632
10.1332
1.04733
1.03816
1.01406
0.97532
0.949664
0.926218
0.908594
0.892223
0.88669
0.887797
0.892974
0.908801
0.950334
1.05356
1.31141
1.99854
4.09348
11.0476
10.0059
9.35054
1.07437
1.133
1.14371
1.14082
1.13335
1.11817
1.10691
1.09661
1.0969
1.09977
1.10993
1.13757
1.2059
1.37056
1.77681
2.86483
6.47417
19.8365
18.4621
17.9155
1.07437
1.133
1.14371
1.14082
1.13335
1.11817
1.10691
1.0966
1.0969
1.09977
1.10992
1.13756
1.20588
1.37052
1.77674
2.86466
6.47317
19.8317
18.4509
17.8908
1.07437
1.133
1.14371
1.14082
1.13335
1.11817
1.10691
1.0966
1.09689
1.09976
1.10991
1.13754
1.20585
1.37045
1.77659
2.86428
6.47119
19.819
18.423
17.8332
1.07437
1.133
1.14371
1.14082
1.13335
1.11817
1.10691
1.09659
1.09688
1.09975
1.10989
1.13751
1.20579
1.37034
1.77633
2.86365
6.46804
19.796
18.3753
17.7445
1.07437
1.133
1.14371
1.14082
1.13335
1.11817
1.10691
1.09658
1.09687
1.09973
1.10987
1.13747
1.20571
1.37016
1.77595
2.8627
6.46333
19.7599
18.3066
17.6282
1.07437
1.133
1.14371
1.14082
1.13335
1.11817
1.10692
1.09657
1.09685
1.09971
1.10983
1.1374
1.20558
1.36991
1.77538
2.86129
6.4565
19.7079
18.2129
17.4863
1.07437
1.133
1.14371
1.14082
1.13335
1.11817
1.10692
1.09655
1.09683
1.09967
1.10978
1.13731
1.2054
1.36954
1.77456
2.85922
6.44679
19.6366
18.0913
17.3186
1.07437
1.133
1.14371
1.14082
1.13335
1.11818
1.10692
1.09652
1.0968
1.09963
1.10971
1.13718
1.20516
1.36902
1.77339
2.85626
6.43316
19.5422
17.9395
17.1237
1.07437
1.133
1.14371
1.14082
1.13335
1.11818
1.10692
1.09649
1.09676
1.09957
1.10961
1.13701
1.20482
1.36831
1.77176
2.85209
6.41445
19.4212
17.7545
16.9012
1.07437
1.133
1.14371
1.14082
1.13335
1.11818
1.10692
1.09645
1.0967
1.09949
1.10948
1.13678
1.20437
1.36734
1.76952
2.84631
6.38932
19.2692
17.5337
16.6493
1.07437
1.133
1.14371
1.14082
1.13335
1.11818
1.10693
1.09639
1.09664
1.09939
1.10932
1.13648
1.20376
1.36603
1.76649
2.83847
6.35593
19.0813
17.2749
16.3686
1.07436
1.133
1.14371
1.14082
1.13335
1.11818
1.10694
1.09632
1.09655
1.09927
1.10911
1.13609
1.20297
1.36432
1.76248
2.82804
6.3124
18.8529
16.9755
16.0543
1.07436
1.133
1.14371
1.14082
1.13335
1.11818
1.10694
1.09623
1.09644
1.09911
1.10884
1.13559
1.20195
1.3621
1.75729
2.81445
6.25667
18.5792
16.63
15.7063
1.07436
1.133
1.14371
1.14082
1.13335
1.11818
1.10695
1.09612
1.0963
1.09891
1.10851
1.13496
1.20067
1.35928
1.75063
2.797
6.18635
18.2533
16.2368
15.3173
1.07436
1.133
1.1437
1.14082
1.13335
1.11819
1.10696
1.09599
1.09613
1.09866
1.10809
1.13418
1.19905
1.35572
1.74222
2.77483
6.09871
17.8708
15.7845
14.8858
1.07436
1.13301
1.1437
1.14082
1.13335
1.11819
1.10696
1.09582
1.09593
1.09836
1.10758
1.13321
1.19705
1.35128
1.73168
2.74695
5.99065
17.4208
15.278
14.397
1.07435
1.13301
1.1437
1.14081
1.13335
1.1182
1.10695
1.09564
1.09569
1.098
1.10696
1.13202
1.19458
1.34582
1.71868
2.71206
5.85852
16.8935
14.7042
13.8429
1.07435
1.13301
1.14369
1.14081
1.13335
1.1182
1.10691
1.09549
1.09536
1.09754
1.10621
1.13059
1.19161
1.33918
1.70276
2.66909
5.69877
16.2716
14.0686
13.198
1.07435
1.133
1.14369
1.14081
1.13335
1.11821
1.10681
1.09544
1.09486
1.09694
1.10531
1.12892
1.18808
1.33122
1.68355
2.61701
5.5085
15.5358
13.3638
12.4361
1.07435
1.13299
1.14369
1.14081
1.13335
1.11823
1.10668
1.09542
1.09427
1.09625
1.10427
1.12698
1.18398
1.32189
1.66074
2.55446
5.28458
14.636
12.6345
11.4885
1.04175
1.10689
1.13743
1.15578
1.16596
1.16577
1.16496
1.16471
1.16618
1.17147
1.18554
1.21951
1.29906
1.48604
1.9419
3.15564
7.32521
23.0848
21.0308
20.1366
1.04175
1.10689
1.13743
1.15578
1.16596
1.16577
1.16496
1.16471
1.16617
1.17147
1.18554
1.2195
1.29905
1.48601
1.94184
3.1555
7.32402
23.0758
21.0142
20.1009
1.04175
1.10689
1.13743
1.15578
1.16596
1.16577
1.16496
1.16471
1.16617
1.17146
1.18553
1.21948
1.29901
1.48595
1.94172
3.1552
7.32169
23.0536
20.9723
20.0139
1.04176
1.10689
1.13743
1.15578
1.16596
1.16577
1.16496
1.1647
1.16616
1.17145
1.18551
1.21946
1.29896
1.48585
1.9415
3.15468
7.31803
23.0152
20.9012
19.8809
1.04176
1.10689
1.13743
1.15578
1.16596
1.16577
1.16496
1.16469
1.16615
1.17144
1.18549
1.21942
1.29889
1.4857
1.94117
3.15386
7.31252
22.9578
20.7997
19.7123
1.04176
1.10689
1.13743
1.15578
1.16596
1.16577
1.16496
1.16467
1.16613
1.17142
1.18546
1.21936
1.29877
1.48546
1.94065
3.15259
7.30441
22.8786
20.6643
19.5127
1.04176
1.10689
1.13743
1.15578
1.16596
1.16578
1.16496
1.16465
1.16611
1.17139
1.18541
1.21927
1.2986
1.48511
1.93988
3.15067
7.29272
22.7741
20.4934
19.2809
1.04176
1.10689
1.13743
1.15578
1.16596
1.16578
1.16497
1.16463
1.16608
1.17135
1.18534
1.21915
1.29836
1.48461
1.93875
3.14782
7.27618
22.6408
20.2844
19.0186
1.04176
1.10689
1.13743
1.15578
1.16596
1.16578
1.16497
1.1646
1.16605
1.1713
1.18526
1.21898
1.29803
1.4839
1.93713
3.14368
7.25338
22.4752
20.036
18.7253
1.04176
1.10689
1.13743
1.15578
1.16597
1.16578
1.16498
1.16455
1.166
1.17123
1.18514
1.21876
1.29757
1.48291
1.93486
3.13785
7.22275
22.273
19.7461
18.3999
1.04175
1.10689
1.13743
1.15578
1.16597
1.16578
1.16498
1.1645
1.16593
1.17114
1.18498
1.21846
1.29696
1.48157
1.93176
3.12986
7.18236
22.0299
19.4135
18.0434
1.04175
1.10689
1.13743
1.15578
1.16597
1.16579
1.16499
1.16442
1.16585
1.17102
1.18478
1.21807
1.29614
1.4798
1.92763
3.11913
7.13012
21.7419
19.0352
17.653
1.04175
1.10689
1.13743
1.15577
1.16598
1.16579
1.165
1.16433
1.16575
1.17087
1.18453
1.21757
1.29509
1.47749
1.92224
3.10504
7.06378
21.4045
18.6091
17.2243
1.04175
1.10689
1.13743
1.15577
1.16598
1.1658
1.16502
1.16422
1.16562
1.17069
1.18421
1.21693
1.29376
1.47454
1.91529
3.08683
6.9809
21.0111
18.1313
16.7589
1.04175
1.10689
1.13743
1.15577
1.16598
1.1658
1.16503
1.16408
1.16546
1.17046
1.18381
1.21614
1.29209
1.47082
1.90647
3.06361
6.87917
20.5568
17.5939
16.2479
1.04174
1.1069
1.13743
1.15577
1.16599
1.1658
1.16504
1.16391
1.16527
1.17019
1.18332
1.21517
1.29001
1.46617
1.89541
3.03438
6.75522
20.031
17.0018
15.6847
1.04174
1.1069
1.13743
1.15576
1.16599
1.1658
1.16504
1.16372
1.16505
1.16987
1.18274
1.21399
1.28746
1.46044
1.88172
2.99799
6.60579
19.4288
16.3428
15.0595
1.04174
1.1069
1.13743
1.15575
1.16598
1.16579
1.16503
1.16351
1.16481
1.16949
1.18204
1.21256
1.28437
1.45346
1.86497
2.95333
6.42682
18.7291
15.6328
14.3495
1.04174
1.10689
1.13743
1.15575
1.16597
1.16577
1.16497
1.16334
1.16456
1.16906
1.18121
1.21085
1.28068
1.4451
1.84478
2.89923
6.21551
17.9187
14.8705
13.5292
1.04175
1.10688
1.13743
1.15574
1.16595
1.16574
1.1649
1.16316
1.16428
1.16856
1.18025
1.20887
1.27639
1.4353
1.82094
2.83416
5.97003
16.9356
14.1265
12.5245
1.01474
1.05622
1.0906
1.11705
1.13645
1.14708
1.15386
1.16008
1.16462
1.17282
1.19022
1.22846
1.31444
1.51271
1.99199
3.26557
7.78989
25.0294
22.4265
21.1909
1.01474
1.05622
1.0906
1.11705
1.13645
1.14708
1.15386
1.16008
1.16462
1.17282
1.19021
1.22846
1.31443
1.51269
1.99197
3.26553
7.78876
25.0161
22.4064
21.1513
1.01474
1.05622
1.0906
1.11705
1.13645
1.14708
1.15386
1.16008
1.16462
1.17282
1.19021
1.22845
1.31441
1.51266
1.99191
3.26541
7.7866
24.9845
22.3534
21.0485
1.01474
1.05622
1.0906
1.11704
1.13645
1.14708
1.15387
1.16007
1.16461
1.17281
1.1902
1.22843
1.31438
1.5126
1.9918
3.26517
7.78315
24.9317
22.2625
20.8872
1.01474
1.05622
1.0906
1.11704
1.13645
1.14708
1.15387
1.16007
1.1646
1.1728
1.19018
1.2284
1.31433
1.51251
1.99161
3.26474
7.77777
24.8552
22.1354
20.6856
1.01474
1.05622
1.0906
1.11704
1.13645
1.14708
1.15387
1.16006
1.16459
1.17278
1.19015
1.22836
1.31424
1.51234
1.99128
3.26396
7.76955
24.7527
21.9699
20.4504
1.01474
1.05622
1.0906
1.11704
1.13645
1.14709
1.15387
1.16005
1.16457
1.17276
1.19012
1.22829
1.31412
1.51209
1.99073
3.26262
7.75733
24.6212
21.7657
20.1808
1.01474
1.05622
1.0906
1.11704
1.13645
1.14709
1.15388
1.16003
1.16455
1.17273
1.19006
1.22819
1.31393
1.51169
1.98985
3.26043
7.73972
24.4581
21.5201
19.8802
1.01474
1.05622
1.0906
1.11704
1.13645
1.14709
1.15388
1.16001
1.16452
1.17268
1.18999
1.22805
1.31364
1.51109
1.98851
3.25704
7.71513
24.26
21.2334
19.5474
1.01474
1.05622
1.0906
1.11704
1.13645
1.14709
1.15389
1.15999
1.16449
1.17263
1.18989
1.22786
1.31324
1.51023
1.98655
3.252
7.68187
24.0239
20.9034
19.1843
1.01474
1.05622
1.0906
1.11704
1.13646
1.14709
1.1539
1.15995
1.16444
1.17255
1.18975
1.22759
1.31269
1.50903
1.98379
3.24487
7.6379
23.7462
20.5294
18.7892
1.01474
1.05622
1.0906
1.11704
1.13646
1.14709
1.15391
1.15991
1.16438
1.17245
1.18957
1.22724
1.31194
1.5074
1.98002
3.23503
7.58117
23.4234
20.1099
18.3625
1.01474
1.05622
1.0906
1.11704
1.13646
1.14709
1.15392
1.15986
1.16431
1.17233
1.18934
1.22678
1.31097
1.50525
1.975
3.22184
7.50936
23.0508
19.6437
17.8984
1.01474
1.05622
1.09061
1.11704
1.13647
1.14708
1.15394
1.15979
1.16421
1.17217
1.18905
1.22619
1.30972
1.50247
1.96844
3.20454
7.42014
22.6229
19.1276
17.3993
1.01474
1.05622
1.09061
1.11703
1.13647
1.14708
1.15395
1.1597
1.1641
1.17198
1.18869
1.22545
1.30813
1.49892
1.96003
3.1823
7.31119
22.1349
18.5571
16.8559
1.01474
1.05622
1.09061
1.11703
1.13648
1.14707
1.15397
1.15959
1.16396
1.17175
1.18825
1.22454
1.30616
1.49448
1.94943
3.15416
7.17922
21.5765
17.9339
16.2667
1.01474
1.05622
1.09061
1.11702
1.13648
1.14706
1.15398
1.15947
1.16381
1.17148
1.18772
1.22343
1.30373
1.48896
1.9362
3.11895
7.02163
20.9454
17.25
15.6175
1.01474
1.05622
1.09062
1.11702
1.13648
1.14704
1.15399
1.15932
1.16366
1.17118
1.18709
1.22208
1.30076
1.48221
1.91995
3.07556
6.83456
20.2209
16.5199
14.8912
1.01474
1.05621
1.09062
1.11701
1.13648
1.147
1.15398
1.15917
1.16353
1.17085
1.18637
1.22048
1.2972
1.47405
1.90024
3.02268
6.61458
19.3874
15.7552
14.0568
1.01474
1.05621
1.09062
1.117
1.13647
1.14696
1.15396
1.159
1.1634
1.1705
1.18554
1.21863
1.29303
1.46445
1.8768
2.95916
6.36053
18.3822
15.0277
13.0334
1.00392
1.02026
1.0439
1.06716
1.08771
1.10332
1.11494
1.12513
1.13285
1.14228
1.16147
1.20208
1.29114
1.49387
1.9813
3.27745
8.02126
26.0927
23.0835
21.593
1.00392
1.02026
1.0439
1.06716
1.08771
1.10332
1.11494
1.12513
1.13285
1.14228
1.16147
1.20208
1.29113
1.49388
1.98132
3.27754
8.02049
26.0756
23.0624
21.5546
1.00392
1.02026
1.0439
1.06716
1.08771
1.10332
1.11495
1.12512
1.13285
1.14227
1.16147
1.20208
1.29113
1.49388
1.98135
3.27767
8.01897
26.0359
23.0029
21.447
1.00392
1.02026
1.0439
1.06716
1.08771
1.10332
1.11495
1.12512
1.13285
1.14227
1.16146
1.20207
1.29113
1.49387
1.98137
3.27781
8.01634
25.9713
22.8995
21.2717
1.00392
1.02026
1.0439
1.06716
1.08771
1.10332
1.11495
1.12512
1.13284
1.14226
1.16145
1.20206
1.29111
1.49385
1.98136
3.27788
8.01179
25.8798
22.757
21.0547
1.00392
1.02026
1.0439
1.06716
1.08771
1.10332
1.11495
1.12512
1.13283
1.14225
1.16144
1.20203
1.29107
1.49379
1.98126
3.27776
8.00431
25.76
22.575
20.8044
1.00392
1.02026
1.0439
1.06716
1.08771
1.10332
1.11495
1.12512
1.13282
1.14224
1.16142
1.20199
1.291
1.49366
1.98101
3.27723
7.99265
25.6098
22.3532
20.5211
1.00392
1.02026
1.0439
1.06716
1.08771
1.10331
1.11495
1.12511
1.13281
1.14222
1.16138
1.20193
1.29087
1.49341
1.98049
3.27599
7.97534
25.4271
22.0904
20.2068
1.00392
1.02026
1.0439
1.06716
1.08772
1.10331
1.11496
1.1251
1.13279
1.14219
1.16133
1.20183
1.29067
1.49298
1.97958
3.27371
7.95071
25.2094
21.7861
19.862
1.00392
1.02026
1.0439
1.06716
1.08772
1.10331
1.11496
1.12509
1.13277
1.14215
1.16125
1.20168
1.29036
1.49232
1.97811
3.26993
7.91703
24.9546
21.4401
19.4871
1.00392
1.02026
1.0439
1.06716
1.08772
1.10331
1.11497
1.12508
1.13274
1.14209
1.16115
1.20146
1.28991
1.49135
1.9759
3.26417
7.87215
24.659
21.051
19.0822
1.00392
1.02026
1.0439
1.06716
1.08772
1.10331
1.11498
1.12506
1.13271
1.14203
1.161
1.20117
1.28928
1.48998
1.97271
3.25577
7.81415
24.321
20.6176
18.6462
1.00392
1.02026
1.0439
1.06716
1.08773
1.1033
1.11499
1.12504
1.13267
1.14193
1.16081
1.20077
1.28844
1.4881
1.96833
3.24418
7.74078
23.9343
20.1404
18.1757
1.00392
1.02026
1.04391
1.06716
1.08773
1.1033
1.115
1.12501
1.13261
1.14182
1.16057
1.20026
1.28732
1.48562
1.96247
3.22865
7.6497
23.4949
19.6166
17.6697
1.00392
1.02026
1.04391
1.06715
1.08774
1.10329
1.11501
1.12497
1.13255
1.14168
1.16027
1.1996
1.2859
1.48241
1.95485
3.20833
7.53854
22.9986
19.0433
17.1222
1.00392
1.02026
1.04391
1.06715
1.08775
1.10327
1.11503
1.12492
1.13248
1.14151
1.15989
1.19878
1.2841
1.47833
1.94512
3.18235
7.40422
22.4352
18.4207
16.5306
1.00391
1.02026
1.04391
1.06714
1.08775
1.10325
1.11504
1.12486
1.1324
1.14131
1.15944
1.19778
1.28186
1.47322
1.93285
3.14951
7.24402
21.801
17.7453
15.8809
1.00391
1.02026
1.04391
1.06714
1.08776
1.10323
1.11506
1.12478
1.13233
1.14109
1.1589
1.19656
1.27911
1.46692
1.91763
3.10867
7.05452
21.0788
17.0268
15.1534
1.00391
1.02026
1.04392
1.06713
1.08776
1.10319
1.11507
1.12468
1.13227
1.14085
1.15828
1.1951
1.27579
1.45925
1.89901
3.05848
6.83188
20.2479
16.2852
14.3222
1.00391
1.02026
1.04392
1.06712
1.08777
1.10314
1.11509
1.12456
1.13222
1.14058
1.15756
1.1934
1.27187
1.45013
1.87666
2.99777
6.57617
19.2527
15.5834
13.283
1.00091
1.00506
1.01418
1.0286
1.0445
1.05883
1.07115
1.08192
1.09124
1.10095
1.12061
1.16185
1.25156
1.4547
1.94215
3.24117
8.119
26.596
23.3088
21.6728
1.00091
1.00506
1.01418
1.0286
1.0445
1.05883
1.07115
1.08192
1.09124
1.10095
1.12061
1.16186
1.25157
1.45473
1.94222
3.2414
8.1188
26.5757
23.2881
21.6371
1.00091
1.00506
1.01418
1.0286
1.0445
1.05883
1.07115
1.08192
1.09123
1.10095
1.12061
1.16186
1.25158
1.45477
1.94235
3.24183
8.1182
26.5294
23.2267
21.5302
1.00091
1.00506
1.01418
1.0286
1.0445
1.05883
1.07115
1.08192
1.09123
1.10094
1.12062
1.16187
1.2516
1.45483
1.94252
3.24241
8.11668
26.4554
23.1183
21.3506
1.00091
1.00506
1.01418
1.0286
1.0445
1.05883
1.07115
1.08192
1.09123
1.10094
1.12062
1.16187
1.25163
1.45489
1.94272
3.24307
8.11332
26.3531
22.97
21.1308
1.00091
1.00506
1.01418
1.0286
1.0445
1.05883
1.07115
1.08192
1.09123
1.10094
1.12061
1.16187
1.25164
1.45494
1.9429
3.24367
8.10702
26.2217
22.7828
20.8793
1.00091
1.00506
1.01418
1.0286
1.0445
1.05883
1.07115
1.08192
1.09122
1.10093
1.1206
1.16186
1.25163
1.45495
1.94299
3.244
8.09648
26.0601
22.5565
20.5968
1.00091
1.00506
1.01418
1.0286
1.0445
1.05883
1.07115
1.08192
1.09121
1.10092
1.12059
1.16184
1.25158
1.45487
1.94288
3.2438
8.08022
25.8667
22.2906
20.2842
1.00091
1.00506
1.01418
1.02859
1.0445
1.05883
1.07115
1.08192
1.09121
1.10091
1.12056
1.16178
1.25147
1.45465
1.94246
3.24271
8.05654
25.6395
21.984
19.9424
1.00091
1.00506
1.01418
1.02859
1.0445
1.05883
1.07115
1.08192
1.0912
1.10089
1.12051
1.16168
1.25127
1.45424
1.94155
3.24028
8.02368
25.3773
21.6382
19.5705
1.00091
1.00506
1.01418
1.02859
1.04451
1.05882
1.07115
1.08192
1.09119
1.10085
1.12044
1.16153
1.25095
1.45354
1.93997
3.236
7.97946
25.0757
21.2511
19.1699
1.00091
1.00506
1.01418
1.02859
1.04451
1.05882
1.07116
1.08191
1.09117
1.10081
1.12034
1.16131
1.25046
1.45246
1.93747
3.22922
7.92216
24.7346
20.8214
18.7389
1.00091
1.00506
1.01418
1.02859
1.04451
1.05882
1.07116
1.08191
1.09115
1.10075
1.1202
1.16099
1.24977
1.45091
1.93385
3.21945
7.84953
24.3466
20.3493
18.2746
1.00091
1.00506
1.01418
1.02859
1.04451
1.05881
1.07117
1.0819
1.09113
1.10068
1.12001
1.16057
1.24883
1.4488
1.92887
3.20602
7.75914
23.9096
19.8332
17.7749
1.00091
1.00506
1.01418
1.02859
1.04452
1.0588
1.07118
1.08188
1.09111
1.10058
1.11977
1.16002
1.2476
1.44599
1.92217
3.1879
7.6485
23.418
19.2717
17.2343
1.00091
1.00506
1.01418
1.02859
1.04452
1.05879
1.07119
1.08186
1.09108
1.10047
1.11947
1.15931
1.246
1.44236
1.91345
3.16433
7.51474
22.8629
18.663
16.6496
1.00091
1.00506
1.01418
1.02859
1.04453
1.05877
1.0712
1.08183
1.09105
1.10033
1.11909
1.15843
1.24399
1.43773
1.90229
3.13413
7.35502
22.2386
18.0067
16.0062
1.00091
1.00506
1.01418
1.02858
1.04454
1.05875
1.07121
1.08179
1.09103
1.10017
1.11864
1.15734
1.24149
1.43195
1.88827
3.09615
7.1662
21.5305
17.3099
15.2828
1.00091
1.00506
1.01418
1.02858
1.04454
1.05872
1.07123
1.08173
1.09101
1.09998
1.1181
1.15603
1.23844
1.42484
1.87092
3.049
6.94374
20.713
16.5966
14.4542
1.00091
1.00506
1.01419
1.02857
1.04455
1.05868
1.07126
1.08167
1.091
1.09977
1.11747
1.15447
1.2348
1.41629
1.84987
2.99138
6.68909
19.7396
15.9178
13.4018
1.0001
1.00063
1.00236
1.00675
1.01562
1.02502
1.03489
1.04373
1.05284
1.06245
1.08194
1.12282
1.21168
1.4128
1.89542
3.18627
8.14843
26.7804
23.325
21.6246
1.0001
1.00063
1.00236
1.00675
1.01562
1.02502
1.03489
1.04373
1.05284
1.06245
1.08195
1.12283
1.2117
1.41284
1.89551
3.18655
8.14885
26.7574
23.3058
21.5891
1.0001
1.00063
1.00236
1.00675
1.01562
1.02502
1.03489
1.04373
1.05284
1.06246
1.08195
1.12284
1.21173
1.41293
1.89573
3.18717
8.14922
26.7053
23.2456
21.4832
1.0001
1.00063
1.00236
1.00675
1.01562
1.02502
1.03489
1.04373
1.05283
1.06246
1.08196
1.12286
1.21178
1.41305
1.89606
3.18815
8.14879
26.6239
23.1379
21.3031
1.0001
1.00063
1.00236
1.00675
1.01562
1.02502
1.03489
1.04373
1.05283
1.06246
1.08196
1.12288
1.21184
1.4132
1.89648
3.18942
8.14654
26.5138
22.9905
21.0861
1.0001
1.00063
1.00236
1.00675
1.01562
1.02502
1.03489
1.04373
1.05283
1.06246
1.08197
1.1229
1.2119
1.41337
1.89693
3.1908
8.14136
26.3752
22.8047
20.84
1.0001
1.00063
1.00236
1.00675
1.01562
1.02502
1.03489
1.04373
1.05283
1.06246
1.08198
1.12292
1.21195
1.41351
1.89735
3.19204
8.13197
26.2072
22.5817
20.5644
1.0001
1.00063
1.00236
1.00675
1.01562
1.02502
1.03489
1.04373
1.05283
1.06246
1.08198
1.12293
1.21198
1.4136
1.89765
3.19287
8.1169
26.0087
22.3206
20.259
1.0001
1.00063
1.00236
1.00675
1.01562
1.02502
1.03489
1.04373
1.05282
1.06245
1.08197
1.12291
1.21196
1.41358
1.8977
3.19297
8.09448
25.7781
22.0202
19.9257
1.0001
1.00063
1.00236
1.00675
1.01562
1.02502
1.03489
1.04374
1.05282
1.06244
1.08194
1.12286
1.21186
1.41338
1.89735
3.19187
8.06292
25.5145
21.6813
19.5632
1.0001
1.00063
1.00236
1.00675
1.01562
1.02502
1.03489
1.04374
1.05282
1.06243
1.0819
1.12277
1.21165
1.41294
1.8964
3.18905
8.02009
25.2136
21.3034
19.1713
1.0001
1.00063
1.00236
1.00675
1.01562
1.02502
1.03489
1.04374
1.05281
1.0624
1.08183
1.12261
1.2113
1.41215
1.89459
3.18395
7.96421
24.8749
20.8846
18.7496
1.0001
1.00063
1.00236
1.00675
1.01562
1.02501
1.03489
1.04373
1.05281
1.06237
1.08173
1.12237
1.21076
1.41092
1.8918
3.17636
7.89304
24.4917
20.4238
18.2947
1.0001
1.00063
1.00236
1.00676
1.01562
1.02501
1.03489
1.04373
1.05281
1.06232
1.08159
1.12203
1.20999
1.4092
1.88776
3.16508
7.80419
24.0631
19.9193
17.8051
1.0001
1.00063
1.00236
1.00676
1.01562
1.025
1.0349
1.04373
1.0528
1.06225
1.0814
1.12157
1.20894
1.40679
1.88198
3.14914
7.695
23.5809
19.3723
17.2735
1.0001
1.00063
1.00236
1.00676
1.01562
1.025
1.0349
1.04372
1.0528
1.06217
1.08115
1.12096
1.20754
1.40356
1.87422
3.12786
7.56275
23.0385
18.7789
16.6971
1.0001
1.00063
1.00236
1.00676
1.01562
1.02499
1.03491
1.0437
1.0528
1.06207
1.08084
1.12018
1.20573
1.39937
1.86407
3.10015
7.40458
22.4274
18.1411
16.0602
1.0001
1.00063
1.00236
1.00676
1.01563
1.02497
1.03492
1.04368
1.0528
1.06194
1.08044
1.11921
1.20345
1.39406
1.85114
3.06485
7.21756
21.7358
17.4632
15.3413
1.0001
1.00063
1.00236
1.00676
1.01563
1.02495
1.03493
1.04365
1.05281
1.06179
1.07996
1.118
1.20063
1.38745
1.83495
3.02058
6.99667
20.9347
16.7721
14.5128
1.0001
1.00063
1.00236
1.00676
1.01563
1.02493
1.03495
1.04362
1.05281
1.06161
1.07939
1.11656
1.19723
1.37942
1.81509
2.96588
6.74389
19.9845
16.1099
13.4502
0.99987
0.999339
0.998947
0.999273
1.00092
1.00471
1.01061
1.01647
1.02451
1.03394
1.05311
1.09338
1.18101
1.37949
1.85589
3.13548
8.15031
26.8164
23.2797
21.5473
0.99987
0.999339
0.998947
0.999273
1.00092
1.00471
1.01061
1.01647
1.02451
1.03394
1.05311
1.09339
1.18103
1.37954
1.85597
3.1357
8.15126
26.7907
23.2611
21.5105
0.99987
0.999339
0.998947
0.999273
1.00092
1.00471
1.01061
1.01647
1.02451
1.03394
1.05312
1.09341
1.18108
1.37966
1.85621
3.13621
8.15244
26.734
23.2023
21.405
0.99987
0.999339
0.998947
0.999273
1.00092
1.00471
1.01061
1.01647
1.02451
1.03395
1.05313
1.09344
1.18115
1.37983
1.85664
3.13711
8.15308
26.647
23.0964
21.2267
0.99987
0.999339
0.998947
0.999273
1.00092
1.00471
1.01061
1.01647
1.0245
1.03395
1.05314
1.09348
1.18125
1.38006
1.85726
3.13846
8.15201
26.5315
22.9515
21.0138
0.99987
0.999339
0.998947
0.999273
1.00092
1.00471
1.01061
1.01647
1.0245
1.03396
1.05316
1.09352
1.18135
1.38032
1.85796
3.14043
8.14774
26.3884
22.7693
20.774
0.99987
0.999339
0.998947
0.999273
1.00092
1.00471
1.01061
1.01647
1.0245
1.03396
1.05317
1.09356
1.18145
1.38058
1.85868
3.1425
8.13917
26.2169
22.5513
20.5057
0.99987
0.999339
0.998947
0.999273
1.00092
1.00471
1.01061
1.01647
1.0245
1.03396
1.05318
1.09359
1.18153
1.3808
1.85932
3.14428
8.125
26.0162
22.2966
20.2081
0.99987
0.999339
0.998947
0.999273
1.00092
1.00471
1.0106
1.01647
1.0245
1.03396
1.05319
1.0936
1.18158
1.38093
1.85977
3.14544
8.10356
25.7849
22.0038
19.8832
0.99987
0.999339
0.998947
0.999273
1.00092
1.00471
1.0106
1.01647
1.0245
1.03396
1.05318
1.09358
1.18156
1.38092
1.85987
3.14556
8.07309
25.522
21.6729
19.5295
0.99987
0.999339
0.998947
0.999273
1.00092
1.00471
1.0106
1.01647
1.0245
1.03395
1.05316
1.09353
1.18144
1.38068
1.85944
3.14411
8.03144
25.2238
21.3041
19.1458
0.99987
0.999339
0.998947
0.999273
1.00092
1.00471
1.0106
1.01647
1.0245
1.03394
1.05311
1.09342
1.18119
1.38012
1.85824
3.14099
7.97644
24.8889
20.8956
18.7324
0.99987
0.999339
0.998947
0.999273
1.00092
1.00471
1.0106
1.01647
1.0245
1.03391
1.05303
1.09323
1.18076
1.37918
1.85631
3.13569
7.90634
24.5118
20.4456
18.2853
0.99987
0.999339
0.998947
0.999272
1.00092
1.00471
1.0106
1.01647
1.02451
1.03388
1.05292
1.09295
1.18013
1.37778
1.85312
3.12608
7.81879
24.0913
19.9508
17.8041
0.99987
0.999339
0.998947
0.999272
1.00092
1.00471
1.01061
1.01647
1.02451
1.03383
1.05277
1.09256
1.17923
1.37571
1.84827
3.11231
7.71074
23.6184
19.4148
17.2799
0.99987
0.99934
0.998947
0.999272
1.00091
1.00471
1.01061
1.01647
1.02452
1.03377
1.05255
1.09203
1.17799
1.37281
1.84128
3.09276
7.57978
23.0873
18.8328
16.7101
0.99987
0.99934
0.998947
0.999272
1.00091
1.0047
1.01061
1.01646
1.02453
1.03368
1.05227
1.09132
1.17633
1.36895
1.83191
3.06692
7.42309
22.4873
18.2078
16.0781
0.99987
0.99934
0.998947
0.999272
1.00091
1.0047
1.01062
1.01645
1.02454
1.03357
1.05191
1.09041
1.17421
1.36398
1.81979
3.03361
7.23778
21.809
17.5424
15.3628
0.99987
0.99934
0.998947
0.999272
1.00091
1.0047
1.01062
1.01644
1.02455
1.03344
1.05146
1.08928
1.17155
1.35775
1.80448
2.99153
7.01856
21.0214
16.8648
14.5344
0.99987
0.99934
0.998947
0.999272
1.00091
1.00469
1.01063
1.01643
1.02456
1.03327
1.05092
1.08792
1.16831
1.3501
1.78551
2.93905
6.76754
20.0896
16.2122
13.4685
0.999834
0.999159
0.998081
0.996634
0.996512
0.996971
0.998596
1.00222
1.00956
1.01891
1.0379
1.0778
1.16463
1.36135
1.83354
3.10329
8.14799
26.8111
23.2431
21.4974
0.999834
0.999159
0.998081
0.996634
0.996512
0.996971
0.998596
1.00222
1.00956
1.01891
1.03791
1.07781
1.16466
1.36141
1.83369
3.10376
8.14919
26.7835
23.2247
21.4591
0.999834
0.999159
0.998081
0.996634
0.996512