/*--------------------------------*- C++ -*----------------------------------*\
  =========                 |
  \\      /  F ield         | OpenFOAM: The Open Source CFD Toolbox
   \\    /   O peration     | Website:  https://openfoam.org
    \\  /    A nd           | Version:  6.0
     \\/     M anipulation  |
\*---------------------------------------------------------------------------*/
FoamFile
{
    version     2.0;
    format      ascii;
    class       surfaceScalarField;
    location    "0.5";
    object      phi;
}
// * * * * * * * * * * * * * * * * * * * * * * * * * * * * * * * * * * * * * //

dimensions      [1 0 -1 0 0 0 0];

internalField   nonuniform List<scalar> 
69200
(
0.000164266
1.45276e-11
4.68208e-05
0.000147781
-1.61886e-11
1.65329e-05
0.000140502
-2.26275e-11
7.23383e-06
0.000135166
5.56658e-12
5.28389e-06
0.000131617
4.10816e-11
3.60147e-06
0.00012902
5.02837e-11
2.63167e-06
0.000126823
8.81802e-11
2.15707e-06
0.000125161
8.66016e-11
1.64408e-06
0.000124153
3.68177e-10
1.0192e-06
0.000122919
7.10897e-10
1.25126e-06
0.000121476
1.14285e-09
1.46179e-06
0.000119851
1.77173e-09
1.63383e-06
0.000118004
2.86119e-09
1.83458e-06
0.000115615
5.0638e-09
2.3536e-06
0.000111793
1.00472e-08
3.7724e-06
0.000105367
2.20707e-08
6.40152e-06
0.000106
3.65475e-08
-8.71288e-07
0.000124054
-1.20232e-07
-1.87727e-05
6.64087e-05
-2.35765e-07
5.67645e-05
1.31557e-06
6.00035e-05
0.000164266
2.58782e-11
4.68207e-05
0.000147781
-3.3787e-11
1.6533e-05
0.000140502
-4.08017e-11
7.23385e-06
0.000135166
1.82581e-11
5.28389e-06
0.000131616
9.14662e-11
3.60142e-06
0.000129019
1.07239e-10
2.63171e-06
0.000126823
1.86392e-10
2.15701e-06
0.000125161
1.81347e-10
1.64417e-06
0.000124153
7.88385e-10
1.01917e-06
0.000122919
1.51449e-09
1.25111e-06
0.000121476
2.43896e-09
1.46159e-06
0.000119851
3.80836e-09
1.63364e-06
0.000118003
6.22883e-09
1.83446e-06
0.000115613
1.12453e-08
2.35358e-06
0.00011179
2.31084e-08
3.77185e-06
0.000105353
5.29525e-08
6.40422e-06
0.00010605
1.25679e-07
-9.86464e-07
0.000123637
4.02199e-07
-1.89357e-05
6.50061e-05
1.01507e-06
5.61204e-05
4.79866e-06
5.65227e-05
0.000164266
3.19369e-11
4.68206e-05
0.000147781
-5.32277e-11
1.65331e-05
0.000140502
-5.28636e-11
7.23388e-06
0.000135165
3.93801e-11
5.28389e-06
0.000131616
1.51153e-10
3.60131e-06
0.000129019
1.70327e-10
2.63178e-06
0.000126823
2.93557e-10
2.1569e-06
0.000125161
2.74676e-10
1.64439e-06
0.000124153
1.25711e-09
1.01912e-06
0.000122919
2.42488e-09
1.2509e-06
0.000121476
3.92211e-09
1.46133e-06
0.00011985
6.17593e-09
1.63348e-06
0.000118002
1.02385e-08
1.83458e-06
0.00011561
1.88486e-08
2.35433e-06
0.000111782
3.98694e-08
3.77349e-06
0.000105328
9.64109e-08
6.40973e-06
0.000106047
2.64297e-07
-1.04979e-06
0.00012344
1.40081e-06
-1.91694e-05
6.40335e-05
3.45339e-06
5.56235e-05
1.0501e-05
5.3402e-05
0.000164266
3.04065e-11
4.68205e-05
0.000147782
-7.3522e-11
1.65332e-05
0.000140502
-5.57523e-11
7.23391e-06
0.000135164
7.1539e-11
5.28389e-06
0.000131616
2.22376e-10
3.60115e-06
0.000129019
2.36989e-10
2.6319e-06
0.000126823
4.03757e-10
2.15674e-06
0.000125161
3.58232e-10
1.64475e-06
0.000124153
1.78777e-09
1.01906e-06
0.000122919
3.47468e-09
1.25058e-06
0.000121476
5.65185e-09
1.46096e-06
0.00011985
8.98093e-09
1.63329e-06
0.000118001
1.50941e-08
1.83483e-06
0.000115605
2.83017e-08
2.35547e-06
0.000111771
6.13215e-08
3.77606e-06
0.000105297
1.54334e-07
6.4167e-06
0.000106058
4.63009e-07
-1.14235e-06
0.000123041
3.21768e-06
-1.95223e-05
6.31793e-05
7.37029e-06
5.45429e-05
1.82815e-05
5.05394e-05
0.000164267
1.94422e-11
4.68203e-05
0.000147782
-8.98852e-11
1.65334e-05
0.000140502
-4.69561e-11
7.23394e-06
0.000135163
1.17559e-10
5.28387e-06
0.000131615
3.0545e-10
3.60095e-06
0.000129019
3.0335e-10
2.63208e-06
0.000126823
5.1328e-10
2.1565e-06
0.000125161
4.24134e-10
1.6453e-06
0.000124152
2.3952e-09
1.01896e-06
0.000122919
4.70421e-09
1.25013e-06
0.000121476
7.70285e-09
1.46044e-06
0.00011985
1.23583e-08
1.633e-06
0.000117999
2.10571e-08
1.8351e-06
0.000115599
4.01659e-08
2.35679e-06
0.000111756
8.88262e-08
3.77892e-06
0.000105262
2.3007e-07
6.42349e-06
0.000106081
7.3356e-07
-1.26838e-06
0.000122476
6.14675e-06
-1.99924e-05
6.23902e-05
1.29115e-05
5.30823e-05
2.82052e-05
4.7702e-05
0.000164267
5.23069e-12
4.68202e-05
0.000147782
-1.00001e-10
1.65335e-05
0.000140502
-2.68709e-11
7.23395e-06
0.000135162
1.73536e-10
5.28387e-06
0.000131614
3.90308e-10
3.60071e-06
0.000129019
3.57352e-10
2.63232e-06
0.000126823
6.1219e-10
2.15618e-06
0.00012516
4.67535e-10
1.64607e-06
0.000124152
3.10527e-09
1.01883e-06
0.000122919
6.17299e-09
1.2495e-06
0.000121477
1.01756e-08
1.4597e-06
0.00011985
1.64758e-08
1.63256e-06
0.000117997
2.84366e-08
1.83534e-06
0.000115592
5.50899e-08
2.35819e-06
0.000111739
1.23951e-07
3.78175e-06
0.000105221
3.27169e-07
6.42896e-06
0.000106109
1.09032e-06
-1.42444e-06
0.00012171
1.0512e-05
-2.0586e-05
6.17614e-05
2.03023e-05
5.10588e-05
3.97976e-05
4.55027e-05
0.000164267
-7.14209e-12
4.68201e-05
0.000147783
-1.0174e-10
1.65337e-05
0.000140502
7.78241e-12
7.23391e-06
0.000135161
2.42077e-10
5.28387e-06
0.000131613
4.68754e-10
3.60043e-06
0.000129019
3.7329e-10
2.63265e-06
0.000126824
6.76519e-10
2.15577e-06
0.00012516
4.67785e-10
1.64712e-06
0.000124152
3.94412e-09
1.01865e-06
0.00012292
7.94981e-09
1.24865e-06
0.000121477
1.31916e-08
1.45869e-06
0.00011985
2.15414e-08
1.63189e-06
0.000117994
3.76227e-08
1.83548e-06
0.000115583
7.39202e-08
2.35957e-06
0.000111717
1.68846e-07
3.78447e-06
0.000105173
4.53021e-07
6.43111e-06
0.000106087
1.56242e-06
-1.56928e-06
0.000120961
1.62754e-05
-2.12066e-05
6.13628e-05
2.95693e-05
4.88397e-05
5.28235e-05
4.37337e-05
0.000164268
-1.23344e-11
4.682e-05
0.000147783
-9.34593e-11
1.65338e-05
0.000140502
6.43163e-11
7.23386e-06
0.000135159
3.10234e-10
5.28391e-06
0.000131613
5.1855e-10
3.60013e-06
0.000129019
3.33351e-10
2.63304e-06
0.000126824
7.01365e-10
2.15522e-06
0.00012516
4.12443e-10
1.64851e-06
0.000124152
4.93403e-09
1.01845e-06
0.00012292
1.00992e-08
1.24756e-06
0.000121478
1.6877e-08
1.45734e-06
0.000119849
2.77908e-08
1.63095e-06
0.00011799
4.9085e-08
1.83547e-06
0.000115572
9.77039e-08
2.3608e-06
0.000111691
2.26203e-07
3.78665e-06
0.000105116
6.15787e-07
6.42832e-06
0.000106019
2.17657e-06
-1.70753e-06
0.000120211
2.34139e-05
-2.18586e-05
6.11828e-05
4.066e-05
4.64749e-05
6.72422e-05
4.22219e-05
0.000164268
-6.13082e-12
4.68199e-05
0.000147783
-7.07557e-11
1.65339e-05
0.000140502
1.42758e-10
7.23378e-06
0.000135157
3.53871e-10
5.28403e-06
0.000131612
5.14873e-10
3.59981e-06
0.000129019
2.32367e-10
2.63348e-06
0.000126825
7.0765e-10
2.15445e-06
0.000125159
3.18657e-10
1.6503e-06
0.000124151
6.11736e-09
1.01821e-06
0.00012292
1.27039e-08
1.24615e-06
0.000121479
2.13833e-08
1.4556e-06
0.000119849
3.55074e-08
1.62967e-06
0.000117986
6.34013e-08
1.83524e-06
0.000115559
1.27787e-07
2.36171e-06
0.00011166
2.99704e-07
3.78763e-06
0.000105049
8.27677e-07
6.41969e-06
0.000105892
2.98189e-06
-1.85058e-06
0.000119483
3.1805e-05
-2.24897e-05
6.11326e-05
5.36578e-05
4.38866e-05
8.32151e-05
4.06293e-05
0.000164268
1.28668e-11
4.68197e-05
0.000147783
-3.12957e-11
1.65342e-05
0.000140501
2.34458e-10
7.23363e-06
0.000135156
3.73115e-10
5.28419e-06
0.000131611
4.78363e-10
3.59939e-06
0.000129019
9.68679e-11
2.63396e-06
0.000126826
7.2493e-10
2.15345e-06
0.000125159
1.99571e-10
1.65258e-06
0.000124151
7.54829e-09
1.01793e-06
0.000122921
1.58693e-08
1.24436e-06
0.00012148
2.68862e-08
1.45334e-06
0.00011985
4.49943e-08
1.62795e-06
0.000117982
8.11553e-08
1.83465e-06
0.000115545
1.65455e-07
2.3619e-06
0.000111626
3.92668e-07
3.78622e-06
0.000104978
1.09919e-06
6.40155e-06
0.000105695
4.02457e-06
-1.97318e-06
0.000118887
4.17931e-05
-2.36468e-05
6.11822e-05
6.85408e-05
4.13642e-05
0.000100919
3.90333e-05
0.000164269
4.07305e-11
4.68195e-05
0.000147783
2.61524e-11
1.65347e-05
0.000140501
3.4613e-10
7.23333e-06
0.000135154
3.98531e-10
5.2844e-06
0.00013161
4.45358e-10
3.59884e-06
0.000129018
-5.31063e-11
2.6345e-06
0.000126827
7.55012e-10
2.15229e-06
0.000125158
4.31149e-11
1.65543e-06
0.00012415
9.30256e-09
1.01762e-06
0.000122921
1.97258e-08
1.24208e-06
0.000121482
3.35789e-08
1.45042e-06
0.000119851
5.65414e-08
1.62564e-06
0.000117978
1.02844e-07
1.83355e-06
0.000115531
2.11725e-07
2.36095e-06
0.000111594
5.0749e-07
3.78099e-06
0.000104913
1.43628e-06
6.36895e-06
0.000105498
5.30604e-06
-2.10138e-06
0.000118362
5.35984e-05
-2.51076e-05
6.13262e-05
8.52818e-05
3.88535e-05
0.000120289
3.75914e-05
0.000164269
4.94243e-11
4.68191e-05
0.000147783
1.33344e-10
1.65354e-05
0.000140501
4.93457e-10
7.23284e-06
0.000135152
4.66038e-10
5.2847e-06
0.000131609
4.36474e-10
3.59819e-06
0.000129018
-2.11558e-10
2.6351e-06
0.000126829
8.1585e-10
2.15084e-06
0.000125157
-1.12871e-10
1.65898e-06
0.000124148
1.14187e-08
1.01735e-06
0.000122921
2.43546e-08
1.23927e-06
0.000121484
4.16288e-08
1.44669e-06
0.000119852
7.05023e-08
1.62254e-06
0.000117976
1.29218e-07
1.8317e-06
0.000115518
2.68281e-07
2.35855e-06
0.000111561
6.48382e-07
3.7712e-06
0.000104848
1.85133e-06
6.32159e-06
0.000105276
6.85932e-06
-2.2457e-06
0.000117925
6.72706e-05
-2.67407e-05
6.15594e-05
0.000103935
3.62598e-05
0.000141429
3.61856e-05
0.00016427
8.53664e-11
4.68188e-05
0.000147782
2.63521e-10
1.65359e-05
0.000140501
6.80695e-10
7.23232e-06
0.000135151
4.75208e-10
5.28539e-06
0.000131608
4.09014e-10
3.59742e-06
0.000129017
-3.55518e-10
2.63573e-06
0.000126831
9.4898e-10
2.14901e-06
0.000125155
-1.95902e-10
1.66345e-06
0.000124147
1.39651e-08
1.01698e-06
0.000122922
2.98934e-08
1.23566e-06
0.000121486
5.12765e-08
1.44189e-06
0.000119855
8.73319e-08
1.61843e-06
0.000117974
1.61244e-07
1.82891e-06
0.000115506
3.37348e-07
2.35432e-06
0.000111529
8.20976e-07
3.75595e-06
0.000104783
2.36059e-06
6.25831e-06
0.000105019
8.73614e-06
-2.42104e-06
0.000117537
8.289e-05
-2.85603e-05
6.18781e-05
0.000124549
3.35807e-05
0.000164457
3.46729e-05
0.00016427
1.64094e-10
4.68183e-05
0.00014778
4.26904e-10
1.65368e-05
0.000140501
8.86952e-10
7.23137e-06
0.00013515
4.69769e-10
5.28606e-06
0.000131608
3.88109e-10
3.59664e-06
0.000129016
-6.15348e-10
2.63665e-06
0.000126835
1.06898e-09
2.14689e-06
0.000125155
-3.81753e-10
1.66926e-06
0.000124145
1.69181e-08
1.01653e-06
0.000122922
3.64517e-08
1.23109e-06
0.000121489
6.28343e-08
1.43565e-06
0.000119858
1.07693e-07
1.61279e-06
0.000117972
2.00286e-07
1.82444e-06
0.000115494
4.21894e-07
2.3471e-06
0.000111497
1.03255e-06
3.73318e-06
0.000104717
2.98544e-06
6.17507e-06
0.000104721
1.10083e-05
-2.6417e-06
0.000117232
0.000100498
-3.05576e-05
6.23036e-05
0.000147141
3.08532e-05
0.000189648
3.30752e-05
0.000164271
2.81574e-10
4.68178e-05
0.000147778
6.38694e-10
1.6538e-05
0.000140501
1.10528e-09
7.23014e-06
0.00013515
4.15219e-10
5.28693e-06
0.000131608
4.16988e-10
3.59573e-06
0.000129015
-1.01014e-09
2.63781e-06
0.000126839
1.26924e-09
2.14425e-06
0.000125154
-8.0073e-10
1.67647e-06
0.000124143
2.01083e-08
1.01599e-06
0.000122923
4.40794e-08
1.22543e-06
0.000121494
7.66685e-08
1.42785e-06
0.000119862
1.32411e-07
1.60549e-06
0.000117971
2.47936e-07
1.81799e-06
0.000115483
5.25119e-07
2.33586e-06
0.000111468
1.29067e-06
3.70002e-06
0.000104662
3.74793e-06
6.06305e-06
0.000104409
1.37329e-05
-2.90454e-06
0.000117007
0.000120486
-3.30311e-05
6.28925e-05
0.000172075
2.77343e-05
0.000217293
3.1241e-05
0.00016427
4.23219e-10
4.6817e-05
0.000147776
8.21322e-10
1.65391e-05
0.000140501
1.38794e-09
7.22898e-06
0.00013515
2.10187e-10
5.28808e-06
0.000131609
6.04359e-10
3.59456e-06
0.000129015
-1.6147e-09
2.63934e-06
0.000126844
1.73419e-09
2.14099e-06
0.000125153
-1.8807e-09
1.68532e-06
0.000124142
2.35893e-08
1.01504e-06
0.000122925
5.31616e-08
1.21809e-06
0.000121499
9.35458e-08
1.4179e-06
0.000119868
1.62663e-07
1.59619e-06
0.000117972
3.05878e-07
1.80938e-06
0.000115474
6.49809e-07
2.31974e-06
0.000111448
1.60182e-06
3.65407e-06
0.000104631
4.66814e-06
5.91364e-06
0.000104121
1.69581e-05
-3.21389e-06
0.000116933
0.000143141
-3.59322e-05
6.36533e-05
0.000199457
2.45011e-05
0.000248056
2.89471e-05
0.00016427
6.25577e-10
4.68156e-05
0.000147772
1.08725e-09
1.65408e-05
0.000140502
1.75651e-09
7.22746e-06
0.000135152
-1.43328e-10
5.28967e-06
0.000131612
1.07425e-09
3.59293e-06
0.000129015
-2.78552e-09
2.64171e-06
0.00012685
2.82658e-09
2.13704e-06
0.000125152
-4.0952e-09
1.69534e-06
0.000124138
2.7563e-08
1.01408e-06
0.000122927
6.41817e-08
1.20888e-06
0.000121506
1.14205e-07
1.40545e-06
0.000119876
1.99305e-07
1.58441e-06
0.000117977
3.75093e-07
1.79743e-06
0.000115476
7.98042e-07
2.29619e-06
0.000111446
1.97409e-06
3.59219e-06
0.00010464
5.78547e-06
5.70083e-06
0.000103885
2.08257e-05
-3.67699e-06
0.000116983
0.000168823
-3.93022e-05
6.47729e-05
0.000229901
2.03912e-05
0.000282754
2.63222e-05
0.000164269
1.08633e-09
4.68137e-05
0.000147766
1.2984e-09
1.6543e-05
0.000140505
1.9719e-09
7.22516e-06
0.000135156
-5.11385e-10
5.29243e-06
0.000131617
1.51127e-09
3.59058e-06
0.000129017
-4.30907e-09
2.64485e-06
0.000126855
4.31796e-09
2.13287e-06
0.000125148
-6.81148e-09
1.70456e-06
0.000124133
3.21518e-08
1.01358e-06
0.000122925
7.68378e-08
1.20092e-06
0.000121512
1.379e-07
1.39269e-06
0.000119889
2.41367e-07
1.56878e-06
0.000117997
4.55157e-07
1.77647e-06
0.000115506
9.72e-07
2.25509e-06
0.000111494
2.41859e-06
3.49705e-06
0.000104725
7.1498e-06
5.41161e-06
0.000103831
2.54703e-05
-4.38747e-06
0.000117014
0.000198518
-4.34218e-05
6.60653e-05
0.00026438
1.50911e-05
0.000323045
2.21433e-05
0.000164267
2.02362e-09
4.68113e-05
0.000147757
1.31446e-09
1.65454e-05
0.00014051
1.87956e-09
7.22153e-06
0.000135162
-1.16633e-09
5.29757e-06
0.000131624
1.6341e-09
3.58671e-06
0.00012902
-5.77805e-09
2.64914e-06
0.000126859
5.66027e-09
2.12865e-06
0.000125143
-8.93868e-09
1.71204e-06
0.000124126
3.71263e-08
1.01343e-06
0.000122921
9.01263e-08
1.19659e-06
0.000121516
1.62816e-07
1.38115e-06
0.00011991
2.86624e-07
1.54789e-06
0.00011804
5.44413e-07
1.74095e-06
0.000115588
1.17302e-06
2.1841e-06
0.000111641
2.94946e-06
3.33783e-06
0.000104942
8.84827e-06
4.99996e-06
0.00010416
3.14357e-05
-5.90361e-06
0.000117204
0.000234144
-4.91559e-05
6.78845e-05
0.000305595
6.85162e-06
0.0003715
1.5971e-05
0.000164267
4.68057e-05
3.97124e-09
0.000147748
1.65512e-05
2.99348e-10
0.000140517
7.21609e-06
1.44689e-09
0.000135168
5.30425e-06
-1.7509e-09
0.000131634
3.581e-06
1.31611e-09
0.000129029
2.65591e-06
-7.33461e-09
0.000126865
2.1246e-06
6.32554e-09
0.000125133
1.71825e-06
-1.01173e-08
0.000124113
1.01262e-06
4.40266e-08
0.000122914
1.19164e-06
1.03117e-07
0.000121526
1.36749e-06
1.86863e-07
0.000119949
1.52061e-06
3.31586e-07
0.000118128
1.68853e-06
6.36345e-07
0.000115773
2.06822e-06
1.38645e-06
0.000112045
3.05718e-06
3.53119e-06
0.000105715
4.23837e-06
1.09185e-05
0.00010561
-8.77388e-06
3.96179e-05
0.000114052
-6.05783e-05
0.00028565
6.85385e-05
-9.94864e-06
0.000359613
1.24979e-06
0.000435278
0.000231104
7.02877e-12
2.55897e-05
0.000226593
5.05479e-12
2.10429e-05
0.000216557
1.71484e-12
1.72425e-05
0.000211845
3.70479e-11
1.00081e-05
0.000208515
1.0536e-10
6.94253e-06
0.000205545
1.15912e-10
5.57675e-06
0.000203044
1.4934e-10
4.64713e-06
0.000201259
3.03567e-10
3.43686e-06
0.000199266
8.47676e-10
3.02374e-06
0.000197345
1.53377e-09
3.18222e-06
0.000195517
2.5091e-09
3.29318e-06
0.000193782
4.12453e-09
3.3625e-06
0.000192114
7.1983e-09
3.48227e-06
0.000190516
1.38327e-08
3.91811e-06
0.000188895
2.99801e-08
5.33343e-06
0.000187113
7.31562e-08
8.06976e-06
0.000180687
3.15307e-07
5.17288e-06
0.000135983
2.28286e-06
1.88388e-05
8.15584e-05
9.7474e-06
9.5065e-05
2.00164e-05
0.000118417
0.000231104
1.22974e-11
2.55896e-05
0.000226593
8.61364e-12
2.10429e-05
0.000216557
6.80845e-12
1.72425e-05
0.000211845
7.90227e-11
1.00081e-05
0.000208514
2.14447e-10
6.94246e-06
0.000205545
2.30954e-10
5.57678e-06
0.000203044
2.98118e-10
4.64706e-06
0.000201259
6.03684e-10
3.43714e-06
0.000199266
1.73333e-09
3.02333e-06
0.000197345
3.15165e-09
3.18193e-06
0.000195517
5.16853e-09
3.29297e-06
0.000193781
8.51754e-09
3.36227e-06
0.000192114
1.49151e-08
3.48192e-06
0.000190515
2.88177e-08
3.91744e-06
0.000188892
6.31313e-08
5.33176e-06
0.000187108
1.57659e-07
8.06387e-06
0.000180643
6.49913e-07
5.07835e-06
0.000134527
6.7947e-06
1.78948e-05
8.04416e-05
2.24115e-05
9.09812e-05
4.35289e-05
0.000110401
0.000231104
1.48803e-11
2.55896e-05
0.000226594
9.89259e-12
2.1043e-05
0.000216557
1.5465e-11
1.72426e-05
0.000211845
1.28551e-10
1.00081e-05
0.000208514
3.31239e-10
6.94231e-06
0.000205545
3.41177e-10
5.57685e-06
0.000203044
4.38979e-10
4.64692e-06
0.000201258
9.02215e-10
3.43774e-06
0.000199266
2.69893e-09
3.02252e-06
0.000197345
4.94668e-09
3.18144e-06
0.000195517
8.15359e-09
3.29268e-06
0.00019378
1.35154e-08
3.36206e-06
0.000192112
2.38404e-08
3.48171e-06
0.000190511
4.64787e-08
3.91717e-06
0.000188885
1.03043e-07
5.33124e-06
0.000187093
2.61799e-07
8.06035e-06
0.000180524
1.08131e-06
5.02033e-06
0.000133441
1.35917e-05
1.64268e-05
7.91604e-05
3.92303e-05
8.63429e-05
6.95816e-05
0.00010352
0.000231104
1.38065e-11
2.55895e-05
0.000226595
9.5804e-12
2.1043e-05
0.000216557
3.15029e-11
1.72426e-05
0.000211844
1.86133e-10
1.00081e-05
0.000208513
4.51702e-10
6.9421e-06
0.000205545
4.42688e-10
5.57697e-06
0.000203043
5.6933e-10
4.64672e-06
0.000201257
1.20273e-09
3.43872e-06
0.000199266
3.79255e-09
3.02125e-06
0.000197346
7.01799e-09
3.18069e-06
0.000195517
1.16427e-08
3.29228e-06
0.000193779
1.94502e-08
3.36184e-06
0.000192109
3.46416e-08
3.48154e-06
0.000190506
6.82822e-08
3.91702e-06
0.000188872
1.53277e-07
5.33116e-06
0.000187065
3.95322e-07
8.05828e-06
0.000180311
1.64641e-06
4.97376e-06
0.000132261
2.29883e-05
1.45578e-05
7.87644e-05
5.92669e-05
8.10603e-05
9.85138e-05
9.73999e-05
0.000231104
9.88024e-12
2.55895e-05
0.000226596
1.07051e-11
2.10431e-05
0.000216558
5.81374e-11
1.72427e-05
0.000211843
2.49714e-10
1.0008e-05
0.000208512
5.70788e-10
6.94182e-06
0.000205544
5.31388e-10
5.57716e-06
0.000203043
6.84236e-10
4.64643e-06
0.000201257
1.51462e-09
3.44018e-06
0.000199267
5.07161e-09
3.0194e-06
0.000197346
9.47764e-09
3.17962e-06
0.000195516
1.58303e-08
3.29175e-06
0.000193777
2.6673e-08
3.36155e-06
0.000192105
4.8014e-08
3.48131e-06
0.000190497
9.57591e-08
3.9168e-06
0.000188853
2.1766e-07
5.33109e-06
0.000187021
5.68614e-07
8.05706e-06
0.000180018
2.36922e-06
4.92725e-06
0.000131244
3.51036e-05
1.22318e-05
7.76434e-05
8.34148e-05
7.53825e-05
0.000129039
9.18671e-05
0.000231104
7.06474e-12
2.55894e-05
0.000226597
1.63432e-11
2.10431e-05
0.000216558
9.4281e-11
1.72428e-05
0.000211841
3.21584e-10
1.0008e-05
0.000208511
6.87076e-10
6.94148e-06
0.000205544
6.0797e-10
5.57741e-06
0.000203043
7.88487e-10
4.64603e-06
0.000201255
1.84804e-09
3.44222e-06
0.000199268
6.59086e-09
3.01683e-06
0.000197347
1.24364e-08
3.17814e-06
0.000195516
2.09136e-08
3.29102e-06
0.000193775
3.55459e-08
3.36115e-06
0.000192099
6.46794e-08
3.48095e-06
0.000190486
1.30501e-07
3.91637e-06
0.000188827
3.00093e-07
5.33067e-06
0.000186959
7.92555e-07
8.05584e-06
0.000179624
3.29506e-06
4.88452e-06
0.000130209
5.01349e-05
9.50386e-06
7.74277e-05
0.00011029
6.96205e-05
0.000162289
8.65305e-05
0.000231104
9.36127e-12
2.55894e-05
0.000226599
3.37975e-11
2.10432e-05
0.000216558
1.42511e-10
1.72429e-05
0.000211839
3.91918e-10
1.00079e-05
0.000208509
7.9891e-10
6.94109e-06
0.000205543
6.82387e-10
5.57773e-06
0.000203043
8.98298e-10
4.6455e-06
0.000201254
2.21682e-09
3.44501e-06
0.000199269
8.41305e-09
3.01336e-06
0.000197348
1.60173e-08
3.17617e-06
0.000195516
2.71112e-08
3.29004e-06
0.000193772
4.64736e-08
3.36061e-06
0.000192092
8.54588e-08
3.4804e-06
0.00019047
1.74366e-07
3.91557e-06
0.000188792
4.05323e-07
5.32951e-06
0.000186872
1.08149e-06
8.0536e-06
0.000179128
4.4973e-06
4.85108e-06
0.000129414
6.80958e-05
6.38384e-06
7.70106e-05
0.000139796
6.42745e-05
0.00019831
8.13579e-05
0.000231105
2.22302e-11
2.55893e-05
0.0002266
6.78972e-11
2.10432e-05
0.000216558
2.09196e-10
1.7243e-05
0.000211837
4.61999e-10
1.00078e-05
0.000208508
9.09052e-10
6.94065e-06
0.000205543
7.55124e-10
5.57812e-06
0.000203044
1.00933e-09
4.6448e-06
0.000201252
2.62585e-09
3.44873e-06
0.000199271
1.06114e-08
3.00879e-06
0.00019735
2.03745e-08
3.17358e-06
0.000195516
3.46977e-08
3.28878e-06
0.000193768
5.99577e-08
3.35988e-06
0.000192082
1.11358e-07
3.47959e-06
0.000190451
2.29611e-07
3.9142e-06
0.000188748
5.39137e-07
5.32694e-06
0.000186756
1.45249e-06
8.04833e-06
0.000178539
6.03993e-06
4.81611e-06
0.000128821
8.89537e-05
2.94455e-06
7.59126e-05
0.000172305
5.93667e-05
0.000236599
7.63802e-05
0.000231106
4.78087e-11
2.55893e-05
0.000226602
1.18245e-10
2.10431e-05
0.000216557
2.9936e-10
1.72432e-05
0.000211834
5.4128e-10
1.00078e-05
0.000208506
1.02869e-09
6.94017e-06
0.000205543
8.22876e-10
5.57857e-06
0.000203044
1.0915e-09
4.64386e-06
0.00020125
3.06465e-09
3.45362e-06
0.000199273
1.32736e-08
3.00283e-06
0.000197353
2.57098e-08
3.17022e-06
0.000195516
4.40329e-08
3.28715e-06
0.000193764
7.66422e-08
3.35891e-06
0.000192071
1.43639e-07
3.47837e-06
0.000190426
2.99063e-07
3.91192e-06
0.000188692
7.0889e-07
5.32183e-06
0.000186607
1.92843e-06
8.03608e-06
0.000177844
8.01461e-06
4.75301e-06
0.000128448
0.000112652
-8.08526e-07
7.46796e-05
0.00020771
5.47377e-05
0.000277009
7.13921e-05
0.000231107
8.52122e-11
2.55893e-05
0.000226604
1.86826e-10
2.1043e-05
0.000216556
4.18516e-10
1.72433e-05
0.000211831
6.23736e-10
1.00077e-05
0.000208505
1.14947e-09
6.93963e-06
0.000205544
8.72599e-10
5.57907e-06
0.000203045
1.12374e-09
4.64266e-06
0.000201246
3.52802e-09
3.45997e-06
0.000199276
1.65275e-08
2.99514e-06
0.000197356
3.22895e-08
3.16592e-06
0.000195516
5.55565e-08
3.28505e-06
0.000193759
9.72709e-08
3.3576e-06
0.000192057
1.83706e-07
3.47654e-06
0.000190396
3.85734e-07
3.90812e-06
0.000188625
9.22119e-07
5.31198e-06
0.000186428
2.53153e-06
8.00795e-06
0.000177201
1.05178e-05
4.54385e-06
0.000127687
0.000139743
-5.22661e-06
7.32646e-05
0.000245836
5.01748e-05
0.000319136
6.67171e-05
0.000231107
1.32079e-10
2.55893e-05
0.000226605
2.78312e-10
2.10427e-05
0.000216554
5.67934e-10
1.72434e-05
0.000211828
7.08237e-10
1.00078e-05
0.000208505
1.24453e-09
6.93903e-06
0.000205545
8.91133e-10
5.57962e-06
0.000203047
1.14169e-09
4.64115e-06
0.000201242
4.01958e-09
3.46819e-06
0.000199279
2.05351e-08
2.98526e-06
0.000197361
4.03906e-08
3.16039e-06
0.000195517
6.97318e-08
3.28236e-06
0.000193753
1.22605e-07
3.35587e-06
0.000192041
2.32915e-07
3.47392e-06
0.000190362
4.92392e-07
3.90228e-06
0.000188548
1.18522e-06
5.2959e-06
0.000186223
3.2784e-06
7.96093e-06
0.000176677
1.35591e-05
4.16593e-06
0.00012701
0.00017029
-9.94115e-06
7.19677e-05
0.000286483
4.5798e-05
0.000363242
6.20402e-05
0.000231108
1.81162e-10
2.55893e-05
0.000226606
4.03428e-10
2.10422e-05
0.000216552
7.68699e-10
1.72434e-05
0.000211825
7.79959e-10
1.0008e-05
0.000208505
1.32917e-09
6.9384e-06
0.000205547
8.62884e-10
5.58022e-06
0.000203048
1.11612e-09
4.63924e-06
0.000201236
4.66448e-09
3.47876e-06
0.000199284
2.53592e-08
2.97259e-06
0.000197366
5.02294e-08
3.15333e-06
0.000195518
8.70212e-08
3.27893e-06
0.000193747
1.53563e-07
3.35361e-06
0.000192024
2.93069e-07
3.47033e-06
0.000190323
6.22812e-07
3.89393e-06
0.00018846
1.50718e-06
5.27224e-06
0.000185985
4.19428e-06
7.89097e-06
0.000176184
1.71949e-05
3.64407e-06
0.000126523
0.000204187
-1.48715e-05
7.06717e-05
0.000329781
4.139e-05
0.000408953
5.78053e-05
0.000231108
2.52947e-10
2.55895e-05
0.000226606
5.56198e-10
2.10415e-05
0.00021655
1.04823e-09
1.72434e-05
0.000211823
9.31636e-10
1.00084e-05
0.000208506
1.39732e-09
6.93774e-06
0.000205549
6.93636e-10
5.58088e-06
0.000203049
1.04634e-09
4.63689e-06
0.000201229
5.46829e-09
3.49204e-06
0.00019929
3.11687e-08
2.95671e-06
0.000197374
6.20539e-08
3.14451e-06
0.000195521
1.07839e-07
3.27458e-06
0.00019374
1.90975e-07
3.35056e-06
0.000192004
3.66037e-07
3.46523e-06
0.00019028
7.81423e-07
3.88191e-06
0.000188359
1.89914e-06
5.23802e-06
0.000185715
5.3115e-06
7.788e-06
0.000175677
2.15041e-05
2.99758e-06
0.000126219
0.000241324
-2.01831e-05
6.95909e-05
0.000375308
3.72687e-05
0.000456793
5.30148e-05
0.000231108
3.63004e-10
2.55896e-05
0.000226607
7.78182e-10
2.10406e-05
0.000216547
1.38277e-09
1.72434e-05
0.000211821
1.05161e-09
1.0009e-05
0.000208508
1.46589e-09
6.93709e-06
0.000205551
3.55717e-10
5.58174e-06
0.000203051
1.09575e-09
4.63408e-06
0.00020122
6.55405e-09
3.50859e-06
0.000199298
3.80648e-08
2.93703e-06
0.000197386
7.60592e-08
3.13357e-06
0.000195525
1.32591e-07
3.26904e-06
0.000193733
2.35775e-07
3.34632e-06
0.000191983
4.53995e-07
3.45781e-06
0.000190231
9.73374e-07
3.86436e-06
0.000188247
2.37424e-06
5.18865e-06
0.000185421
6.66968e-06
7.63675e-06
0.000175049
2.66168e-05
2.27078e-06
0.000125951
0.000281318
-2.56043e-05
6.87172e-05
0.000423762
3.2512e-05
0.0005065
4.88394e-05
0.000231108
5.19612e-10
2.55898e-05
0.000226606
1.10508e-09
2.10393e-05
0.000216544
1.78493e-09
1.72433e-05
0.00021182
1.07666e-09
1.00098e-05
0.00020851
1.52424e-09
6.93632e-06
0.000205554
-2.99796e-10
5.58295e-06
0.000203052
1.43825e-09
4.63066e-06
0.000201209
7.83511e-09
3.52891e-06
0.000199309
4.59023e-08
2.91282e-06
0.0001974
9.24531e-08
3.12e-06
0.000195532
1.62104e-07
3.26194e-06
0.000193727
2.89739e-07
3.34043e-06
0.000191959
5.60157e-07
3.4473e-06
0.000190177
1.20457e-06
3.83963e-06
0.000188124
2.9457e-06
5.11974e-06
0.000185105
8.30996e-06
7.42544e-06
0.000174347
3.2614e-05
1.45833e-06
0.000125754
0.000325135
-3.23809e-05
6.86944e-05
0.00047368
2.83206e-05
0.000558956
4.37348e-05
0.000231106
7.78141e-10
2.559e-05
0.000226604
1.56295e-09
2.10379e-05
0.000216541
2.34016e-09
1.72432e-05
0.000211819
9.31069e-10
1.00112e-05
0.000208514
1.56724e-09
6.93523e-06
0.000205557
-1.55188e-09
5.5848e-06
0.000203053
2.59261e-09
4.62636e-06
0.000201196
8.61805e-09
3.55381e-06
0.000199324
5.40961e-08
2.8826e-06
0.000197421
1.12105e-07
3.10301e-06
0.000195542
1.98581e-07
3.25304e-06
0.00019372
3.55835e-07
3.33281e-06
0.000191932
6.87682e-07
3.43299e-06
0.000190119
1.47888e-06
3.8053e-06
0.000188003
3.62274e-06
5.02217e-06
0.000184786
1.02723e-05
7.13669e-06
0.000173735
3.95091e-05
4.96907e-07
0.000126265
0.000372571
-3.99351e-05
6.85627e-05
0.000526117
2.32016e-05
0.000614029
3.8711e-05
0.000231104
1.0774e-09
2.55901e-05
0.0002266
2.14709e-09
2.10362e-05
0.000216537
3.13337e-09
1.72427e-05
0.000211821
4.82212e-10
1.00135e-05
0.000208517
1.65354e-09
6.93325e-06
0.000205558
-3.69388e-09
5.58801e-06
0.000203052
5.56293e-09
4.62088e-06
0.000201181
5.33315e-09
3.58476e-06
0.000199345
6.52628e-08
2.84298e-06
0.000197446
1.38381e-07
3.08164e-06
0.000195555
2.44545e-07
3.24245e-06
0.000193713
4.34575e-07
3.32327e-06
0.000191908
8.35158e-07
3.41336e-06
0.000190071
1.79517e-06
3.75559e-06
0.000187917
4.41059e-06
4.875e-06
0.000184466
1.25791e-05
6.79604e-06
0.000173095
4.73927e-05
-6.74784e-07
0.000126885
0.000423752
-4.82719e-05
6.88947e-05
0.000579794
1.79974e-05
0.000673781
3.20365e-05
0.000231102
1.46285e-09
2.55901e-05
0.000226593
2.85948e-09
2.10348e-05
0.000216535
4.02123e-09
1.72414e-05
0.000211824
-1.66739e-10
1.00177e-05
0.00020852
1.67991e-09
6.9291e-06
0.000205558
-6.52318e-09
5.59401e-06
0.000203052
9.88203e-09
4.61412e-06
0.000201168
-9.39822e-10
3.61412e-06
0.000199362
7.91829e-08
2.80842e-06
0.000197473
1.69053e-07
3.05795e-06
0.000195578
2.95935e-07
3.22472e-06
0.000193729
5.20869e-07
3.30433e-06
0.000191915
9.97527e-07
3.38186e-06
0.000190061
2.14954e-06
3.68508e-06
0.000187886
5.30964e-06
4.67628e-06
0.000184213
1.52658e-05
6.32567e-06
0.000172635
5.62893e-05
-2.21256e-06
0.000127791
0.000478508
-5.75172e-05
6.95256e-05
0.000635392
1.10366e-05
0.000738353
2.37557e-05
0.000231097
2.15329e-09
2.55893e-05
0.000226587
3.69234e-09
2.1034e-05
0.000216535
4.46696e-09
1.72393e-05
0.000211827
-1.08971e-09
1.00237e-05
0.000208524
1.62141e-09
6.92229e-06
0.000205555
-9.15172e-09
5.60334e-06
0.000203054
1.29631e-08
4.60692e-06
0.000201158
-2.74932e-09
3.63252e-06
0.000199366
9.07165e-08
2.79539e-06
0.000197499
1.96515e-07
3.03409e-06
0.000195623
3.44499e-07
3.19491e-06
0.000193785
6.06566e-07
3.26978e-06
0.000191973
1.16535e-06
3.33273e-06
0.000190116
2.52673e-06
3.58486e-06
0.000187957
6.29208e-06
4.40261e-06
0.000184201
1.83096e-05
5.61824e-06
0.000172591
6.60508e-05
-4.64328e-06
0.000127863
0.000537998
-6.80317e-05
7.1212e-05
0.000690138
2.17751e-06
0.000809367
1.28693e-05
0.00023109
2.5588e-05
3.2309e-09
0.000226586
2.10334e-05
4.07742e-09
0.000216535
1.72374e-05
3.57831e-09
0.000211828
1.00313e-05
-2.30629e-09
0.000208527
6.91273e-06
1.78489e-09
0.000205554
5.61629e-06
-1.07387e-08
0.000203057
4.59848e-06
1.55882e-08
0.000201147
3.65189e-06
-3.18984e-09
0.000199367
2.78078e-06
1.03161e-07
0.000197526
3.00685e-06
2.19101e-07
0.00019568
3.15969e-06
3.83312e-07
0.00019387
3.22702e-06
6.77745e-07
0.000192088
3.2687e-06
1.31057e-06
0.000190283
3.4512e-06
2.86127e-06
0.000188273
4.04752e-06
7.18335e-06
0.0001847
4.66531e-06
2.13264e-05
0.000174389
-8.12258e-06
7.51238e-05
0.000123062
-7.97806e-05
0.000604611
7.39087e-05
-1.54042e-05
0.000738223
-1.78529e-06
0.000882545
0.000224144
4.02994e-12
1.12288e-05
0.000230607
2.12027e-11
1.45822e-05
0.000235536
1.68264e-11
1.2299e-05
0.00023443
3.62172e-11
1.11234e-05
0.000232031
7.54301e-11
9.3513e-06
0.000230248
1.12051e-10
7.34234e-06
0.000228981
1.11227e-10
5.90194e-06
0.00022792
4.91703e-10
4.50484e-06
0.000226013
9.92314e-10
4.93794e-06
0.0002244
1.72303e-09
4.80114e-06
0.000223135
2.8942e-09
4.55952e-06
0.00022215
4.96794e-09
4.34118e-06
0.000221328
9.05095e-09
4.2878e-06
0.000220582
1.80643e-08
4.6339e-06
0.000219921
4.07087e-08
5.9342e-06
0.000218438
1.03949e-07
9.40065e-06
0.000215217
5.3622e-07
8.68125e-06
0.000142015
7.85776e-06
7.3192e-05
8.76926e-05
2.33522e-05
0.000116091
4.88401e-05
0.000152941
0.000224144
9.03331e-12
1.12288e-05
0.000230607
4.00006e-11
1.45822e-05
0.000235536
3.29139e-11
1.2299e-05
0.00023443
7.30458e-11
1.11234e-05
0.000232031
1.50492e-10
9.35128e-06
0.000230248
2.17938e-10
7.34228e-06
0.000228981
2.10972e-10
5.90195e-06
0.000227921
9.84834e-10
4.50473e-06
0.000226013
2.00948e-09
4.93796e-06
0.000224399
3.50729e-09
4.80101e-06
0.000223134
5.90915e-09
4.55925e-06
0.00022215