/*--------------------------------*- C++ -*----------------------------------*\
  =========                 |
  \\      /  F ield         | OpenFOAM: The Open Source CFD Toolbox
   \\    /   O peration     | Website:  https://openfoam.org
    \\  /    A nd           | Version:  6.0
     \\/     M anipulation  |
\*---------------------------------------------------------------------------*/
FoamFile
{
    version     2.0;
    format      ascii;
    class       volScalarField;
    location    "0.5";
    object      T;
}
// * * * * * * * * * * * * * * * * * * * * * * * * * * * * * * * * * * * * * //

dimensions      [0 0 0 1 0 0 0];

internalField   nonuniform List<scalar> 
24000
(
0.88428
0.840911
0.818002
0.802277
0.789643
0.780428
0.772628
0.768112
0.765697
0.765906
0.76763
0.774007
0.792432
0.841725
0.976801
1.3952
2.63653
2.66479
2.56936
2.69329
0.884281
0.840911
0.818001
0.802277
0.789645
0.780428
0.772628
0.768112
0.765696
0.765904
0.767628
0.774003
0.792427
0.841717
0.976795
1.39513
2.63815
2.66444
2.57282
2.70687
0.884281
0.84091
0.818
0.802277
0.78965
0.780429
0.772629
0.768111
0.765693
0.7659
0.767623
0.773996
0.792416
0.841697
0.976765
1.39504
2.63971
2.66373
2.57412
2.71637
0.884282
0.840909
0.817998
0.802277
0.789657
0.780429
0.77263
0.76811
0.765688
0.765894
0.767614
0.773984
0.792396
0.841662
0.976703
1.39485
2.64159
2.66313
2.57632
2.72374
0.884282
0.840907
0.817997
0.802278
0.789667
0.780428
0.772631
0.768107
0.76568
0.765884
0.767602
0.773966
0.792367
0.841608
0.976599
1.39452
2.64373
2.66276
2.57928
2.73109
0.884282
0.840905
0.817995
0.80228
0.789678
0.780427
0.772632
0.768103
0.76567
0.765872
0.767586
0.773942
0.792326
0.841527
0.976435
1.39399
2.6458
2.66261
2.58319
2.73525
0.884282
0.840902
0.817995
0.802282
0.789692
0.780424
0.772632
0.768096
0.765655
0.765855
0.767564
0.773909
0.79227
0.841414
0.97619
1.39325
2.64731
2.66222
2.58672
2.73651
0.884282
0.8409
0.817995
0.802285
0.789707
0.780421
0.772634
0.768088
0.765636
0.765833
0.767535
0.773866
0.792194
0.841257
0.975837
1.39218
2.648
2.66157
2.58952
2.73639
0.884283
0.840898
0.817996
0.802286
0.789722
0.780416
0.772637
0.768078
0.765612
0.765804
0.767498
0.77381
0.792092
0.841042
0.975341
1.39067
2.6478
2.66046
2.59274
2.73772
0.884283
0.840896
0.817998
0.802287
0.789737
0.780412
0.772643
0.768065
0.765582
0.765769
0.767452
0.773738
0.791957
0.84075
0.974648
1.38855
2.64633
2.65913
2.5952
2.73925
0.884285
0.840892
0.818001
0.802287
0.789755
0.780411
0.772647
0.768047
0.765545
0.765727
0.767396
0.773648
0.791782
0.840359
0.973701
1.38561
2.64329
2.65766
2.59649
2.73922
0.884288
0.840887
0.818007
0.802285
0.789773
0.780411
0.772653
0.768023
0.765499
0.765675
0.767326
0.773534
0.791555
0.839846
0.972435
1.38162
2.6385
2.65557
2.59669
2.73769
0.884291
0.840886
0.818016
0.802273
0.789786
0.780413
0.772662
0.767992
0.765442
0.765611
0.767242
0.773393
0.791269
0.839183
0.970778
1.37636
2.63139
2.65294
2.59603
2.73571
0.884295
0.840882
0.818029
0.802265
0.7898
0.780412
0.772667
0.767943
0.765368
0.76553
0.767139
0.773222
0.790915
0.838347
0.968645
1.36958
2.62109
2.64987
2.59426
2.73166
0.884301
0.840876
0.818047
0.802256
0.789811
0.780406
0.772675
0.767881
0.765276
0.76543
0.767012
0.77301
0.790472
0.837292
0.965921
1.36091
2.60692
2.64596
2.59105
2.72419
0.884308
0.840878
0.818065
0.802238
0.789818
0.780394
0.772684
0.767805
0.765166
0.765311
0.76686
0.772753
0.789925
0.835973
0.962471
1.34992
2.58793
2.64008
2.58542
2.71653
0.884323
0.840884
0.818087
0.80221
0.78982
0.780369
0.77269
0.767722
0.765042
0.765174
0.766679
0.772438
0.789244
0.834322
0.958118
1.33611
2.5626
2.63197
2.57531
2.69836
0.884342
0.840894
0.818128
0.802156
0.789812
0.780328
0.772688
0.767646
0.764907
0.765018
0.766461
0.772047
0.788396
0.832266
0.952645
1.31871
2.52881
2.61978
2.56339
2.68005
0.884362
0.840906
0.818197
0.802062
0.7898
0.780268
0.772669
0.767585
0.764765
0.764842
0.766199
0.771561
0.787341
0.829707
0.945788
1.29649
2.48865
2.59926
2.53845
2.63397
0.884398
0.840899
0.818286
0.801949
0.789819
0.780169
0.772598
0.767545
0.764631
0.764663
0.765901
0.770972
0.786035
0.826532
0.937161
1.26789
2.42954
2.57029
2.50669
2.59544
0.997724
0.989595
0.981828
0.971365
0.963595
0.956725
0.951656
0.947912
0.947928
0.94867
0.952279
0.962797
0.989804
1.05728
1.22915
1.73705
2.95183
2.77453
2.86933
2.92753
0.997725
0.989594
0.981827
0.971365
0.963596
0.956726
0.951657
0.947912
0.947927
0.948669
0.952277
0.962793
0.989797
1.05727
1.22913
1.73693
2.95194
2.77388
2.87361
2.93316
0.997727
0.989592
0.981825
0.971365
0.963599
0.956726
0.951658
0.94791
0.947925
0.948666
0.952272
0.962785
0.989781
1.05724
1.22907
1.73669
2.95214
2.77278
2.87837
2.93646
0.997729
0.989589
0.981822
0.971366
0.963604
0.956728
0.95166
0.947907
0.947922
0.948661
0.952264
0.962771
0.989755
1.05718
1.22897
1.7363
2.95231
2.77148
2.88262
2.94108
0.997733
0.989584
0.981818
0.971367
0.963611
0.956729
0.951663
0.947903
0.947917
0.948653
0.952253
0.962751
0.989717
1.0571
1.22881
1.73569
2.95242
2.76987
2.88823
2.9447
0.997736
0.989578
0.981813
0.97137
0.963621
0.956731
0.951666
0.947897
0.947909
0.948643
0.952236
0.962723
0.989662
1.05698
1.22857
1.73482
2.95226
2.76828
2.89344
2.95079
0.99774
0.98957
0.981808
0.971374
0.963633
0.956733
0.951668
0.947889
0.947899
0.948629
0.952215
0.962684
0.989585
1.05682
1.22823
1.73359
2.95171
2.76687
2.89687
2.95843
0.997744
0.989561
0.981803
0.971381
0.963647
0.956734
0.95167
0.947877
0.947885
0.94861
0.952186
0.962632
0.989482
1.0566
1.22775
1.73188
2.95062
2.7657
2.89869
2.96286
0.997747
0.989551
0.981799
0.971391
0.963663
0.956732
0.95167
0.947861
0.947867
0.948586
0.952148
0.962563
0.989344
1.05629
1.22708
1.72953
2.94885
2.76469
2.89992
2.96568
0.997749
0.989541
0.981798
0.971403
0.963679
0.956726
0.951669
0.947841
0.947845
0.948556
0.952101
0.962475
0.989161
1.05588
1.22617
1.72635
2.94619
2.76344
2.89985
2.9648
0.997749
0.989532
0.9818
0.971416
0.963692
0.956717
0.951667
0.947817
0.947816
0.948518
0.952041
0.962362
0.988924
1.05534
1.22494
1.72204
2.94261
2.76192
2.89909
2.96203
0.997748
0.989524
0.981804
0.97143
0.963704
0.956705
0.951664
0.94779
0.947777
0.94847
0.951965
0.962217
0.988616
1.05464
1.22332
1.71637
2.93784
2.75993
2.89704
2.95579
0.997745
0.989519
0.981811
0.971445
0.963712
0.956688
0.95166
0.947759
0.947728
0.948408
0.951869
0.962032
0.988221
1.05372
1.22121
1.70905
2.93129
2.75764
2.89373
2.94792
0.997741
0.989518
0.981822
0.97146
0.963716
0.956669
0.951655
0.947722
0.947663
0.948327
0.951745
0.961798
0.98772
1.05256
1.21849
1.69978
2.92204
2.75675
2.88835
2.93724
0.997735
0.989521
0.981836
0.971474
0.963716
0.956648
0.951646
0.947678
0.947583
0.948228
0.951592
0.961506
0.987089
1.05109
1.21502
1.68812
2.90992
2.75627
2.87349
2.9222
0.997725
0.989534
0.981852
0.971487
0.963707
0.956625
0.951639
0.94763
0.947485
0.948104
0.951398
0.961138
0.986299
1.04926
1.21066
1.67354
2.89431
2.75372
2.8594
2.91078
0.997703
0.989557
0.981878
0.971493
0.963691
0.956614
0.951632
0.947574
0.947362
0.947946
0.951152
0.960675
0.985315
1.04698
1.20518
1.65551
2.87395
2.74836
2.83273
2.88334
0.997672
0.989591
0.981917
0.971476
0.963681
0.956603
0.95163
0.947502
0.947206
0.947748
0.950848
0.960108
0.984113
1.04418
1.19835
1.63329
2.84705
2.73926
2.81382
2.85879
0.99766
0.989623
0.98194
0.971462
0.963677
0.956593
0.951629
0.947419
0.947011
0.947506
0.950481
0.959427
0.982659
1.04077
1.18992
1.60602
2.81052
2.72775
2.77208
2.7996
0.997666
0.989639
0.981952
0.971462
0.963685
0.95658
0.95161
0.947326
0.946792
0.947233
0.950062
0.958635
0.980939
1.03668
1.17964
1.57256
2.76244
2.70041
2.74758
2.75416
1.02469
1.03086
1.02705
1.023
1.01886
1.01369
1.01011
1.00744
1.0074
1.00812
1.01225
1.02426
1.05462
1.12919
1.31649
1.84652
3.05361
2.58813
2.90286
2.97551
1.02469
1.03086
1.02705
1.023
1.01886
1.01369
1.01011
1.00743
1.0074
1.00812
1.01225
1.02426
1.05461
1.12918
1.31645
1.84647
3.05333
2.58826
2.90909
2.97897
1.02469
1.03086
1.02705
1.023
1.01887
1.01369
1.01011
1.00743
1.0074
1.00811
1.01224
1.02425
1.0546
1.12914
1.31637
1.84633
3.05293
2.58844
2.91621
2.98133
1.02469
1.03086
1.02705
1.023
1.01887
1.01369
1.01011
1.00743
1.00739
1.00811
1.01224
1.02424
1.05457
1.12909
1.31625
1.84609
3.05218
2.58917
2.9231
2.98059
1.02469
1.03086
1.02704
1.02301
1.01887
1.01369
1.0101
1.00743
1.00739
1.00811
1.01223
1.02422
1.05453
1.12901
1.31606
1.84571
3.05099
2.59041
2.9305
2.97678
1.02469
1.03086
1.02704
1.02301
1.01888
1.01369
1.0101
1.00742
1.00739
1.0081
1.01222
1.02419
1.05447
1.12888
1.31577
1.84516
3.04907
2.59262
2.93717
2.9745
1.0247
1.03086
1.02704
1.02301
1.01888
1.01368
1.0101
1.00742
1.00738
1.00809
1.0122
1.02415
1.05439
1.12871
1.31536
1.84437
3.04628
2.59599
2.94237
2.97366
1.0247
1.03086
1.02704
1.02302
1.01889
1.01368
1.0101
1.00741
1.00738
1.00808
1.01217
1.0241
1.05428
1.12847
1.31479
1.84326
3.04246
2.60054
2.94589
2.97192
1.0247
1.03085
1.02704
1.02302
1.0189
1.01367
1.01009
1.0074
1.00737
1.00806
1.01214
1.02403
1.05413
1.12815
1.31399
1.84171
3.03749
2.60632
2.94768
2.96887
1.0247
1.03085
1.02704
1.02303
1.0189
1.01366
1.01008
1.00738
1.00736
1.00804
1.01209
1.02394
1.05393
1.1277
1.31291
1.83963
3.03094
2.61402
2.94788
2.96246
1.0247
1.03085
1.02705
1.02304
1.01891
1.01364
1.01008
1.00736
1.00734
1.00801
1.01203
1.02381
1.05366
1.12712
1.31147
1.83683
3.02263
2.62274
2.94696
2.95644
1.0247
1.03084
1.02705
1.02305
1.01891
1.01363
1.01008
1.00734
1.00732
1.00797
1.01196
1.02365
1.05332
1.12635
1.30958
1.83315
3.01219
2.63276
2.94427
2.94294
1.0247
1.03084
1.02706
1.02305
1.01891
1.01361
1.01007
1.00732
1.00729
1.00792
1.01186
1.02344
1.05287
1.12537
1.30713
1.82834
2.99956
2.64363
2.9372
2.93306
1.0247
1.03084
1.02708
1.02306
1.01891
1.0136
1.01007
1.00728
1.00726
1.00786
1.01173
1.02318
1.05231
1.12413
1.30402
1.82211
2.98461
2.65372
2.9305
2.91273
1.0247
1.03084
1.0271
1.02306
1.0189
1.01358
1.01007
1.00724
1.00721
1.00777
1.01157
1.02285
1.05161
1.12256
1.30009
1.81414
2.96693
2.66311
2.91555
2.89726
1.0247
1.03084
1.02712
1.02304
1.0189
1.01357
1.01007
1.00717
1.00714
1.00767
1.01137
1.02245
1.05075
1.12061
1.29519
1.804
2.94613
2.672
2.90355
2.87117
1.02469
1.03084
1.02716
1.02301
1.01892
1.01357
1.01007
1.00708
1.00706
1.00754
1.01113
1.02197
1.0497
1.11818
1.28953
1.78539
2.91939
2.67679
2.87839
2.84485
1.02469
1.03084
1.02718
1.02296
1.01896
1.01354
1.01008
1.00699
1.00695
1.00737
1.01083
1.02137
1.04842
1.11522
1.2826
1.76167
2.89183
2.68165
2.85912
2.80657
1.02469
1.03085
1.02719
1.02294
1.01899
1.01351
1.01008
1.00692
1.00678
1.00715
1.01047
1.02067
1.04689
1.11164
1.27416
1.73269
2.86576
2.6809
2.81471
2.76715
1.02469
1.03085
1.0272
1.02293
1.01901
1.01349
1.01007
1.00683
1.00659
1.0069
1.01006
1.01985
1.0451
1.10741
1.2639
1.69831
2.82549
2.67312
2.79542
2.7014
1.0213
1.0345
1.04051
1.04281
1.04315
1.04197
1.04077
1.04061
1.04068
1.04244
1.04797
1.06201
1.09562
1.17599
1.3774
1.90877
3.1141
2.40949
2.90448
3.02633
1.0213
1.0345
1.04051
1.04281
1.04316
1.04197
1.04077
1.0406
1.04067
1.04244
1.04797
1.062
1.09562
1.17597
1.37737
1.90874
3.11381
2.40987
2.91015
3.02539
1.0213
1.03449
1.04051
1.04281
1.04316
1.04197
1.04077
1.0406
1.04067
1.04244
1.04797
1.062
1.0956
1.17595
1.37731
1.90867
3.1133
2.41104
2.91595
3.01996
1.0213
1.03449
1.04051
1.04281
1.04316
1.04197
1.04077
1.0406
1.04067
1.04243
1.04796
1.06198
1.09558
1.1759
1.37721
1.90855
3.1125
2.41335
2.92095
3.01032
1.0213
1.03449
1.04051
1.04281
1.04316
1.04198
1.04077
1.0406
1.04067
1.04243
1.04795
1.06197
1.09554
1.17583
1.37704
1.90837
3.11131
2.41675
2.92532
2.99942
1.0213
1.03449
1.04051
1.04281
1.04316
1.04198
1.04076
1.04059
1.04066
1.04242
1.04794
1.06194
1.09549
1.17573
1.37679
1.90808
3.10954
2.42181
2.92825
2.9922
1.0213
1.03449
1.0405
1.04281
1.04316
1.04198
1.04076
1.04059
1.04065
1.04241
1.04792
1.0619
1.09542
1.17557
1.37641
1.90762
3.10717
2.42848
2.92966
2.98419
1.02131
1.03449
1.0405
1.04281
1.04316
1.04198
1.04076
1.04058
1.04064
1.04239
1.04789
1.06185
1.09532
1.17535
1.37586
1.90689
3.10417
2.43676
2.9292
2.97684
1.02131
1.03448
1.0405
1.04282
1.04316
1.04199
1.04075
1.04057
1.04063
1.04237
1.04786
1.06178
1.09517
1.17504
1.37509
1.90579
3.10039
2.44678
2.9271
2.96936
1.02131
1.03448
1.0405
1.04282
1.04317
1.04199
1.04074
1.04056
1.04061
1.04235
1.04781
1.06169
1.09498
1.17462
1.37403
1.9042
3.09573
2.45854
2.9223
2.95638
1.02131
1.03447
1.0405
1.04283
1.04317
1.042
1.04074
1.04054
1.04059
1.04231
1.04775
1.06157
1.09471
1.17405
1.3726
1.90195
3.09012
2.47169
2.91904
2.94657
1.02131
1.03447
1.04049
1.04283
1.04317
1.042
1.04072
1.04052
1.04056
1.04227
1.04767
1.06141
1.09437
1.1733
1.37072
1.89885
3.08339
2.48629
2.91286
2.9338
1.02131
1.03446
1.0405
1.04284
1.04318
1.04201
1.04071
1.04049
1.04052
1.04221
1.04757
1.0612
1.09393
1.17233
1.36827
1.89469
3.07534
2.50198
2.9037
2.91037
1.02131
1.03446
1.0405
1.04285
1.04318
1.04201
1.0407
1.04046
1.04048
1.04214
1.04744
1.06094
1.09337
1.17109
1.36515
1.88918
3.0658
2.5185
2.89645
2.89588
1.02131
1.03446
1.0405
1.04286
1.04318
1.04201
1.04068
1.04043
1.04043
1.04206
1.04728
1.06061
1.09267
1.16952
1.36117
1.88211
3.05332
2.53632
2.87959
2.87117
1.0213
1.03446
1.04051
1.04287
1.04318
1.04204
1.04063
1.04041
1.04036
1.04195
1.04708
1.06021
1.09179
1.16756
1.35619
1.87307
3.03723
2.55457
2.86701
2.84571
1.02129
1.03447
1.04051
1.04288
1.04317
1.04208
1.04058
1.04039
1.04026
1.04181
1.04683
1.05971
1.09071
1.16514
1.35002
1.86149
3.01738
2.57394
2.84099
2.81722
1.02129
1.03447
1.04052
1.04287
1.04317
1.04207
1.04054
1.04035
1.04016
1.04167
1.04656
1.05913
1.08942
1.16219
1.34248
1.84674
2.99348
2.58681
2.8245
2.77484
1.02129
1.03447
1.04053
1.04286
1.04317
1.04203
1.04053
1.04026
1.04008
1.04151
1.04623
1.05843
1.08787
1.15864
1.33332
1.82828
2.9637
2.60244
2.78795
2.73313
1.02129
1.03447
1.04053
1.04285
1.04316
1.04199
1.04052
1.04016
1.03999
1.04133
1.04586
1.05763
1.08607
1.1544
1.32291
1.7974
2.91547
2.60961
2.77532
2.66342
1.01035
1.02121
1.03002
1.03659
1.04081
1.04314
1.04479
1.04606
1.04749
1.05057
1.05752
1.07327
1.10933
1.19364
1.40463
1.93626
3.1283
2.25824
2.8753
3.0481
1.01035
1.02121
1.03002
1.03659
1.04081
1.04314
1.04479
1.04606
1.04749
1.05057
1.05752
1.07327
1.10933
1.19363
1.40462
1.93625
3.1283
2.25814
2.8793
3.04927
1.01035
1.02121
1.03002
1.03659
1.04081
1.04314
1.04479
1.04606
1.04749
1.05056
1.05751
1.07326
1.10932
1.19362
1.40459
1.93629
3.128
2.25948
2.88164
3.0486
1.01035
1.02121
1.03002
1.03659
1.04081
1.04314
1.04479
1.04605
1.04749
1.05056
1.05751
1.07325
1.1093
1.19359
1.40452
1.93637
3.12728
2.26295
2.88358
3.04602
1.01035
1.02121
1.03001
1.03659
1.04081
1.04315
1.04479
1.04605
1.04749
1.05056
1.0575
1.07324
1.10928
1.19354
1.40441
1.93645
3.12633
2.26811
2.88512
3.04118
1.01036
1.02121
1.03001
1.03659
1.04081
1.04315
1.04478
1.04605
1.04748
1.05055
1.05749
1.07322
1.10924
1.19347
1.40423
1.9365
3.12503
2.27548
2.8865
3.03716
1.01036
1.02121
1.03001
1.03659
1.04081
1.04315
1.04478
1.04604
1.04747
1.05054
1.05747
1.07319
1.10918
1.19335
1.40393
1.93642
3.12349
2.28476
2.8879
3.02953
1.01036
1.02121
1.03001
1.03659
1.04081
1.04315
1.04478
1.04604
1.04747
1.05053
1.05745
1.07315
1.10909
1.19317
1.40348
1.93614
3.12158
2.29626
2.88817
3.0241
1.01036
1.02121
1.03001
1.03659
1.04082
1.04315
1.04478
1.04603
1.04746
1.05051
1.05742
1.07309
1.10897
1.19291
1.40282
1.93553
3.11942
2.30944
2.8882
3.01421
1.01036
1.02121
1.03
1.03659
1.04082
1.04316
1.04477
1.04602
1.04744
1.05049
1.05738
1.073
1.10879
1.19254
1.40186
1.9345
3.11646
2.32567
2.8864
3.00638
1.01036
1.02121
1.03
1.03659
1.04082
1.04316
1.04477
1.04601
1.04742
1.05046
1.05732
1.07289
1.10855
1.19203
1.40056
1.93282
3.11347
2.34259
2.88289
2.99342
1.01036
1.02121
1.03
1.03659
1.04082
1.04316
1.04477
1.04599
1.0474
1.05042
1.05725
1.07274
1.10823
1.19134
1.39881
1.9304
3.10932
2.36228
2.87983
2.98465
1.01036
1.02121
1.03
1.03659
1.04082
1.04317
1.04476
1.04597
1.04737
1.05037
1.05716
1.07255
1.10782
1.19044
1.3965
1.92694
3.10459
2.38251
2.87274
2.96588
1.01036
1.02121
1.02999
1.0366
1.04083
1.04317
1.04475
1.04595
1.04734
1.05031
1.05704
1.07231
1.10729
1.18927
1.3935
1.92225
3.0984
2.40447
2.86713
2.95356
1.01036
1.02121
1.02999
1.0366
1.04083
1.04317
1.04474
1.04592
1.0473
1.05024
1.05689
1.072
1.10662
1.18778
1.38967
1.91603
3.09061
2.42809
2.85534
2.92809
1.01035
1.02121
1.03
1.03661
1.04083
1.04317
1.04472
1.04589
1.04725
1.05015
1.05671
1.07162
1.10578
1.1859
1.38487
1.90784
3.08148
2.44904
2.84557
2.91118
1.01035
1.02121
1.03
1.03661
1.04082
1.04316
1.04471
1.04586
1.0472
1.05004
1.05649
1.07115
1.10474
1.18356
1.37887
1.89744
3.06764
2.4739
2.82442
2.87595
1.01035
1.02122
1.03001
1.0366
1.04081
1.04316
1.0447
1.04582
1.04714
1.04992
1.05623
1.07058
1.10348
1.1807
1.37153
1.88408
3.05051
2.49663
2.811
2.85032
1.01035
1.02122
1.03001
1.0366
1.04081
1.04315
1.04468
1.04578
1.04708
1.04978
1.05592
1.0699
1.10196
1.17724
1.36259
1.86714
3.02724
2.51766
2.78095
2.79684
1.01035
1.02122
1.03
1.03659
1.0408
1.04314
1.04466
1.04574
1.04702
1.04963
1.05557
1.06911
1.10018
1.17313
1.3518
1.84581
2.99755
2.53584
2.7728
2.74425
1.00362
1.00929
1.0162
1.02254
1.0278
1.03178
1.03486
1.03742
1.03993
1.04391
1.05196
1.06907
1.10692
1.19385
1.41107
1.94469
3.12724
2.14217
2.83939
3.09627
1.00362
1.00929
1.0162
1.02254
1.0278
1.03178
1.03486
1.03742
1.03993
1.04391
1.05196
1.06907
1.10692
1.19385
1.41108
1.94476
3.12719
2.14193
2.84599
3.10451
1.00362
1.00929
1.0162
1.02254
1.02779
1.03177
1.03486
1.03742
1.03993
1.04391
1.05196
1.06906
1.10692
1.19385
1.41109
1.94496
3.12683
2.14381
2.85193
3.11917
1.00362
1.00929
1.0162
1.02254
1.02779
1.03177
1.03486
1.03742
1.03993
1.04391
1.05196
1.06906
1.10691
1.19384
1.41108
1.94528
3.12608
2.1484
2.85731
3.1329
1.00362
1.00929
1.0162
1.02254
1.02779
1.03177
1.03486
1.03741
1.03993
1.04391
1.05195
1.06905
1.1069
1.19383
1.41104
1.94567
3.12524
2.15505
2.86295
3.14385
1.00362
1.0093
1.0162
1.02253
1.02779
1.03177
1.03486
1.03741
1.03993
1.0439
1.05195
1.06904
1.10688
1.19379
1.41095
1.94606
3.1243
2.16417
2.8678
3.15367
1.00362
1.0093
1.0162
1.02253
1.02779
1.03178
1.03486
1.03741
1.03992
1.0439
1.05193
1.06902
1.10684
1.19373
1.41078
1.9464
3.12322
2.1759
2.87272
3.16148
1.00362
1.0093
1.0162
1.02253
1.02779
1.03178
1.03486
1.03741
1.03992
1.04389
1.05192
1.06899
1.10677
1.19361
1.41046
1.94658
3.12197
2.19025
2.87693
3.16641
1.00362
1.00931
1.0162
1.02253
1.02778
1.03178
1.03486
1.03741
1.03991
1.04387
1.05189
1.06894
1.10668
1.19341
1.40996
1.94647
3.12064
2.20679
2.87975
3.17061
1.00362
1.00931
1.0162
1.02252
1.02778
1.03178
1.03486
1.0374
1.0399
1.04386
1.05186
1.06887
1.10653
1.19312
1.40919
1.94596
3.11892
2.22607
2.8811
3.17196
1.00362
1.00932
1.01619
1.02252
1.02778
1.03179
1.03485
1.03739
1.03989
1.04383
1.05181
1.06878
1.10633
1.1927
1.40809
1.94486
3.11731
2.24625
2.88027
3.17064
1.00362
1.00932
1.01619
1.02251
1.02779
1.03179
1.03485
1.03738
1.03987
1.0438
1.05175
1.06865
1.10606
1.19211
1.40654
1.94304
3.11461
2.27012
2.87828
3.16744
1.00362
1.00933
1.01618
1.02251
1.02779
1.0318
1.03485
1.03737
1.03985
1.04376
1.05167
1.06848
1.10569
1.19131
1.40447
1.94019
3.11239
2.29373
2.87466
3.15936
1.00362
1.00933
1.01617
1.02252
1.02779
1.0318
1.03484
1.03735
1.03983
1.04371
1.05157
1.06826
1.10521
1.19025
1.40171
1.93619
3.10895
2.3189
2.87102
3.15116
1.00363
1.00932
1.01616
1.02252
1.0278
1.0318
1.03484
1.03733
1.0398
1.04365
1.05144
1.06799
1.10459
1.18887
1.39814
1.93072
3.1039
2.3471
2.8634
3.13301
1.00363
1.00932
1.01616
1.02253
1.0278
1.0318
1.03483
1.03732
1.03977
1.04358
1.05128
1.06764
1.10382
1.18712
1.39361
1.92332
3.09874
2.37358
2.85638
3.11876
1.00363
1.00932
1.01616
1.02253
1.02779
1.03179
1.03482
1.0373
1.03973
1.0435
1.05109
1.0672
1.10284
1.18492
1.38791
1.91379
3.08972
2.40148
2.84071
3.08735
1.00363
1.00931
1.01616
1.02252
1.02778
1.03179
1.03482
1.03728
1.03969
1.0434
1.05085
1.06667
1.10164
1.1822
1.38088
1.90144
3.07776
2.42846
2.82972
3.06384
1.00363
1.00931
1.01616
1.02252
1.02778
1.0318
1.03482
1.03727
1.03966
1.04328
1.05057
1.06603
1.10019
1.17888
1.37227
1.88566
3.06097
2.45165
2.80459
2.99882
1.00363
1.00931
1.01615
1.02251
1.02777
1.0318
1.03481
1.03725
1.03961
1.04315
1.05025
1.06528
1.09848
1.17491
1.36182
1.86567
3.03878
2.48117
2.79773
2.96594
1.00076
1.00295
1.00619
1.01065
1.015
1.0189
1.02235
1.02533
1.02808
1.03225
1.04064
1.05835
1.09725
1.18597
1.40789
1.94548
3.11889
2.05979
2.81049
3.2622
1.00076
1.00295
1.00619
1.01065
1.015
1.0189
1.02235
1.02533
1.02808
1.03225
1.04064
1.05835
1.09725
1.18598
1.40792
1.94565
3.11872
2.05983
2.82137
3.2825
1.00076
1.00295
1.0062
1.01065
1.01499
1.0189
1.02235
1.02533
1.02808
1.03225
1.04064
1.05835
1.09726
1.186
1.40796
1.94603
3.11826
2.06255
2.83259
3.31187
1.00076
1.00295
1.0062
1.01065
1.01499
1.0189
1.02235
1.02533
1.02808
1.03225
1.04064
1.05835
1.09726
1.18602
1.40802
1.94661
3.11746
2.06846
2.84261
3.33766
1.00076
1.00295
1.0062
1.01065
1.01499
1.0189
1.02235
1.02533
1.02808
1.03225
1.04064
1.05835
1.09727
1.18604
1.40807
1.9473
3.11666
2.07688
2.85229
3.35754
1.00076
1.00295
1.0062
1.01065
1.01499
1.01889
1.02235
1.02533
1.02808
1.03224
1.04064
1.05835
1.09726
1.18606
1.4081
1.94805
3.11584
2.08818
2.86144
3.37239
1.00076
1.00296
1.0062
1.01065
1.01498
1.01889
1.02235
1.02534
1.02807
1.03224
1.04063
1.05834
1.09725
1.18605
1.40806
1.94876
3.11496
2.10241
2.86901
3.38308
1.00076
1.00296
1.0062
1.01065
1.01498
1.01889
1.02236
1.02534
1.02807
1.03223
1.04062
1.05832
1.09722
1.18601
1.40793
1.94933
3.11405
2.11936
2.87547
3.39219
1.00076
1.00297
1.0062
1.01064
1.01498
1.0189
1.02236
1.02534
1.02807
1.03222
1.0406
1.05829
1.09716
1.1859
1.40763
1.94962
3.11335
2.13799
2.88014
3.39812
1.00076
1.00297
1.0062
1.01064
1.01498
1.0189
1.02236
1.02533
1.02806
1.03221
1.04058
1.05824
1.09705
1.1857
1.40709
1.94955
3.11212
2.1604
2.88575
3.39827
1.00076
1.00298
1.00619
1.01064
1.01498
1.0189
1.02236
1.02533
1.02805
1.03219
1.04054
1.05817
1.0969
1.18539
1.40625
1.94886
3.11156
2.18227
2.88834
3.39648
1.00076
1.00298
1.00618
1.01064
1.01498
1.01891
1.02236
1.02532
1.02804
1.03217
1.04049
1.05806
1.09668
1.18491
1.40496
1.94754
3.10971
2.20951
2.88861
3.39221
1.00076
1.00298
1.00617
1.01064
1.01499
1.01891
1.02236
1.02532
1.02803
1.03214
1.04043
1.05792
1.09636
1.18423
1.40317
1.94521
3.10874
2.23529
2.8866
3.38147
1.00076
1.00298
1.00617
1.01065
1.01499
1.01891
1.02235
1.02531
1.02801
1.03211
1.04034
1.05773
1.09594
1.18331
1.40072
1.94177
3.10704
2.2633
2.88411
3.37131
1.00076
1.00298
1.00616
1.01066
1.015
1.0189
1.02234
1.0253
1.028
1.03206
1.04023
1.05748
1.09538
1.18207
1.39747
1.93688
3.10438
2.29287
2.87881
3.34893
1.00076
1.00297
1.00616
1.01067
1.01499
1.01889
1.02234
1.0253
1.02798
1.032
1.04009
1.05716
1.09467
1.18047
1.39327
1.93015
3.10128
2.32155
2.87319
3.33189
1.00076
1.00297
1.00617
1.01068
1.01498
1.01888
1.02234
1.0253
1.02796
1.03193
1.03992
1.05677
1.09376
1.17843
1.38793
1.92122
3.09632
2.35179
2.86078
3.29457
1.00075
1.00297
1.00617
1.01068
1.01497
1.01888
1.02234
1.0253
1.02794
1.03185
1.0397
1.05627
1.09264
1.17587
1.38124
1.90963
3.08836
2.38279
2.85195
3.26747
1.00074
1.00298
1.00618
1.01067
1.01496
1.01888
1.02234
1.02529
1.02791
1.03175
1.03945
1.05567
1.09126
1.17271
1.37296
1.89465
3.0765
2.405
2.83057
3.1922
1.00074
1.00298
1.00619
1.01066
1.01495
1.01888
1.02235
1.02528
1.02789
1.03163
1.03914
1.05496
1.08961
1.16887
1.36282
1.87557
3.05918
2.44016
2.82668
3.15723
1.0001
1.00046
1.00138
1.00324
1.00587
1.00868
1.01146
1.01411
1.01685
1.02103
1.02951
1.04746
1.08691
1.1768
1.40182
1.94577
3.10669
2.00392
2.7639
3.41915
1.0001
1.00046
1.00138
1.00324
1.00587
1.00868
1.01146
1.01411
1.01685
1.02103
1.02951
1.04747
1.08691
1.17682
1.40184
1.94613
3.10645
2.0043
2.7796
3.43676
1.0001
1.00046
1.00138
1.00324
1.00587
1.00869
1.01146
1.01411
1.01685
1.02103
1.02951
1.04747
1.08692
1.17686
1.40189
1.94681
3.10602
2.0079
2.79591
3.46297
1.0001
1.00046
1.00138
1.00324
1.00587
1.00869
1.01146
1.01411
1.01685
1.02103
1.02952
1.04748
1.08694
1.17692
1.40197
1.9478
3.10536
2.01503
2.81011
3.47763
1.0001
1.00046
1.00138
1.00324
1.00587
1.00869
1.01146
1.01411
1.01685
1.02103
1.02952
1.04749
1.08696
1.17698
1.40209
1.94893
3.1048
2.02482
2.82279
3.49108
1.0001
1.00046
1.00138
1.00324
1.00587
1.00869
1.01146
1.01411
1.01685
1.02103
1.02952
1.0475
1.08698
1.17705
1.40222
1.9501
3.10424
2.03772
2.83321
3.50097
1.0001
1.00046
1.00138
1.00324
1.00587
1.00869
1.01146
1.01411
1.01684
1.02103
1.02953
1.0475
1.087
1.1771
1.40232
1.95118
3.10378
2.05339
2.84334
3.5071
1.0001
1.00046
1.00138
1.00324
1.00587
1.0087
1.01146
1.0141
1.01684
1.02103
1.02952
1.0475
1.087
1.17712
1.40237
1.95201
3.10331
2.07196
2.85182
3.50765
1.0001
1.00046
1.00138
1.00324
1.00587
1.0087
1.01146
1.0141
1.01684
1.02103
1.02952
1.04749
1.08697
1.17709
1.40232
1.9524
3.10304
2.09255
2.85811
3.50628
1.0001
1.00046
1.00138
1.00324
1.00587
1.0087
1.01145
1.0141
1.01684
1.02102
1.02951
1.04745
1.08691
1.17697
1.40208
1.95233
3.1025
2.11627
2.86368
3.50295
1.0001
1.00046
1.00138
1.00324
1.00588
1.0087
1.01145
1.0141
1.01684
1.02101
1.02948
1.0474
1.08679
1.17674
1.40158
1.95152
3.10236
2.1403
2.86814
3.49465
1.0001
1.00046
1.00138
1.00324
1.00588
1.0087
1.01144
1.0141
1.01684
1.021
1.02945
1.04732
1.08661
1.17636
1.40065
1.9502
3.10115
2.16891
2.87172
3.48719
1.0001
1.00046
1.00138
1.00324
1.00588
1.0087
1.01144
1.0141
1.01683
1.02098
1.02939
1.0472
1.08635
1.17579
1.39925
1.948
3.10071
2.19607
2.87113
3.47082
1.0001
1.00046
1.00138
1.00324
1.00588
1.00869
1.01144
1.0141
1.01683
1.02095
1.02932
1.04703
1.08598
1.175
1.39717
1.94494
3.0995
2.22672
2.86922
3.45807
1.0001
1.00046
1.00138
1.00325
1.00587
1.00869
1.01144
1.01411
1.01681
1.02091
1.02922
1.04681
1.08549
1.1739
1.39426
1.94049
3.09823
2.25718
2.86541
3.43054
1.0001
1.00046
1.00138
1.00325
1.00587
1.00868
1.01145
1.01411
1.0168
1.02086
1.02909
1.04652
1.08483
1.17244
1.39038
1.93431
3.0966
2.28805
2.86091
3.41091
1.0001
1.00046
1.00138
1.00326
1.00586
1.00868
1.01145
1.01411
1.01678
1.0208
1.02893
1.04615
1.08399
1.17054
1.38535
1.92596
3.09373
2.31874
2.85072
3.36853
1.0001
1.00046
1.00138
1.00326
1.00585
1.00868
1.01146
1.01411
1.01676
1.02072
1.02873
1.04568
1.08293
1.16812
1.379
1.91492
3.08937
2.35289
2.84337
3.33881
1.0001
1.00046
1.00138
1.00326
1.00585
1.00868
1.01147
1.01411
1.01674
1.02062
1.02849
1.04512
1.08162
1.1651
1.37103
1.90057
3.08208
2.37577
2.82536
3.25734
1.0001
1.00046
1.00138
1.00326
1.00584
1.00869
1.01147
1.0141
1.01671
1.02051
1.0282
1.04444
1.08004
1.1614
1.36118
1.88224
3.06816
2.41306
2.82234
3.22079
0.999882
0.999757
0.999744
1.00008
1.00096
1.00221
1.00395
1.00598
1.00853
1.01263
1.02107
1.03905
1.07865
1.16916
1.39506
1.95214
3.09497
1.96939
2.72953
3.41915
0.999882
0.999757
0.999744
1.00008
1.00096
1.00221
1.00395
1.00598
1.00853
1.01263
1.02107
1.03905
1.07866
1.16919
1.39501
1.9533
3.09446
1.97008
2.74714
3.43377
0.999882
0.999757
0.999744
1.00008
1.00096
1.00221
1.00395
1.00598
1.00853
1.01263
1.02108
1.03906
1.07868
1.16925
1.39499
1.95522
3.09368
1.97466
2.7656
3.45984
0.999882
0.999757
0.999744
1.00008
1.00096
1.00222
1.00395
1.00598
1.00853
1.01263
1.02108
1.03907
1.07871
1.16934
1.39505
1.95761
3.09283
1.98236
2.782
3.47173
0.999882
0.999757
0.999744
1.00008
1.00096
1.00222
1.00395
1.00598
1.00853
1.01264
1.02109
1.03909
1.07874
1.16944
1.39519
1.96022
3.09202
1.99309
2.79615
3.48243
0.999882
0.999757
0.999744
1.00008
1.00096
1.00222
1.00395
1.00598
1.00853
1.01264
1.0211
1.0391
1.07878
1.16956
1.39539
1.96287
3.09124
2.00688
2.80761
3.49024
0.999882
0.999757
0.999744
1.00008
1.00096
1.00222
1.00394
1.00598
1.00853
1.01264
1.0211
1.03912
1.07882
1.16966
1.39561
1.96504
3.09079
2.0233
2.81973
3.49407
0.999882
0.999757
0.999744
1.00008
1.00096
1.00222
1.00394
1.00598
1.00853
1.01264
1.0211
1.03912
1.07884
1.16974
1.39581
1.96657
3.09048
2.04279
2.83053
3.49377
0.999882
0.999757
0.999744
1.00008
1.00096
1.00222
1.00394
1.00598
1.00853
1.01264
1.0211
1.03912
1.07884
1.16977
1.39598
1.96679
3.09071
2.06439
2.83866
3.49153
0.999882
0.999757
0.999744
1.00008
1.00096
1.00222
1.00394
1.00598
1.00853
1.01264
1.0211
1.0391
1.07881
1.16972
1.396
1.96589
3.09107
2.08896
2.84481
3.48726
0.999882
0.999757
0.999744
1.00008
1.00096
1.00222
1.00394
1.00598
1.00853
1.01264
1.02108
1.03907
1.07873
1.16957
1.39586
1.96281
3.09237
2.11427
2.85021
3.47753
0.999882
0.999757
0.999744
1.00008
1.00096
1.00221
1.00394
1.00599
1.00853
1.01263
1.02105
1.039
1.07859
1.16926
1.39536
1.95893
3.09299
2.14295
2.85604
3.46969
0.999882
0.999757
0.999744
1.00008
1.00096
1.00221
1.00394
1.00599
1.00852
1.01261
1.02101
1.0389
1.07838
1.16878
1.3946
1.95348
3.09376
2.17181
2.85821
3.45285
0.999882
0.999757
0.999744
1.00008
1.00096
1.00221
1.00394
1.00599
1.00852
1.01258
1.02094
1.03876
1.07807
1.16808
1.39315
1.94821
3.09308
2.20352
2.8572
3.44006
0.999882
0.999757
0.999743
1.00008
1.00095
1.00222
1.00394
1.00599
1.00851
1.01255
1.02086
1.03857
1.07763
1.16709
1.39082
1.94292
3.09182
2.23494
2.855
3.41255
0.999882
0.999757
0.999743
1.00008
1.00095
1.00222
1.00395
1.00599
1.0085
1.01251
1.02075
1.03831
1.07704
1.16574
1.38727
1.93689
3.09023
2.26739
2.85166
3.39297
0.999882
0.999757
0.999743
1.00008
1.00095
1.00222
1.00395
1.00598
1.00848
1.01245
1.02061
1.03797
1.07625
1.16395
1.3825
1.92892
3.08872
2.29798
2.84367
3.35086
0.999882
0.999757
0.999744
1.00008
1.00095
1.00223
1.00394
1.00598
1.00846
1.01239
1.02042
1.03753
1.07524
1.16163
1.37637
1.91832
3.08568
2.33347
2.83746
3.32129
0.999882
0.999757
0.999744
1.00008
1.00094
1.00223
1.00394
1.00597
1.00845
1.0123
1.0202
1.03699
1.07397
1.1587
1.36865
1.90433
3.08217
2.35709
2.82212
3.24008
0.999882
0.999757
0.999744
1.00008
1.00094
1.00224
1.00393
1.00597
1.00843
1.0122
1.01993
1.03633
1.07242
1.15509
1.35899
1.88656
3.07101
2.39553
2.8193
3.2041
0.999863
0.999596
0.999255
0.99901
0.999083
0.999419
1.00018
1.00174
1.00413
1.00818
1.01657
1.03451
1.07413
1.16485
1.39057
1.9628
3.08594
1.95395
2.70655
3.35588
0.999863
0.999596
0.999255
0.99901
0.999083
0.999419
1.00018
1.00174
1.00413
1.00818
1.01658
1.03452
1.07414
1.16489
1.39051
1.96494
3.08495
1.95484
2.72545
3.36923