/*--------------------------------*- C++ -*----------------------------------*\
  =========                 |
  \\      /  F ield         | OpenFOAM: The Open Source CFD Toolbox
   \\    /   O peration     | Website:  https://openfoam.org
    \\  /    A nd           | Version:  6.0
     \\/     M anipulation  |
\*---------------------------------------------------------------------------*/
FoamFile
{
    version     2.0;
    format      ascii;
    class       volVectorField;
    location    "0.5";
    object      U;
}
// * * * * * * * * * * * * * * * * * * * * * * * * * * * * * * * * * * * * * //

dimensions      [0 1 -1 0 0 0 0];

internalField   nonuniform List<vector> 
24000
(
(3.08437 4.34209e-08 -0.139477)
(3.11011 -5.25858e-08 -0.150074)
(3.12413 -8.34408e-08 -0.152699)
(3.13443 1.36854e-08 -0.152652)
(3.14184 1.51221e-07 -0.152365)
(3.14742 1.904e-07 -0.151777)
(3.152 3.5021e-07 -0.151137)
(3.15504 3.46319e-07 -0.150983)
(3.15571 1.53511e-06 -0.15122)
(3.15514 2.93035e-06 -0.151456)
(3.15307 4.68033e-06 -0.152181)
(3.14709 7.17109e-06 -0.15415)
(3.13125 1.12831e-05 -0.159061)
(3.08968 1.89104e-05 -0.171063)
(2.97286 3.40154e-05 -0.201693)
(2.58986 6.58647e-05 -0.290937)
(1.26885 8.68411e-05 -0.552264)
(0.238706 -0.000191039 -0.596111)
(0.320333 -0.000598662 -0.564267)
(0.365584 0.000475659 -0.594946)
(3.08437 1.20767e-07 -0.139477)
(3.11011 -1.64416e-07 -0.150073)
(3.12413 -2.33592e-07 -0.152699)
(3.13443 7.5509e-08 -0.152652)
(3.14184 5.03657e-07 -0.152365)
(3.14742 6.16478e-07 -0.151777)
(3.152 1.11167e-06 -0.151137)
(3.15504 1.10096e-06 -0.150983)
(3.15572 4.86388e-06 -0.15122)
(3.15514 9.26369e-06 -0.151456)
(3.15307 1.48138e-05 -0.15218)
(3.14709 2.28173e-05 -0.154149)
(3.13126 3.62451e-05 -0.15906)
(3.08969 6.1664e-05 -0.17106)
(2.97287 0.000113927 -0.201688)
(2.58986 0.000228312 -0.290914)
(1.26789 0.000406983 -0.552499)
(0.236537 0.000122112 -0.595973)
(0.316411 0.000140426 -0.564972)
(0.358668 0.00471947 -0.597557)
(3.08437 1.72801e-07 -0.139477)
(3.11011 -2.89983e-07 -0.150073)
(3.12413 -3.45726e-07 -0.152699)
(3.13443 2.01959e-07 -0.152652)
(3.14184 9.37499e-07 -0.152366)
(3.14742 1.10565e-06 -0.151777)
(3.152 1.9661e-06 -0.151138)
(3.15504 1.90444e-06 -0.150982)
(3.15572 8.63639e-06 -0.151219)
(3.15514 1.64805e-05 -0.151455)
(3.15307 2.64505e-05 -0.152179)
(3.1471 4.10674e-05 -0.154147)
(3.13126 6.60959e-05 -0.159056)
(3.0897 0.000114652 -0.171054)
(2.9729 0.00021843 -0.201677)
(2.58987 0.000460339 -0.29088)
(1.26713 0.00100379 -0.552697)
(0.234931 0.00156599 -0.595601)
(0.314125 0.00368222 -0.564907)
(0.354578 0.0143057 -0.59861)
(3.08437 1.86336e-07 -0.139477)
(3.11011 -4.28403e-07 -0.150073)
(3.12413 -4.06212e-07 -0.152698)
(3.13443 4.02175e-07 -0.152652)
(3.14184 1.4508e-06 -0.152367)
(3.14742 1.63202e-06 -0.151777)
(3.152 2.86971e-06 -0.151138)
(3.15504 2.65936e-06 -0.150981)
(3.15572 1.28689e-05 -0.151218)
(3.15514 2.47113e-05 -0.151453)
(3.15308 3.9864e-05 -0.152177)
(3.1471 6.24385e-05 -0.154144)
(3.13128 0.000101865 -0.159051)
(3.08973 0.000180051 -0.171044)
(2.97296 0.000352076 -0.201658)
(2.58997 0.000776404 -0.290822)
(1.26621 0.0018915 -0.552916)
(0.232411 0.00423317 -0.595052)
(0.311373 0.00940435 -0.564713)
(0.351471 0.0277535 -0.598619)
(3.08437 1.48991e-07 -0.139477)
(3.11011 -5.58332e-07 -0.150072)
(3.12413 -3.89335e-07 -0.152698)
(3.13443 7.01714e-07 -0.152653)
(3.14184 2.06453e-06 -0.152369)
(3.14742 2.18306e-06 -0.151777)
(3.152 3.78787e-06 -0.151138)
(3.15504 3.29488e-06 -0.15098)
(3.15572 1.76758e-05 -0.151217)
(3.15515 3.427e-05 -0.151452)
(3.15308 5.56386e-05 -0.152175)
(3.14712 8.79784e-05 -0.154139)
(3.1313 0.000145528 -0.159043)
(3.08978 0.000261839 -0.171029)
(2.97306 0.000523435 -0.201628)
(2.59017 0.00119338 -0.29073)
(1.26529 0.00313039 -0.553131)
(0.229204 0.00871209 -0.594309)
(0.308148 0.0180459 -0.564373)
(0.349218 0.0456449 -0.598071)
(3.08437 7.3744e-08 -0.139478)
(3.11011 -6.60288e-07 -0.150072)
(3.12413 -2.85544e-07 -0.152698)
(3.13443 1.09638e-06 -0.152653)
(3.14184 2.74026e-06 -0.152371)
(3.14742 2.69773e-06 -0.151777)
(3.152 4.68302e-06 -0.151138)
(3.15505 3.77603e-06 -0.150979)
(3.15573 2.32328e-05 -0.151215)
(3.15515 4.55561e-05 -0.151449)
(3.15309 7.44739e-05 -0.152171)
(3.14713 0.000118902 -0.154133)
(3.13133 0.000199349 -0.159033)
(3.08985 0.000364611 -0.171008)
(2.97322 0.000742665 -0.201584)
(2.59055 0.0017323 -0.290594)
(1.26467 0.0047873 -0.55328)
(0.225794 0.0155586 -0.59333)
(0.305243 0.0301502 -0.563871)
(0.348557 0.0675771 -0.596365)
(3.08437 -5.71288e-09 -0.139478)
(3.11011 -7.12707e-07 -0.150071)
(3.12413 -8.85562e-08 -0.152698)
(3.13443 1.57545e-06 -0.152654)
(3.14184 3.40834e-06 -0.152374)
(3.14742 3.01618e-06 -0.151776)
(3.152 5.39571e-06 -0.151139)
(3.15505 3.9851e-06 -0.150977)
(3.15574 2.97887e-05 -0.151213)
(3.15516 5.91622e-05 -0.151446)
(3.1531 9.73545e-05 -0.152166)
(3.14715 0.000156808 -0.154125)
(3.13138 0.000266178 -0.159018)
(3.08995 0.000494104 -0.170978)
(2.97346 0.00102275 -0.201521)
(2.59116 0.00242723 -0.290404)
(1.26499 0.00697817 -0.553262)
(0.223942 0.0250917 -0.591996)
(0.304424 0.0459116 -0.562845)
(0.350206 0.0926626 -0.593643)
(3.08437 -5.82129e-08 -0.139478)
(3.11011 -6.86797e-07 -0.150071)
(3.12414 2.44135e-07 -0.152698)
(3.13443 2.1017e-06 -0.152654)
(3.14184 3.94862e-06 -0.152376)
(3.14742 2.94867e-06 -0.151776)
(3.152 5.76547e-06 -0.151139)
(3.15505 3.73106e-06 -0.150974)
(3.15575 3.75045e-05 -0.151209)
(3.15518 7.56352e-05 -0.151442)
(3.15312 0.000125327 -0.15216)
(3.14719 0.000203564 -0.154115)
(3.13144 0.000349539 -0.158999)
(3.09008 0.000657677 -0.170938)
(2.97379 0.00138082 -0.201431)
(2.59208 0.00332708 -0.290139)
(1.26668 0.00985579 -0.55301)
(0.224223 0.0373213 -0.590313)
(0.305807 0.0651924 -0.561236)
(0.353685 0.120492 -0.590197)
(3.08437 -5.51906e-08 -0.139478)
(3.11011 -5.80476e-07 -0.15007)
(3.12414 7.36653e-07 -0.152698)
(3.13443 2.53697e-06 -0.152655)
(3.14184 4.13924e-06 -0.152379)
(3.14742 2.36402e-06 -0.151775)
(3.152 5.85675e-06 -0.15114)
(3.15506 3.05954e-06 -0.15097)
(3.15576 4.6661e-05 -0.151205)
(3.15519 9.55822e-05 -0.151436)
(3.15315 0.000159533 -0.152152)
(3.14723 0.000261304 -0.154101)
(3.13152 0.000453675 -0.158972)
(3.09027 0.000864588 -0.170883)
(2.97426 0.00183944 -0.201306)
(2.59343 0.00449592 -0.28977)
(1.27011 0.0136248 -0.552491)
(0.227224 0.0520312 -0.588248)
(0.309416 0.0882144 -0.559282)
(0.358475 0.151673 -0.586639)
(3.08437 2.01327e-08 -0.139478)
(3.11011 -3.81558e-07 -0.15007)
(3.12414 1.35006e-06 -0.152698)
(3.13443 2.77334e-06 -0.152655)
(3.14184 3.94208e-06 -0.152382)
(3.14742 1.35644e-06 -0.151774)
(3.152 5.92275e-06 -0.151141)
(3.15507 2.15733e-06 -0.150965)
(3.15578 5.76767e-05 -0.1512)
(3.15521 0.000119762 -0.15143)
(3.15317 0.000201318 -0.152141)
(3.14728 0.000332478 -0.154083)
(3.13163 0.000583397 -0.158938)
(3.09052 0.00112528 -0.170809)
(2.9749 0.00242402 -0.201135)
(2.59536 0.00600681 -0.289261)
(1.27566 0.0185521 -0.551612)
(0.232293 0.069513 -0.585782)
(0.315309 0.115156 -0.556713)
(0.364462 0.186836 -0.582667)
(3.08437 1.60195e-07 -0.139478)
(3.11011 -6.29201e-08 -0.150069)
(3.12414 2.05807e-06 -0.152699)
(3.13443 2.92256e-06 -0.152655)
(3.14184 3.62506e-06 -0.152385)
(3.14742 1.75148e-07 -0.151774)
(3.152 6.13855e-06 -0.151143)
(3.15507 1.03685e-06 -0.150959)
(3.1558 7.11205e-05 -0.151194)
(3.15524 0.000149242 -0.151422)
(3.15321 0.000252307 -0.152129)
(3.14735 0.000419605 -0.15406)
(3.13178 0.000743121 -0.158892)
(3.09086 0.00144868 -0.17071)
(2.97576 0.00315492 -0.200904)
(2.59805 0.00791184 -0.288566)
(1.28401 0.0247782 -0.550284)
(0.239505 0.0904755 -0.582913)
(0.323266 0.146136 -0.553486)
(0.371438 0.226096 -0.577985)
(3.08437 2.69458e-07 -0.139478)
(3.11011 5.35511e-07 -0.150068)
(3.12414 3.00162e-06 -0.1527)
(3.13443 3.24042e-06 -0.152655)
(3.14184 3.48014e-06 -0.152389)
(3.14742 -1.10862e-06 -0.151773)
(3.152 6.43667e-06 -0.151144)
(3.15509 -3.93493e-07 -0.150951)
(3.15582 8.73143e-05 -0.151186)
(3.15527 0.000184856 -0.151411)
(3.15326 0.000314036 -0.152113)
(3.14744 0.000525436 -0.154031)
(3.13197 0.000938009 -0.158834)
(3.09129 0.00184532 -0.170581)
(2.97691 0.00405563 -0.200597)
(2.6017 0.0102685 -0.287639)
(1.2958 0.0324141 -0.548457)
(0.250029 0.115254 -0.579538)
(0.333473 0.181385 -0.549629)
(0.379211 0.269617 -0.57258)
(3.08437 4.02867e-07 -0.139479)
(3.11011 1.31552e-06 -0.150068)
(3.12414 4.23961e-06 -0.152701)
(3.13443 3.56401e-06 -0.152653)
(3.14184 3.408e-06 -0.152391)
(3.14742 -2.2894e-06 -0.151773)
(3.152 7.39273e-06 -0.151146)
(3.1551 -1.34642e-06 -0.150941)
(3.15586 0.00010704 -0.151176)
(3.15531 0.00022753 -0.151399)
(3.15332 0.000387973 -0.152094)
(3.14755 0.000652908 -0.153995)
(3.1322 0.00117451 -0.158759)
(3.09186 0.00232984 -0.170414)
(2.97841 0.00516101 -0.200199)
(2.60652 0.0131677 -0.28643)
(1.31161 0.041719 -0.545997)
(0.264476 0.144216 -0.575672)
(0.346004 0.221372 -0.545155)
(0.387609 0.318111 -0.566709)
(3.08437 7.45602e-07 -0.139479)
(3.11011 2.22342e-06 -0.150067)
(3.12414 5.64456e-06 -0.152704)
(3.13443 3.64785e-06 -0.152652)
(3.14184 3.28488e-06 -0.152394)
(3.14742 -3.91003e-06 -0.151772)
(3.152 8.73523e-06 -0.151148)
(3.15512 -2.40231e-06 -0.150926)
(3.1559 0.00013065 -0.151163)
(3.15536 0.000278647 -0.151384)
(3.1534 0.000476833 -0.152071)
(3.14769 0.000807051 -0.153952)
(3.13251 0.00146252 -0.158667)
(3.09258 0.00292307 -0.170205)
(2.98034 0.00651863 -0.19969)
(2.61275 0.0167321 -0.284882)
(1.3322 0.0530763 -0.542703)
(0.283584 0.177818 -0.571337)
(0.361174 0.266628 -0.540009)
(0.396674 0.372393 -0.559987)
(3.08437 1.33204e-06 -0.13948)
(3.11011 3.5473e-06 -0.150066)
(3.12414 7.23323e-06 -0.152707)
(3.13443 3.41656e-06 -0.152651)
(3.14183 3.39514e-06 -0.152396)
(3.14742 -6.72894e-06 -0.151771)
(3.152 1.0197e-05 -0.15115)
(3.15514 -5.22773e-06 -0.150908)
(3.15595 0.000157234 -0.151147)
(3.15542 0.000338577 -0.151365)
(3.15349 0.000582971 -0.152042)
(3.14787 0.000993534 -0.153898)
(3.13289 0.00181394 -0.158552)
(3.09349 0.00365012 -0.169942)
(2.9828 0.00818551 -0.199044)
(2.62074 0.0211079 -0.282916)
(1.35864 0.0669168 -0.538411)
(0.307627 0.217002 -0.566406)
(0.379284 0.318121 -0.534006)
(0.406568 0.43356 -0.552191)
(3.08437 2.10652e-06 -0.139481)
(3.11011 4.92326e-06 -0.150067)
(3.12414 9.06811e-06 -0.152711)
(3.13443 2.34276e-06 -0.152647)
(3.14183 4.24616e-06 -0.152397)
(3.14742 -1.0906e-05 -0.151768)
(3.152 1.32608e-05 -0.151153)
(3.15516 -1.19413e-05 -0.150885)
(3.15601 0.000186067 -0.151128)
(3.1555 0.000408895 -0.151342)
(3.15361 0.000711071 -0.152007)
(3.14809 0.00122087 -0.153832)
(3.13337 0.00224268 -0.158411)
(3.09464 0.00453574 -0.169615)
(2.98591 0.0102158 -0.198231)
(2.63088 0.0264353 -0.280441)
(1.39229 0.083621 -0.532903)
(0.33768 0.26301 -0.560554)
(0.400828 0.377103 -0.527089)
(0.417574 0.503854 -0.543825)
(3.08437 3.1347e-06 -0.139483)
(3.11011 6.33632e-06 -0.150067)
(3.12413 1.15366e-05 -0.152715)
(3.13443 2.24476e-07 -0.152642)
(3.14183 6.6947e-06 -0.152397)
(3.14743 -1.78943e-05 -0.151763)
(3.152 1.9573e-05 -0.151155)
(3.15519 -2.58194e-05 -0.15086)
(3.15608 0.00021708 -0.151106)
(3.15559 0.000493378 -0.151316)
(3.15376 0.000869026 -0.151965)
(3.14837 0.00150058 -0.153751)
(3.13397 0.00276367 -0.158236)
(3.09607 0.00560305 -0.16921)
(2.98981 0.0126659 -0.197216)
(2.64362 0.0329097 -0.277353)
(1.43442 0.103867 -0.525836)
(0.37487 0.317571 -0.553685)
(0.426654 0.445414 -0.518783)
(0.430397 0.585858 -0.532849)
(3.08437 5.11671e-06 -0.139485)
(3.11011 7.86686e-06 -0.150069)
(3.12413 1.39715e-05 -0.152722)
(3.13442 -2.31017e-06 -0.152632)
(3.14182 1.03568e-05 -0.152397)
(3.14743 -2.84019e-05 -0.151754)
(3.152 2.91846e-05 -0.151156)
(3.15522 -4.61935e-05 -0.150837)
(3.15618 0.000251347 -0.151081)
(3.15571 0.000593145 -0.151285)
(3.15394 0.00105778 -0.151915)
(3.14871 0.0018342 -0.153652)
(3.13471 0.00338338 -0.158022)
(3.09786 0.00687817 -0.168712)
(2.99471 0.0156271 -0.195954)
(2.65969 0.0408594 -0.273501)
(1.4875 0.12862 -0.516768)
(0.421104 0.383431 -0.545328)
(0.457852 0.526632 -0.509808)
(0.445805 0.684849 -0.521096)
(3.08437 9.29547e-06 -0.139488)
(3.11011 8.19136e-06 -0.150071)
(3.12413 1.4293e-05 -0.152734)
(3.13442 -6.08938e-06 -0.152614)
(3.14181 1.25433e-05 -0.152396)
(3.14743 -3.98469e-05 -0.151742)
(3.15199 4.09673e-05 -0.151153)
(3.15526 -6.49355e-05 -0.150819)
(3.15629 0.000290768 -0.151051)
(3.15586 0.000701893 -0.151246)
(3.15417 0.00126101 -0.151854)
(3.14913 0.00219553 -0.153534)
(3.13562 0.00406959 -0.157764)
(3.10006 0.00833501 -0.168105)
(3.00086 0.0191248 -0.1944)
(2.67993 0.0506022 -0.268672)
(1.55376 0.160174 -0.505966)
(0.477591 0.465656 -0.534576)
(0.495742 0.625443 -0.498189)
(0.465119 0.809771 -0.503611)
(3.08437 1.79242e-05 -0.139494)
(3.11011 8.64608e-06 -0.150069)
(3.12413 1.32144e-05 -0.152749)
(3.13442 -9.89492e-06 -0.152593)
(3.14181 1.15799e-05 -0.1524)
(3.14743 -5.25766e-05 -0.151721)
(3.15198 4.64307e-05 -0.151141)
(3.15531 -7.89693e-05 -0.150806)
(3.15643 0.00033796 -0.151021)
(3.15603 0.000825033 -0.151206)
(3.15443 0.00149421 -0.151786)
(3.14963 0.00262474 -0.153395)
(3.13672 0.00491707 -0.157455)
(3.10279 0.0101943 -0.167373)
(3.00859 0.0237025 -0.192496)
(2.70614 0.0636923 -0.262612)
(1.64059 0.203604 -0.491111)
(0.544105 0.579132 -0.520778)
(0.532132 0.756784 -0.485359)
(0.488573 0.971019 -0.486872)
(3.00706 1.64949e-08 -0.0225461)
(3.0173 1.23934e-08 -0.0336557)
(3.02733 3.82673e-09 -0.0379781)
(3.03713 8.42133e-08 -0.0412353)
(3.04459 2.50475e-07 -0.0430475)
(3.05071 2.81943e-07 -0.0439864)
(3.05581 3.71079e-07 -0.0446447)
(3.05895 7.67871e-07 -0.0453875)
(3.05955 2.15152e-06 -0.0458408)
(3.05912 3.86204e-06 -0.0460043)
(3.05652 6.27883e-06 -0.0464242)
(3.04839 1.02026e-05 -0.0473731)
(3.02678 1.73454e-05 -0.049444)
(2.97137 3.15323e-05 -0.0540165)
(2.82232 6.17084e-05 -0.0645362)
(2.35688 0.000132358 -0.0928345)
(0.706609 0.000437922 -0.164602)
(-0.489427 0.00105258 -0.174817)
(-0.109174 0.00420327 -0.170888)
(0.360046 0.00961429 -0.171536)
(3.00706 4.51586e-08 -0.0225461)
(3.0173 3.31496e-08 -0.0336557)
(3.02733 1.94425e-08 -0.0379781)
(3.03713 2.67729e-07 -0.0412353)
(3.04459 7.63788e-07 -0.0430476)
(3.05071 8.46905e-07 -0.0439864)
(3.05581 1.11784e-06 -0.0446447)
(3.05895 2.30098e-06 -0.0453873)
(3.05955 6.54989e-06 -0.0458408)
(3.05913 1.1798e-05 -0.0460043)
(3.05652 1.92148e-05 -0.0464241)
(3.04839 3.12708e-05 -0.0473728)
(3.02679 5.32637e-05 -0.0494433)
(2.97138 9.71461e-05 -0.054015)
(2.82235 0.000191514 -0.0645333)
(2.35697 0.000417794 -0.0928241)
(0.706734 0.00134216 -0.164573)
(-0.489541 0.00402693 -0.174697)
(-0.109741 0.0139826 -0.170922)
(0.354109 0.0300546 -0.17135)
(3.00706 6.3273e-08 -0.0225461)
(3.0173 4.4261e-08 -0.0336556)
(3.02733 5.02521e-08 -0.037978)
(3.03713 4.8291e-07 -0.0412353)
(3.04459 1.30907e-06 -0.0430478)
(3.05071 1.40281e-06 -0.0439864)
(3.05581 1.84588e-06 -0.0446448)
(3.05895 3.82327e-06 -0.045387)
(3.05955 1.12457e-05 -0.0458409)
(3.05913 2.03958e-05 -0.0460042)
(3.05652 3.33539e-05 -0.0464238)
(3.0484 5.452e-05 -0.0473722)
(3.0268 9.33746e-05 -0.0494421)
(2.97141 0.000171547 -0.0540125)
(2.82241 0.000342006 -0.0645282)
(2.35716 0.00076069 -0.0928058)
(0.70723 0.00241449 -0.164531)
(-0.488829 0.00908679 -0.174448)
(-0.108472 0.0283935 -0.170792)
(0.352438 0.0553015 -0.170657)
(3.00706 6.63605e-08 -0.0225462)
(3.0173 4.39852e-08 -0.0336554)
(3.02733 1.02789e-07 -0.0379778)
(3.03713 7.3434e-07 -0.0412353)
(3.04459 1.8858e-06 -0.043048)
(3.05071 1.93139e-06 -0.0439865)
(3.05581 2.52891e-06 -0.044645)
(3.05895 5.34599e-06 -0.0453865)
(3.05956 1.64646e-05 -0.0458411)
(3.05913 3.01335e-05 -0.0460042)
(3.05653 4.95777e-05 -0.0464235)
(3.04841 8.16168e-05 -0.0473713)
(3.02683 0.00014101 -0.0494403)
(2.97146 0.000261726 -0.0540088)
(2.82252 0.000528279 -0.0645204)
(2.35749 0.00119407 -0.0927784)
(0.708383 0.00381225 -0.16447)
(-0.486772 0.0163372 -0.174074)
(-0.106238 0.0463256 -0.170429)
(0.348939 0.0833625 -0.16971)
(3.00706 5.4279e-08 -0.0225464)
(3.0173 4.3203e-08 -0.0336552)
(3.02733 1.98545e-07 -0.0379776)
(3.03713 1.02171e-06 -0.0412354)
(3.04459 2.46623e-06 -0.0430484)
(3.05071 2.40476e-06 -0.0439865)
(3.05581 3.14703e-06 -0.0446452)
(3.05896 6.90316e-06 -0.0453858)
(3.05956 2.24787e-05 -0.0458414)
(3.05914 4.15514e-05 -0.0460041)
(3.05654 6.88284e-05 -0.0464229)
(3.04843 0.000114259 -0.0473701)
(3.02686 0.000199459 -0.0494378)
(2.97153 0.000374514 -0.0540035)
(2.82269 0.000765549 -0.0645093)
(2.35801 0.00175445 -0.0927389)
(0.710515 0.00562245 -0.164382)
(-0.482989 0.0258993 -0.173558)
(-0.103035 0.0680177 -0.169949)
(0.346221 0.114029 -0.168481)
(3.00706 3.69679e-08 -0.0225465)
(3.0173 5.35551e-08 -0.0336549)
(3.02733 3.39279e-07 -0.0379774)
(3.03713 1.34613e-06 -0.0412355)
(3.04459 3.04068e-06 -0.0430489)
(3.05071 2.81088e-06 -0.0439865)
(3.05581 3.68632e-06 -0.0446455)
(3.05896 8.52678e-06 -0.0453847)
(3.05957 2.95662e-05 -0.0458417)
(3.05915 5.52143e-05 -0.046004)
(3.05655 9.20974e-05 -0.0464223)
(3.04845 0.000154225 -0.0473685)
(3.02691 0.000272148 -0.0494343)
(2.97164 0.000517041 -0.0539959)
(2.82293 0.00106974 -0.0644934)
(2.35879 0.00248016 -0.0926835)
(0.713958 0.00794177 -0.164252)
(-0.476944 0.0379175 -0.172917)
(-0.0983341 0.0935174 -0.169225)
(0.337216 0.147409 -0.167198)
(3.00706 3.36574e-08 -0.0225466)
(3.0173 9.97366e-08 -0.0336546)
(3.02733 5.27336e-07 -0.0379772)
(3.03713 1.68198e-06 -0.0412357)
(3.04459 3.59834e-06 -0.0430496)
(3.05071 3.18109e-06 -0.0439865)
(3.05582 4.21366e-06 -0.0446459)
(3.05896 1.02923e-05 -0.0453832)
(3.05958 3.8025e-05 -0.0458422)
(3.05916 7.17002e-05 -0.0460039)
(3.05657 0.000120412 -0.0464213)
(3.04848 0.000203402 -0.0473662)
(3.02698 0.000362796 -0.0494294)
(2.97178 0.000697186 -0.0539854)
(2.82328 0.00145874 -0.0644708)
(2.35989 0.00341704 -0.0926069)
(0.71907 0.0109388 -0.164065)
(-0.46823 0.0525794 -0.172162)
(-0.09157 0.122172 -0.16819)
(0.327336 0.184568 -0.165809)
(3.00706 6.86401e-08 -0.0225467)
(3.0173 2.18766e-07 -0.0336542)
(3.02733 7.94833e-07 -0.037977)
(3.03713 2.00653e-06 -0.041236)
(3.04459 4.12439e-06 -0.0430503)
(3.05071 3.532e-06 -0.0439865)
(3.05582 4.76848e-06 -0.0446463)
(3.05897 1.22742e-05 -0.0453811)
(3.05959 4.82193e-05 -0.0458429)
(3.05917 9.17125e-05 -0.0460037)
(3.05659 0.000155002 -0.0464201)
(3.04853 0.000264024 -0.0473631)
(3.02707 0.000475811 -0.0494227)
(2.97198 0.000924399 -0.0539708)
(2.82377 0.00195452 -0.0644391)
(2.36144 0.00462293 -0.0925017)
(0.726306 0.014813 -0.163806)
(-0.456453 0.0699615 -0.171302)
(-0.0825334 0.153888 -0.16686)
(0.32061 0.225489 -0.164076)
(3.00706 1.55816e-07 -0.0225468)
(3.0173 4.10789e-07 -0.0336538)
(3.02733 1.15494e-06 -0.0379769)
(3.03713 2.35231e-06 -0.0412364)
(3.04459 4.67708e-06 -0.0430512)
(3.05071 3.88159e-06 -0.0439863)
(3.05582 5.27318e-06 -0.0446467)
(3.05898 1.44586e-05 -0.0453784)
(3.05961 6.05565e-05 -0.0458438)
(3.05919 0.000116137 -0.0460036)
(3.05663 0.000197441 -0.0464184)
(3.04858 0.00033892 -0.0473589)
(3.02719 0.000616684 -0.0494137)
(2.97225 0.00121039 -0.0539509)
(2.82443 0.00258459 -0.0643956)
(2.36357 0.00617098 -0.0923592)
(0.736146 0.0197912 -0.16346)
(-0.441288 0.0900736 -0.170323)
(-0.0714852 0.18909 -0.165296)
(0.317236 0.269834 -0.162098)
(3.00706 2.96086e-07 -0.0225468)
(3.0173 6.73372e-07 -0.0336534)
(3.02733 1.62677e-06 -0.0379768)
(3.03713 2.73691e-06 -0.041237)
(3.04459 5.27093e-06 -0.0430521)
(3.05071 4.19442e-06 -0.0439859)
(3.05582 5.58e-06 -0.0446471)
(3.05899 1.67539e-05 -0.0453749)
(3.05963 7.55675e-05 -0.045845)
(3.05922 0.000146172 -0.0460034)
(3.05667 0.000249783 -0.0464163)
(3.04866 0.000431618 -0.0473535)
(3.02734 0.000792022 -0.0494017)
(2.97261 0.0015689 -0.0539243)
(2.82531 0.00338078 -0.0643368)
(2.36646 0.00814556 -0.0921694)
(0.749015 0.0261572 -0.163026)
(-0.425124 0.113396 -0.169135)
(-0.0582564 0.228013 -0.163485)
(0.316922 0.317328 -0.159766)
(3.00706 4.84809e-07 -0.0225468)
(3.0173 1.02396e-06 -0.033653)
(3.02733 2.22636e-06 -0.0379769)
(3.03713 3.13991e-06 -0.0412375)
(3.04459 5.827e-06 -0.0430528)
(3.05071 4.38963e-06 -0.0439853)
(3.05582 5.72212e-06 -0.0446477)
(3.059 1.91485e-05 -0.0453705)
(3.05965 9.39167e-05 -0.0458466)
(3.05925 0.000183179 -0.0460032)
(3.05672 0.00031431 -0.0464136)
(3.04876 0.000545897 -0.0473464)
(3.02755 0.00100862 -0.0493858)
(2.97308 0.00201348 -0.053889)
(2.82649 0.00437291 -0.0642586)
(2.37033 0.0106189 -0.0919179)
(0.765654 0.0340897 -0.162488)
(-0.406462 0.140334 -0.167797)
(-0.0431276 0.270772 -0.161468)
(0.31861 0.368025 -0.157223)
(3.00706 7.08378e-07 -0.0225468)
(3.0173 1.53145e-06 -0.0336528)
(3.02733 3.04654e-06 -0.0379772)
(3.03713 3.46947e-06 -0.041238)
(3.04459 6.22377e-06 -0.0430535)
(3.05071 4.37854e-06 -0.0439845)
(3.05582 5.7896e-06 -0.0446485)
(3.05902 2.20424e-05 -0.0453649)
(3.05968 0.000116272 -0.0458485)
(3.05929 0.000228485 -0.0460029)
(3.05678 0.000393451 -0.0464101)
(3.04888 0.000686056 -0.0473372)
(3.02781 0.00127426 -0.0493651)
(2.97368 0.00255935 -0.0538429)
(2.82804 0.00559359 -0.0641564)
(2.37542 0.0136675 -0.0915912)
(0.786789 0.0437258 -0.161826)
(-0.383895 0.171063 -0.166313)
(-0.0262659 0.317775 -0.159228)
(0.321611 0.422238 -0.154364)
(3.00706 9.76054e-07 -0.0225467)
(3.0173 2.14839e-06 -0.0336527)
(3.02733 4.14296e-06 -0.0379775)
(3.03713 3.9997e-06 -0.0412385)
(3.04459 6.60039e-06 -0.0430541)
(3.05071 3.8737e-06 -0.0439835)
(3.05583 5.60561e-06 -0.0446494)
(3.05904 2.55508e-05 -0.045358)
(3.05972 0.000143143 -0.0458509)
(3.05934 0.00028325 -0.0460024)
(3.05686 0.000489523 -0.0464055)
(3.04904 0.000856682 -0.0473255)
(3.02815 0.00159822 -0.0493388)
(2.97446 0.00322601 -0.0537839)
(2.83003 0.0070865 -0.0640249)
(2.38198 0.0173991 -0.0911756)
(0.813184 0.0553168 -0.160998)
(-0.356594 0.205847 -0.164712)
(-0.00770778 0.369402 -0.156753)
(0.325114 0.480628 -0.151339)
(3.00706 1.37047e-06 -0.0225465)
(3.0173 2.94552e-06 -0.0336528)
(3.02733 5.50272e-06 -0.0379781)
(3.03713 4.70469e-06 -0.041239)
(3.04459 7.05015e-06 -0.0430545)
(3.05071 2.62475e-06 -0.0439823)
(3.05583 5.67642e-06 -0.0446506)
(3.05907 3.00402e-05 -0.0453496)
(3.05977 0.000175402 -0.0458536)
(3.0594 0.000348697 -0.0460016)
(3.05696 0.00060452 -0.0463998)
(3.04923 0.00106191 -0.0473108)
(3.02857 0.00199001 -0.0493057)
(2.97545 0.00403569 -0.0537096)
(2.83256 0.0089046 -0.0638577)
(2.39032 0.0219503 -0.0906553)
(0.845668 0.0692415 -0.159948)
(-0.323721 0.245062 -0.163089)
(0.0127825 0.426367 -0.154053)
(0.32875 0.543897 -0.14805)
(3.00706 1.98179e-06 -0.0225463)
(3.0173 4.17554e-06 -0.0336532)
(3.02733 7.17848e-06 -0.0379788)
(3.03713 5.02839e-06 -0.0412393)
(3.04459 7.44685e-06 -0.0430548)
(3.05071 1.85033e-07 -0.0439808)
(3.05583 6.9256e-06 -0.0446519)
(3.05911 3.55175e-05 -0.0453392)
(3.05983 0.000213444 -0.0458571)
(3.05948 0.000425915 -0.0460007)
(3.05709 0.000741137 -0.0463927)
(3.04947 0.00130788 -0.0472926)
(3.0291 0.00246265 -0.0492646)
(2.97669 0.00501564 -0.0536168)
(2.83576 0.0111092 -0.0636479)
(2.40078 0.0274802 -0.0900082)
(0.885136 0.085945 -0.158667)
(-0.285354 0.289759 -0.161391)
(0.0349844 0.488572 -0.150701)
(0.331881 0.61322 -0.14451)
(3.00706 2.92724e-06 -0.022546)
(3.0173 5.98244e-06 -0.0336539)
(3.02733 9.40607e-06 -0.0379796)
(3.03713 4.69477e-06 -0.0412393)
(3.04459 7.78499e-06 -0.0430548)
(3.05071 -4.54598e-06 -0.043979)
(3.05584 1.08995e-05 -0.0446537)
(3.05915 3.98172e-05 -0.0453267)
(3.05991 0.000256909 -0.0458615)
(3.05958 0.000517091 -0.0459996)
(3.05724 0.000904854 -0.0463839)
(3.04977 0.00160384 -0.0472701)
(3.02976 0.00303021 -0.0492139)
(2.97823 0.00618984 -0.0535026)
(2.83977 0.0137548 -0.0633882)
(2.41385 0.0341512 -0.0892102)
(0.933144 0.10577 -0.157128)
(-0.240434 0.340902 -0.159485)
(0.0590237 0.556652 -0.147371)
(0.335227 0.690782 -0.141004)
(3.00706 4.16888e-06 -0.0225455)
(3.01731 8.36104e-06 -0.033655)
(3.02733 1.25489e-05 -0.0379808)
(3.03713 3.28168e-06 -0.0412388)
(3.04459 8.09293e-06 -0.0430549)
(3.05071 -1.2851e-05 -0.0439773)
(3.05585 2.11767e-05 -0.0446559)
(3.0592 3.35115e-05 -0.0453117)
(3.06 0.00030658 -0.0458673)
(3.05969 0.00063322 -0.0459984)
(3.05743 0.00111362 -0.046373)
(3.05015 0.0019691 -0.0472425)
(3.03057 0.00370894 -0.0491523)
(2.98014 0.00757479 -0.0533643)
(2.84476 0.0168808 -0.063072)
(2.43003 0.0420859 -0.0882292)
(0.989968 0.129161 -0.155239)
(-0.188403 0.399654 -0.157392)
(0.0851029 0.632007 -0.143398)
(0.339059 0.778788 -0.136829)
(3.00706 5.70108e-06 -0.0225448)
(3.01731 1.12644e-05 -0.0336563)
(3.02733 1.64807e-05 -0.0379828)
(3.03713 8.26537e-07 -0.0412368)
(3.04458 8.23284e-06 -0.0430558)
(3.05071 -2.50114e-05 -0.0439745)
(3.05585 3.87019e-05 -0.0446591)
(3.05925 1.10791e-05 -0.0452951)
(3.06011 0.000365294 -0.0458726)
(3.05984 0.000779296 -0.0459965)
(3.05766 0.00136761 -0.0463603)
(3.0506 0.00239546 -0.0472102)
(3.03155 0.00448574 -0.0490791)
(2.98248 0.0091664 -0.0531985)
(2.85093 0.0205254 -0.0626889)
(2.44994 0.0514502 -0.0870484)
(1.05818 0.156698 -0.152942)
(-0.127849 0.467742 -0.155095)
(0.113603 0.716381 -0.140001)
(0.343895 0.880971 -0.132784)
(3.00706 8.05622e-06 -0.0225449)
(3.01731 1.45362e-05 -0.0336571)
(3.02733 1.94877e-05 -0.0379845)
(3.03713 -2.63951e-06 -0.0412343)
(3.04458 7.91902e-06 -0.0430576)
(3.05072 -3.86905e-05 -0.0439703)
(3.05586 5.61397e-05 -0.0446621)
(3.05931 -8.0045e-06 -0.0452804)
(3.06025 0.00042843 -0.0458731)
(3.06002 0.000928129 -0.0459932)
(3.05794 0.00162315 -0.0463471)
(3.05114 0.00282987 -0.0471747)
(3.03274 0.00530114 -0.0489952)
(2.98532 0.0108942 -0.0530052)
(2.85848 0.0246067 -0.0622377)
(2.47427 0.0622413 -0.0856656)
(1.14134 0.188727 -0.150204)
(-0.0566618 0.548721 -0.15281)
(0.144954 0.81133 -0.136135)
(0.350442 1.00341 -0.127657)
(3.00706 1.27791e-05 -0.0225459)
(3.01731 1.94693e-05 -0.0336567)
(3.02732 2.08747e-05 -0.0379858)
(3.03714 -6.45179e-06 -0.041232)
(3.04457 8.33728e-06 -0.0430606)
(3.05074 -4.84676e-05 -0.0439648)
(3.05586 6.87011e-05 -0.0446653)
(3.05937 -1.27704e-05 -0.0452638)
(3.06042 0.000491047 -0.0458743)
(3.06023 0.00106608 -0.0459906)
(3.05827 0.00186753 -0.0463335)
(3.05177 0.00326859 -0.0471358)
(3.03413 0.00616284 -0.0489017)
(2.9887 0.012774 -0.0527875)
(2.86759 0.0291526 -0.0617226)
(2.50382 0.074615 -0.0840684)
(1.24558 0.224262 -0.14721)
(0.0293195 0.644943 -0.149945)
(0.180429 0.915467 -0.134513)
(0.359958 1.15446 -0.123747)
(2.97874 9.26297e-09 0.000345021)
(2.97498 4.56135e-08 -0.00403602)
(2.97784 3.69543e-08 -0.00715227)
(2.98131 7.7166e-08 -0.0104668)
(2.98547 1.60949e-07 -0.012583)
(2.98979 2.42668e-07 -0.0140808)
(2.99339 2.45738e-07 -0.015139)
(2.99543 1.08332e-06 -0.0162243)
(2.99592 2.16964e-06 -0.0164675)
(2.99537 3.74756e-06 -0.0166738)
(2.99209 6.25159e-06 -0.0170476)
(2.98232 1.05865e-05 -0.0177035)
(2.95716 1.8731e-05 -0.0189092)
(2.89397 3.5219e-05 -0.0212819)
(2.72677 7.13391e-05 -0.026334)
(2.19809 0.000158182 -0.038928)
(0.280512 0.000597392 -0.0750676)
(-0.97982 0.002436 -0.077076)
(-0.383021 0.00849744 -0.0772105)
(0.250981 0.0195814 -0.0743684)
(2.97874 2.99245e-08 0.000345014)
(2.97498 1.31707e-07 -0.00403601)
(2.97784 1.08815e-07 -0.00715226)
(2.98131 2.32708e-07 -0.0104668)
(2.98547 4.81731e-07 -0.0125831)
(2.98979 7.13422e-07 -0.0140808)
(2.99339 7.09695e-07 -0.015139)
(2.99543 3.24969e-06 -0.0162243)
(2.99592 6.55156e-06 -0.0164676)
(2.99537 1.13558e-05 -0.0166739)
(2.9921 1.89805e-05 -0.0170476)
(2.98233 3.21726e-05 -0.0177035)
(2.95717 5.69541e-05 -0.0189091)
(2.89399 0.000107216 -0.0212818)
(2.72681 0.000217897 -0.0263339)
(2.19823 0.00048834 -0.0389281)
(0.280851 0.00184001 -0.0750459)
(-0.980788 0.00834936 -0.076999)
(-0.380297 0.026348 -0.0771979)
(0.256372 0.0551206 -0.0740562)
(2.97874 5.67662e-08 0.000345002)
(2.97498 2.03678e-07 -0.004036)
(2.97784 1.74493e-07 -0.00715224)
(2.98131 3.91591e-07 -0.0104668)
(2.98547 8.02327e-07 -0.0125831)
(2.98979 1.15214e-06 -0.0140808)
(2.99339 1.10037e-06 -0.015139)
(2.99543 5.46258e-06 -0.0162241)
(2.99592 1.11521e-05 -0.0164678)
(2.99537 1.9463e-05 -0.016674)
(2.9921 3.26943e-05 -0.0170477)
(2.98233 5.56527e-05 -0.0177035)
(2.95718 9.89261e-05 -0.0189092)
(2.89402 0.000187129 -0.0212819)
(2.72688 0.000382855 -0.0263339)
(2.19852 0.000868798 -0.0389284)
(0.282163 0.0032722 -0.0750135)
(-0.980616 0.0168557 -0.0768452)
(-0.375548 0.0502381 -0.0770482)
(0.265557 0.0960689 -0.0733951)
(2.97874 9.33701e-08 0.000344985)
(2.97498 2.53878e-07 -0.00403598)
(2.97784 2.31415e-07 -0.0071522)
(2.98131 5.55111e-07 -0.0104668)
(2.98547 1.12258e-06 -0.0125832)
(2.98979 1.54884e-06 -0.0140807)
(2.99339 1.38538e-06 -0.015139)
(2.99543 7.82087e-06 -0.0162239)
(2.99592 1.62373e-05 -0.016468)
(2.99538 2.85995e-05 -0.0166742)
(2.99211 4.84101e-05 -0.0170478)
(2.98235 8.3033e-05 -0.0177036)
(2.95721 0.000148782 -0.0189092)
(2.89407 0.000283827 -0.021282)
(2.727 0.000586088 -0.026334)
(2.19899 0.00134466 -0.0389291)
(0.284794 0.00505718 -0.074965)
(-0.978717 0.0277453 -0.0766251)
(-0.368868 0.0782804 -0.0767292)
(0.278497 0.138217 -0.0723973)
(2.97874 1.4393e-07 0.000344966)
(2.97498 2.79453e-07 -0.00403596)
(2.97784 2.82191e-07 -0.00715216)
(2.98131 7.2229e-07 -0.0104668)
(2.98547 1.43275e-06 -0.0125834)
(2.98979 1.88671e-06 -0.0140807)
(2.99339 1.53561e-06 -0.0151391)
(2.99543 1.04409e-05 -0.0162236)
(2.99593 2.20986e-05 -0.0164684)
(2.99538 3.93146e-05 -0.0166745)
(2.99212 6.71335e-05 -0.0170481)
(2.98236 0.000116234 -0.0177038)
(2.95724 0.00021041 -0.0189093)
(2.89415 0.000405641 -0.021282)
(2.72719 0.000846591 -0.0263338)
(2.19972 0.00196305 -0.0389294)
(0.2891 0.00732982 -0.0748933)
(-0.974717 0.041032 -0.0763396)
(-0.360258 0.110163 -0.0762616)
(0.290717 0.180783 -0.071191)
(2.97874 2.12602e-07 0.000344949)
(2.97498 2.8148e-07 -0.00403593)
(2.97784 3.28552e-07 -0.00715212)
(2.98131 8.94765e-07 -0.0104668)
(2.98548 1.73434e-06 -0.0125836)
(2.98979 2.17039e-06 -0.0140807)
(2.99339 1.54252e-06 -0.0151392)
(2.99544 1.34533e-05 -0.0162232)
(2.99593 2.90422e-05 -0.0164689)
(2.99539 5.21787e-05 -0.016675)
(2.99213 8.99012e-05 -0.0170484)
(2.98239 0.000157221 -0.0177039)
(2.9573 0.00028776 -0.0189092)
(2.89427 0.000560977 -0.0212817)
(2.72746 0.00118324 -0.0263326)
(2.20078 0.00277018 -0.0389282)
(0.295492 0.0102305 -0.0747857)
(-0.968086 0.0568297 -0.0760059)
(-0.349486 0.145666 -0.0756173)
(0.297753 0.224721 -0.0699241)