/*--------------------------------*- C++ -*----------------------------------*\
  =========                 |
  \\      /  F ield         | OpenFOAM: The Open Source CFD Toolbox
   \\    /   O peration     | Website:  https://openfoam.org
    \\  /    A nd           | Version:  6.0
     \\/     M anipulation  |
\*---------------------------------------------------------------------------*/
FoamFile
{
    version     2.0;
    format      ascii;
    class       volScalarField;
    location    "3.5";
    object      p;
}
// * * * * * * * * * * * * * * * * * * * * * * * * * * * * * * * * * * * * * //

dimensions      [1 -1 -2 0 0 0 0];

internalField   nonuniform List<scalar> 
4800
(
1
1
1
1
1
1
1
1
1
1
1.00001
1.00001
1.00002
1.00005
1.0001
1.00021
1.00043
1.00088
1.0018
1.0037
1.00759
1.0156
1.03209
1.06624
1.13755
1.28936
1.62608
2.44215
4.89122
19.3319
18.517
16.8781
15.5154
14.481
13.7004
13.2206
13.0189
11.8812
11.9568
11.8799
1
1
1
1
1
1
1
1
1
1
1.00001
1.00001
1.00002
1.00005
1.0001
1.00021
1.00043
1.00088
1.0018
1.0037
1.00759
1.0156
1.0321
1.06624
1.13756
1.28938
1.62613
2.44228
4.89199
19.3284
18.5125
16.8741
15.5123
14.4788
13.7011
13.205
12.9744
12.0231
12.0922
11.4951
1
1
1
1
1
1
1
1
1
1
1.00001
1.00001
1.00002
1.00005
1.0001
1.00021
1.00043
1.00088
1.0018
1.0037
1.00759
1.0156
1.0321
1.06625
1.13758
1.28942
1.62621
2.44253
4.89354
19.3202
18.5026
16.8653
15.506
14.473
13.699
13.1673
12.8188
11.9799
12.4178
11.8704
1
1
1
1
1
1
1
1
1
1
1.00001
1.00001
1.00002
1.00005
1.0001
1.00021
1.00043
1.00088
1.0018
1.0037
1.00759
1.0156
1.03211
1.06626
1.1376
1.28947
1.62632
2.44289
4.89583
19.3062
18.4869
16.8533
15.4952
14.4669
13.6944
13.161
12.7513
11.6829
8.90845
2.82644
1
1
1
1
1
1
1
1
1
1
1.00001
1.00001
1.00002
1.00005
1.0001
1.00021
1.00043
1.00088
1.0018
1.0037
1.0076
1.01561
1.03212
1.06628
1.13764
1.28954
1.62648
2.44338
4.89896
19.2871
18.4663
16.837
15.4816
14.4617
13.6944
13.1898
13.1137
13.4487
13.4375
13.1402
1
1
1
1
1
1
1
1
1
1
1.00001
1.00001
1.00002
1.00005
1.0001
1.00021
1.00043
1.00088
1.0018
1.0037
1.0076
1.01561
1.03213
1.0663
1.13768
1.28964
1.6267
2.44402
4.90294
19.2624
18.4412
16.8162
15.4648
14.4541
13.6964
13.2273
13.2327
13.4246
13.9101
14.0608
1
1
1
1
1
1
1
1
1
1
1.00001
1.00001
1.00002
1.00005
1.0001
1.00021
1.00043
1.00088
1.0018
1.0037
1.0076
1.01562
1.03214
1.06633
1.13774
1.28977
1.62697
2.44483
4.90792
19.2331
18.412
16.7901
15.4435
14.4408
13.6947
13.2325
13.2519
13.3623
13.7669
13.9375
1
1
1
1
1
1
1
1
1
1
1.00001
1.00001
1.00002
1.00005
1.0001
1.00021
1.00043
1.00088
1.00181
1.00371
1.00761
1.01563
1.03216
1.06637
1.13782
1.28992
1.62732
2.44583
4.91391
19.1993
18.3788
16.7585
15.4155
14.4186
13.6883
13.2259
13.2492
13.3069
13.5598
13.5642
1
1
1
1
1
1
1
1
1
1
1.00001
1.00001
1.00002
1.00005
1.0001
1.00021
1.00043
1.00088
1.00181
1.00371
1.00761
1.01564
1.03218
1.06642
1.13791
1.29012
1.62773
2.44703
4.92091
19.1603
18.3415
16.7214
15.3811
14.3837
13.6729
13.2102
13.2312
13.2623
13.4274
13.5165
1
1
1
1
1
1
1
1
1
1
1.00001
1.00001
1.00002
1.00005
1.0001
1.00021
1.00043
1.00088
1.00181
1.00371
1.00762
1.01565
1.03221
1.06647
1.13802
1.29034
1.62822
2.44843
4.92891
19.1161
18.3006
16.6783
15.3391
14.3335
13.6516
13.1916
13.2
13.2536
13.3314
13.5412
1
1
1
1
1
1
1
1
1
1
1.00001
1.00001
1.00002
1.00005
1.0001
1.00021
1.00043
1.00088
1.00181
1.00371
1.00763
1.01567
1.03223
1.06652
1.13813
1.29058
1.62876
2.45
4.93786
19.067
18.2549
16.6312
15.2861
14.2702
13.5854
13.1607
13.1779
13.2756
13.237
13.5326
1
1
1
1
1
1
1
1
1
1
1.00001
1.00001
1.00002
1.00005
1.0001
1.00021
1.00043
1.00088
1.00181
1.00372
1.00763
1.01568
1.03226
1.06658
1.13825
1.29084
1.62934
2.45169
4.94761
19.0136
18.2043
16.5793
15.2237
14.1955
13.5152
13.119
13.159
13.2833
13.107
13.5176
1
1
1
1
1
1
1
1
1
1
1.00001
1.00001
1.00002
1.00005
1.0001
1.00021
1.00043
1.00088
1.00181
1.00372
1.00764
1.01569
1.03228
1.06663
1.13836
1.29109
1.62994
2.45348
4.95805
18.9565
18.1494
16.5196
15.1544
14.1115
13.4354
13.0795
13.1445
13.2504
13.0872
13.5023
1
1
1
1
1
1
1
1
1
1
1.00001
1.00001
1.00002
1.00005
1.0001
1.00021
1.00043
1.00088
1.00181
1.00372
1.00764
1.0157
1.03231
1.06668
1.13847
1.29134
1.63052
2.4553
4.96898
18.8965
18.0895
16.45
15.0781
14.0225
13.3439
13.0231
13.0665
13.1386
13.0498
13.422
1
1
1
1
1
1
1
1
1
1
1.00001
1.00001
1.00002
1.00005
1.0001
1.00021
1.00043
1.00088
1.00181
1.00372
1.00765
1.01571
1.03233
1.06672
1.13858
1.29158
1.63109
2.4571
4.98017
18.8326
18.0245
16.3729
14.9935
13.9338
13.2412
12.9525
12.9949
13.1079
13.0474
13.405
1
1
1
1
1
1
1
1
1
1
1.00001
1.00001
1.00002
1.00005
1.0001
1.00021
1.00043
1.00088
1.00181
1.00373
1.00765
1.01572
1.03235
1.06677
1.13868
1.29181
1.63164
2.45887
4.99137
18.7616
17.9537
16.2941
14.9005
13.8459
13.1335
12.8658
12.892
13.1289
13.0364
13.5207
1
1
1
1
1
1
1
1
1
1
1.00001
1.00001
1.00002
1.00005
1.0001
1.00021
1.00043
1.00089
1.00182
1.00373
1.00766
1.01573
1.03237
1.06682
1.13878
1.29204
1.63218
2.4606
5.0024
18.6799
17.8758
16.2167
14.8022
13.755
13.0284
12.7811
12.8004
12.9195
13.0175
13.3264
1
1
1
1
1
1
1
1
1
1
1.00001
1.00001
1.00002
1.00005
1.0001
1.00021
1.00043
1.00089
1.00182
1.00373
1.00766
1.01574
1.0324
1.06687
1.1389
1.29228
1.63273
2.46232
5.01316
18.5851
17.7887
16.14
14.7054
13.6551
12.9327
12.6861
12.7236
12.7355
12.9794
13.0108
1
1
1
1
1
1
1
1
1
1
1.00001
1.00001
1.00002
1.00005
1.0001
1.00021
1.00043
1.00089
1.00182
1.00373
1.00767
1.01576
1.03243
1.06693
1.13901
1.29254
1.6333
2.46405
5.02363
18.4768
17.6911
16.0592
14.6178
13.5421
12.8464
12.5826
12.6307
12.658
12.8974
12.8835
1
1
1
1
1
1
1
1
1
1
1.00001
1.00001
1.00002
1.00005
1.0001
1.00021
1.00043
1.00089
1.00182
1.00374
1.00768
1.01577
1.03245
1.06699
1.13913
1.29279
1.63386
2.46576
5.0337
18.3557
17.5813
15.9677
14.5429
13.4178
12.7653
12.4847
12.5187
12.6494
12.7767
12.7989
1
1
1
1
1
1
1
1
1
1
1.00001
1.00001
1.00002
1.00005
1.0001
1.00021
1.00043
1.00089
1.00182
1.00374
1.00768
1.01578
1.03248
1.06704
1.13925
1.29304
1.63441
2.4674
5.0432
18.2228
17.4584
15.8603
14.4751
13.2906
12.6805
12.3953
12.407
12.6374
12.636
12.768
1
1
1
1
1
1
1
1
1
1
1.00001
1.00001
1.00002
1.00005
1.0001
1.00021
1.00043
1.00089
1.00182
1.00374
1.00769
1.0158
1.03251
1.06709
1.13935
1.29326
1.63491
2.46892
5.0519
18.079
17.3233
15.7365
14.4003
13.1753
12.5867
12.3096
12.3413
12.4882
12.4988
12.8351
1
1
1
1
1
1
1
1
1
1
1.00001
1.00001
1.00002
1.00005
1.0001
1.00021
1.00043
1.00089
1.00182
1.00375
1.00769
1.01581
1.03253
1.06714
1.13945
1.29346
1.63535
2.47027
5.05958
17.9247
17.1774
15.5997
14.3001
13.0873
12.4789
12.2219
12.3122
12.3807
12.4068
12.7738
1
1
1
1
1
1
1
1
1
1
1.00001
1.00001
1.00002
1.00005
1.0001
1.00021
1.00043
1.00089
1.00183
1.00375
1.0077
1.01581
1.03254
1.06718
1.13953
1.29363
1.63573
2.47144
5.06606
17.7596
17.0223
15.4558
14.1598
13.0363
12.3525
12.1358
12.2756
12.3105
12.3747
12.3481
1
1
1
1
1
1
1
1
1
1
1.00001
1.00001
1.00002
1.00005
1.0001
1.00021
1.00043
1.00089
1.00183
1.00375
1.0077
1.01582
1.03256
1.0672
1.13959
1.29377
1.63605
2.47242
5.07121
17.5837
16.8592
15.3074
13.9807
13.0761
12.2185
12.0815
12.218
12.279
12.4802
12.1623
1
1
1
1
1
1
1
1
1
1
1.00001
1.00001
1.00002
1.00005
1.0001
1.00021
1.00043
1.00089
1.00183
1.00375
1.0077
1.01582
1.03256
1.06721
1.13962
1.29385
1.63624
2.47309
5.07466
17.3971
16.6864
15.1504
13.7921
13.1474
12.0946
12.0721
12.1099
12.301
12.5649
12.0082
1
1
1
1
1
1
1
1
1
1
1.00001
1.00001
1.00002
1.00005
1.0001
1.00021
1.00043
1.00089
1.00183
1.00375
1.00769
1.01581
1.03255
1.0672
1.1396
1.29382
1.6362
2.47318
5.07565
17.2012
16.5015
14.9789
13.6166
12.8403
11.985
12.1049
11.9835
12.282
12.1345
11.8838
1
1
1
1
1
1
1
1
1
1
1.00001
1.00001
1.00002
1.00005
1.0001
1.00021
1.00043
1.00089
1.00182
1.00374
1.00769
1.0158
1.03253
1.06715
1.13951
1.29365
1.63586
2.47255
5.0736
16.9952
16.3052
14.7908
13.4475
12.5924
11.9289
11.9136
11.9009
11.9815
11.8363
11.9265
1
1
1
1
1
1
1
1
1
1
1.00001
1.00001
1.00002
1.00005
1.0001
1.00021
1.00043
1.00089
1.00182
1.00374
1.00768
1.01579
1.03249
1.06707
1.13934
1.2933
1.6351
2.47082
5.06701
16.7748
16.0945
14.5889
13.276
12.4208
12.0411
11.6943
11.7245
11.7847
11.7132
12.3352
1
1
1
1
1
1
1
1
1
1
1.00001
1.00001
1.00002
1.00005
1.0001
1.00021
1.00043
1.00089
1.00182
1.00374
1.00767
1.01576
1.03244
1.06696
1.13909
1.29277
1.63392
2.46789
5.05497
16.5411
15.867
14.3761
13.1009
12.2525
12.1743
11.5375
11.5456
11.604
11.711
12.6253
1
1
1
1
1
1
1
1
1
1
1.00001
1.00001
1.00002
1.00005
1.0001
1.00021
1.00043
1.00089
1.00182
1.00373
1.00766
1.01573
1.03237
1.06681
1.13877
1.29207
1.63234
2.46385
5.03717
16.2877
15.6258
14.1637
12.9212
12.0897
11.8244
11.4634
11.3953
11.4013
11.6627
12.3744
1
1
1
1
1
1
1
1
1
1
1.00001
1.00001
1.00002
1.00005
1.0001
1.00021
1.00043
1.00088
1.00181
1.00372
1.00764
1.01569
1.03227
1.0666
1.13833
1.29108
1.63006
2.45787
5.01148
16.0071
15.373
13.9613
12.7364
11.9182
11.5224
11.5368
11.2614
11.2017
10.9262
11.0921
1
1
1
1
1
1
1
1
1
1
1.00001
1.00001
1.00002
1.00005
1.0001
1.00021
1.00043
1.00088
1.0018
1.0037
1.0076
1.01562
1.03214
1.06632
1.13771
1.28972
1.62691
2.44952
4.97731
15.7049
15.109
13.768
12.5435
11.7361
11.3713
11.5446
11.1847
10.9571
10.6336
10.646
1
1
1
1
1
1
1
1
1
1
1.00001
1.00001
1.00002
1.00005
1.0001
1.00021
1.00042
1.00087
1.00179
1.00368
1.00755
1.01552
1.03194
1.06591
1.13685
1.28785
1.62264
2.43833
4.93395
15.3912
14.8371
13.5745
12.351
11.5515
11.2425
11.0681
11.192
10.6397
10.4189
10.2798
1
1
1
1
1
1
1
1
1
1
1.00001
1.00001
1.00002
1.00005
1.0001
1.0002
1.00042
1.00086
1.00177
1.00364
1.00748
1.01538
1.03165
1.06533
1.13566
1.28532
1.61693
2.42358
4.8798
15.0751
14.5614
13.3728
12.1619
11.3671
11.0949
10.8044
10.8053
10.4425
10.3291
10.0396
1
1
1
1
1
1
1
1
1
1
1.00001
1.00001
1.00002
1.00005
1.0001
1.0002
1.00041
1.00085
1.00175
1.00359
1.00738
1.01518
1.03126
1.06453
1.13402
1.28186
1.60922
2.404
4.81152
14.7649
14.285
13.1618
11.9775
11.1783
10.9484
10.5852
10.4408
10.3322
10.2423
9.91179
1
1
1
1
1
1
1
1
1
1
1.00001
1.00001
1.00002
1.00005
1.0001
1.0002
1.00041
1.00083
1.00172
1.00353
1.00725
1.01491
1.03071
1.06343
1.13176
1.27711
1.59873
2.37772
4.72363
14.4679
14.0115
12.9327
11.7972
11.0015
10.7832
10.3666
10.2391
10.1546
10.1526
9.75353
1
1
1
1
1
1
1
1
1
1
1.00001
1.00001
1.00002
1.00005
1.00009
1.00019
1.0004
1.00081
1.00167
1.00344
1.00707
1.01455
1.02998
1.06193
1.12868
1.27062
1.58443
2.34227
4.60888
14.1866
13.7414
12.6838
11.6412
10.814
10.639
10.2467
10.0592
10.0699
10.0735
9.46083
1
1
1
1
1
1
1
1
1
1
1.00001
1.00001
1.00002
1.00004
1.00009
1.00019
1.00038
1.00079
1.00161
1.00332
1.00683
1.01406
1.02897
1.05987
1.12442
1.26162
1.56451
2.29283
4.44866
13.9215
13.485
12.4552
11.5047
10.7422
10.4813
10.0514
9.92598
10.0569
9.91838
8.92775
1
1
1
1
1
1
1
1
1
1
1
1.00001
1.00002
1.00004
1.00009
1.00018
1.00036
1.00075
1.00154
1.00317
1.00652
1.01343
1.02768
1.05722
1.11891
1.24997
1.5389
2.23058
4.25877
13.7577
13.2939
12.2459
11.4114
10.6324
10.3916
9.73957
9.89096
10.1649
8.78362
8.17593
1
1
1
1
1
1
1
1
1
1
1
1.00001
1.00002
1.00004
1.00007
1.00015
1.00031
1.00063
1.00129
1.00265
1.00543
1.01117
1.02297
1.04735
1.09805
1.20487
1.43659
1.96759
3.41214
12.9509
12.6565
11.9766
11.3832
10.635
10.2392
9.88935
9.53267
8.46106
7.69801
6.87969
1
1
1
1
1
1
1
1
1
1
1
1.00001
1.00001
1.00003
1.00005
1.00011
1.00023
1.00047
1.00097
1.00199
1.00409
1.00841
1.01728
1.0356
1.07358
1.15308
1.32309
1.70311
2.67508
5.21899
12.3393
12.0734
11.4385
10.6463
10.091
9.73664
9.11638
8.41408
7.69642
5.66846
1
1
1
1
1
1
1
1
1
1
1
1
1.00001
1.00002
1.00003
1.00007
1.00014
1.0003
1.00061
1.00124
1.00255
1.00523
1.01073
1.02202
1.0453
1.09358
1.19501
1.41358
1.92785
3.27169
12.2136
12.0041
11.3977
10.7649
9.90457
9.38497
8.73855
7.93767
6.97863
5.57966
1
1
1
1
1
1
1
1
1
1
1
1
1.00001
1.00001
1.00003
1.00005
1.00011
1.00023
1.00046
1.00095
1.00196
1.00402
1.00825
1.01696
1.0349
1.0721
1.14995
1.31636
1.69007
2.62741
5.06193
11.7958
11.5244
10.8949
9.91957
9.22163
8.58105
7.66614
6.86195
5.64943
1
1
1
1
1
1
1
1
1
1
1
1
1
1.00001
1.00002
1.00003
1.00007
1.00014
1.00029
1.00059
1.00121
1.00249
1.00509
1.01045
1.02145
1.04411
1.0911
1.18975
1.40227
1.89553
3.20037
11.6182
11.4317
10.8766
9.97486
9.21499
8.5201
7.61003
6.72774
5.99005
1
1
1
1
1
1
1
1
1
1
1
1
1
1.00001
1.00001
1.00003
1.00005
1.00011
1.00022
1.00045
1.00092
1.00189
1.00389
1.00799
1.01643
1.03383
1.06985
1.1452
1.30608
1.66575
2.56609
4.88521
11.0905
10.8402
10.1974
9.2605
8.44934
7.54185
6.74392
6.06113
1
1
1
1
1
1
1
1
1
1
1
1
1
1
1.00001
1.00002
1.00003
1.00007
1.00014
1.00028
1.00058
1.00118
1.00241
1.00495
1.01015
1.02083
1.04283
1.08843
1.18409
1.38982
1.86523
3.11709
10.7937
10.6527
10.1767
9.24203
8.40195
7.78223
7.04752
5.93813
1
1
1
1
1
1
1
1
1
1
1
1
1
1
1.00001
1.00001
1.00002
1.00005
1.0001
1.00021
1.00043
1.00087
1.00179
1.00367
1.00753
1.01548
1.03186
1.06576
1.1366
1.28745
1.62293
2.45619
4.5716
10.1226
9.97441
9.4465
8.7418
7.9182
7.0137
5.84312
1
1
1
1
1
1
1
1
1
1
1
1
1
1
1
1.00001
1.00001
1.00003
1.00006
1.00012
1.00025
1.00052
1.00106
1.00217
1.00445
1.00912
1.01869
1.03839
1.07915
1.16438
1.34653
1.76313
2.83077
9.5145
9.48411
9.31023
8.79312
7.8034
6.85044
5.95172
1
1
1
1
1
1
1
1
1
1
1
1
1
1
1
1
1.00001
1.00002
1.00004
1.00008
1.00017
1.00035
1.00071
1.00145
1.00298
1.00611
1.01252
1.02571
1.05291
1.10943
1.22863
1.48854
2.11434
3.61455
9.1035
8.99139
8.64976
7.89514
6.70182
6.14995
1
1
1
1
1
1
1
1
1
1
1
1
1
1
1
1
1.00001
1.00001
1.00002
1.00005
1.0001
1.0002
1.00042
1.00086
1.00175
1.00358
1.00734
1.01506
1.03096
1.06387
1.13248
1.27777
1.60264
2.37647
4.17915
8.57416
8.39819
7.88321
6.76807
6.1212
1
1
1
1
1
1
1
1
1
1
1
1
1
1
1
1
1
1.00001
1.00001
1.00002
1.00005
1.00009
1.0002
1.0004
1.00082
1.00166
1.00338
1.00688
1.01407
1.02888
1.05959
1.12373
1.25957
1.56334
2.2037
3.76023
7.88045
7.71006
7.19262
6.09706
1
1
1
1
1
1
1
1
1
1
1
1
1
1
1
1
1
1
1
1.00001
1.00002
1.00004
1.00008
1.00016
1.00033
1.00068
1.0014
1.00284
1.00577
1.01171
1.02385
1.04886
1.10101
1.21247
1.44933
1.98558
3.3817
7.19656
6.99144
6.26124
1
1
1
1
1
1
1
1
1
1
1
1
1
1
1
1
1
1
1
1
1.00001
1.00002
1.00003
1.00007
1.00014
1.00028
1.00057
1.00117
1.00239
1.00488
1.00993
1.02024
1.04132
1.08469
1.17515
1.37102
1.82584
3.03605
6.47639
6.18325
1
1
1
1
1
1
1
1
1
1
1
1
1
1
1
1
1
1
1
1
1
1.00001
1.00001
1.00003
1.00005
1.00011
1.00023
1.00046
1.00095
1.00194
1.00396
1.00803
1.01625
1.03299
1.06758
1.14013
1.29593
1.65062
2.60735
5.74189
1
1
1
1
1
1
1
1
1
1
1
1
1
1
1
1
1
1
1
1
1
1
1
1.00001
1.00001
1.00003
1.00006
1.00011
1.00023
1.00046
1.00093
1.00188
1.00378
1.00762
1.01534
1.03095
1.06292
1.12967
1.27164
1.59586
1
1
1
1
1
1
1
1
1
1
1
1
1
1
1
1
1
1
1
1
1
1
1
1
1.00001
1.00002
1.00004
1.00008
1.00016
1.00034
1.00069
1.00143
1.00292
1.00597
1.0122
1.02493
1.05104
1.10515
1.21879
1.47682
1
1
1
1
1
1
1
1
1
1
1
1
1
1
1
1
1
1
1
1
1
1
1
1
1
1.00001
1.00002
1.00004
1.00007
1.00015
1.00031
1.00064
1.00132
1.00273
1.00563
1.01159
1.02375
1.04844
1.09859
1.20253
1
1
1
1
1
1
1
1
1
1
1
1
1
1
1
1
1
1
1
1
1
1
1
1
1
1.00001
1.00001
1.00002
1.00005
1.0001
1.00021
1.00042
1.00085
1.00174
1.00355
1.00726
1.0149
1.03064
1.06322
1.13113
1
1
1
1
1
1
1
1
1
1
1
1
1
1
1
1
1
1
1
1
1
1
1
1
1
1
1.00001
1.00002
1.00004
1.00009
1.00017
1.00035
1.00072
1.00147
1.00301
1.00616
1.01263
1.02596
1.05354
1.11104
1
1
1
1
1
1
1
1
1
1
1
1
1
1
1
1
1
1
1
1
1
1
1
1
1
1
1.00001
1.00001
1.00003
1.00006
1.00012
1.00025
1.0005
1.00102
1.00207
1.0042
1.0085
1.01726
1.03516
1.07213
1
1
1
1
1
1
1
1
1
1
1
1
1
1
1
1
1
1
1
1
1
1
1
1
1
1
1.00001
1.00001
1.00002
1.00004
1.00009
1.00019
1.00038
1.00078
1.0016
1.00327
1.00671
1.01375
1.02819
1.05789
1
1
1
1
1
1
1
1
1
1
1
1
1
1
1
1
1
1
1
1
1
1
1
1
1
1
1
1.00001
1.00002
1.00004
1.00008
1.00015
1.00032
1.00066
1.00136
1.00279
1.00574
1.01182
1.02428
1.04984
1
1
1
1
1
1
1
1
1
1
1
1
1
1
1
1
1
1
1
1
1
1
1
1
1
1
1
1.00001
1.00001
1.00002
1.00005
1.0001
1.00021
1.00044
1.00092
1.00191
1.00394
1.00808
1.01639
1.03308
1
1
1
1
1
1
1
1
1
1
1
1
1
1
1
1
1
1
1
1
1
1
1
1
1
1
1
1
1.00001
1.00002
1.00004
1.00008
1.00017
1.00035
1.00071
1.00146
1.003
1.00621
1.01286
1.02667
1
1
1
1
1
1
1
1
1
1
1
1
1
1
1
1
1
1
1
1
1
1
1
1
1
1
1
1
1.00001
1.00002
1.00003
1.00007
1.00014
1.0003
1.00061
1.00124
1.00254
1.00524
1.01081
1.02242
1
1
1
1
1
1
1
1
1
1
1
1
1
1
1
1
1
1
1
1
1
1
1
1
1
1
1
1
1.00001
1.00001
1.00002
1.00005
1.0001
1.0002
1.00042
1.00085
1.00175
1.00358
1.00731
1.01495
1
1
1
1
1
1
1
1
1
1
1
1
1
1
1
1
1
1
1
1
1
1
1
1
1
1
1
1
1
1.00001
1.00002
1.00004
1.00009
1.00018
1.00037
1.00077
1.00158
1.00323
1.00663
1.01359
1
1
1
1
1
1
1
1
1
1
1
1
1
1
1
1
1
1
1
1
1
1
1
1
1
1
1
1
1
1.00001
1.00002
1.00004
1.00007
1.00015
1.00029
1.0006
1.00124
1.00258
1.00539
1.01126
1
1
1
1
1
1
1
1
1
1
1
1
1
1
1
1
1
1
1
1
1
1
1
1
1
1
1
1
1
1.00001
1.00002
1.00003
1.00006
1.00013
1.00027
1.00055
1.00112
1.00228
1.00459
1.0092
1
1
1
1
1
1
1
1
1
1
1
1
1
1
1
1
1
1
1
1
1
1
1
1
1
1
1
1
1
1.00001
1.00001
1.00003
1.00005
1.00011
1.00022
1.00045
1.00093
1.00192
1.00394
1.00807
1
1
1
1
1
1
1
1
1
1
1
1
1
1
1
1
1
1
1
1
1
1
1
1
1
1
1
1
1
1
1.00001
1.00001
1.00003
1.00005
1.0001
1.00021
1.00042
1.00086
1.00175
1.00356
1
1
1
1
1
1
1
1
1
1
1
1
1
1
1
1
1
1
1
1
1
1
1
1
1
1
1
1
1
1
1.00001
1.00001
1.00002
1.00004
1.00009
1.00018
1.00038
1.00078
1.00161
1.00331
1
1
1
1
1
1
1
1
1
1
1
1
1
1
1
1
1
1
1
1
1
1
1
1
1
1
1
1
1
1
1
1.00001
1.00002
1.00004
1.00008
1.00016
1.00032
1.00066
1.00135
1.00276
1
1
1
1
1
1
1
1
1
1
1
1
1
1
1
1
1
1
1
1
1
1
1
1
1
1
1
1
1
1
1
1.00001
1.00001
1.00003
1.00006
1.00011
1.00023
1.00048
1.00098
1.002
1
1
1
1
1
1
1
1
1
1
1
1
1
1
1
1
1
1
1
1
1
1
1
1
1
1
1
1
1
1
1
1.00001
1.00001
1.00002
1.00005
1.0001
1.00021
1.00043
1.00089
1.00183
1
1
1
1
1
1
1
1
1
1
1
1
1
1
1
1
1
1
1
1
1
1
1
1
1
1
1
1
1
1
1
1.00001
1.00001
1.00003
1.00005
1.00011
1.00023
1.00048
1.00099
1.00202
1
1
1
1
1
1
1
1
1
1
1
1
1
1
1
1
1
1
1
1
1
1
1
1
1
1
1
1
1
1
1
1
1
1.00001
1.00002
1.00004
1.00008
1.00019
1.00042
1.00095
1
1
1
1
1
1
1
1
1
1
1
1
1
1
1
1
1
1
1
1
1
1
1
1
1
1
1
1
1
1
1
1
1
1.00001
1.00001
1.00002
1.00005
1.0001
1.00021
1.00043
1
1
1
1
1
1
1
1
1
1
1
1
1
1
1
1
1
1
1
1
1
1
1
1
1
1
1
1
1
1
1
1
1
1.00001
1.00001
1.00002
1.00005
1.0001
1.0002
1.00041
3.45746
2.465
2.00711
1.79909
1.78784
1.97433
1.88782
1.52108
1.33058
1.51713
1.66993
1.84404
1.77723
2.0483
2.20487
2.22331
2.2154
2.23954
2.14465
2.18249
2.22197
2.22919
2.23049
2.24644
2.22291
2.19552
2.19311
2.33208
2.17951
2.16449
2.22287
2.21998
2.24703
2.23667
2.20585
2.2292
2.21923
2.27273
2.39955
2.17789
3.63678
2.59953
2.08775
1.1938
0.541393
1.57552
1.39912
1.20711
1.32505
1.31379
1.28648
1.28974
1.79847
2.07745
2.2005
2.21299
2.21325
2.18389
2.18655
2.17229
2.16537
2.21263
2.27025
2.18215
2.22628
2.22885
2.1599
2.27691
2.29006
2.21414
2.21957
2.1873
2.19955
2.17265
2.21316
2.1731
2.2545
2.28176
2.31119
2.33307
4.21557
3.00134
2.46266
2.30894
2.05822
1.79448
1.69188
1.86964
2.01882
2.29594
2.28958
2.30621
2.26618
2.16414
2.21712
2.26433
2.22697
2.2287
2.20606
2.22309
2.22512
2.21681
2.21935
2.23812
2.20975
2.25273
2.26906
2.25881
2.11129
2.10803
2.40934
2.20541
2.16242
2.16767
2.1502
2.06803
1.77597
1.21208
0.770425
0.120667
4.51324
3.89436
3.27674
2.43837
2.28399
1.97852
1.87498
1.89582
2.07024
2.27689
2.29002
2.29708
2.26181
2.20993
2.27474
2.21328
2.23991
2.25265
2.23753
2.25432
2.1974
2.19534
2.28645
2.29561
2.26111
2.22044
2.19936
2.30208
2.17205
2.25491
2.2512
2.10782
2.11044
2.18743
2.24888
2.13026
2.14328
2.12883
2.07257
2.07623
4.59911
3.91419
3.28013
2.64343
2.41248
2.05135
2.01146
2.02065
2.11722
2.17572
2.28604
2.27959
2.29924
2.22865
2.27267
2.22481
2.28809
2.26902
2.24821
2.28885
2.23594
2.27682
2.34246
2.34005
2.31502
2.2515
2.1709
2.21956
2.20444
2.24885
2.25843
2.08472
2.12155
2.26661
2.45874
2.13182
2.31315
2.23819
2.39375
2.23139
4.83861
3.95811
3.3263
2.78295
2.46796
2.17497
2.09165
2.10413
2.14706
2.21063
2.2827
2.30995
2.25114
2.29174
2.31471
2.21134
2.35562
2.24237
2.26221
2.29405
2.23224
2.30389
2.38559
2.42782
2.40462
2.4874
2.54983
2.64349
2.66263
2.6235
2.51144
2.41387
2.36426
2.24617
2.39085
2.18831
2.2031
2.18033
2.60344
2.41228
4.88765
4.0006
3.38503
2.95119
2.58406
2.33339
2.27934
2.23972
2.25268
2.29451
2.31006
2.28769
2.30319
2.31198
2.19689
2.31051
2.34661
2.2196
2.27807
2.28708
2.28103
2.3327
2.384
2.43631
2.43554
2.3676
2.38074
2.57465
2.62429
2.61167
2.70392
2.88606
2.96728
3.01121
2.9815
2.76829
2.48373
2.39426
2.45683
2.04337
4.82702
4.10589
3.6258
3.07314
2.67731
2.39217
2.37289
2.33433
2.32078
2.30532
2.29298
2.27593
2.28109
2.26152
2.36713
2.35905
2.24179
2.27833
2.29587
2.27175
2.36841
2.41047
2.35054
2.36538
2.43024
2.32221
2.36768
2.63096
2.63994
2.51409
2.70166
2.86384
2.75179
2.98689
3.09291
3.32458
3.28518
3.8026
3.81165
3.10725
4.74776
4.24198
3.7835
3.21253
2.77622
2.58866
2.42594
2.35932
2.33927
2.32847
2.32782
2.35257
2.36065
2.42221
2.3684
2.2692
2.31405
2.32312
2.25679
2.32208
2.37828
2.39553
2.36992
2.3584
2.44226
2.55749
2.52547
2.50057
2.58367
2.49801
2.54842
2.95646
2.77664
2.73894
3.19896
3.79478
3.41665
3.40273
3.24526
3.51677
4.96602
4.37133
3.84924
3.29694
2.99042
2.77599
2.64469
2.50122
2.47133
2.4599
2.43689
2.41833
2.39521
2.3738
2.33448
2.32799
2.38717
2.27965
2.2996
2.39871
2.37718
2.38476
2.38071
2.36805
2.48537
2.52438
2.51065
2.43854
2.4621
2.61409
2.72887
2.93669
2.92165
2.89376
2.88401
3.28279
3.72884
3.50821
3.61218
3.75028
5.06416
4.45906
3.83437
3.45205
3.23884
2.95967
2.75874
2.56577
2.5006
2.46196
2.42342
2.35336
2.35244
2.34746
2.41309
2.43993
2.3381
2.35519
2.41745
2.41482
2.39623
2.41061
2.44311
2.40225
2.48755
2.49647
2.49534
2.50785
2.52822
2.52828
2.64103
2.64547
2.57977
2.80398
3.19057
2.88904
3.0967
3.96375
3.47645
3.08134
5.05769
4.49892
3.75072
3.6334
3.38695
3.01862
2.76602
2.51263
2.43305
2.41838
2.42836
2.40513
2.40161
2.42305
2.40342
2.4406
2.44658
2.3697
2.47795
2.4939
2.44228
2.39761
2.41414
2.48474
2.54341
2.51038
2.50721
2.54344
2.47567
2.52821
2.62457
2.64488
2.66501
2.86238
2.78933
3.2668
2.90689
3.13322
3.31474
3.85821
5.01994
4.55094
4.01828
3.80655
3.48868
3.11357
2.73993
2.55914
2.48595
2.44609
2.45561
2.47485
2.5072
2.44228
2.43012
2.45578
2.36561
2.44227
2.51157
2.44705
2.46285
2.4518
2.46715
2.39897
2.37962
2.42921
2.64738
2.59491
2.48592
2.69807
2.74718
2.70478
2.82738
2.72403
2.82138
3.34132
3.47221
3.08973
3.71085
2.8233
4.99526
4.63327
4.22512
3.8907
3.66577
3.35248
2.91141
2.65949
2.52707
2.49063
2.47956
2.4725
2.47226
2.48235
2.4307
2.40392
2.44501
2.5011
2.47481
2.43354
2.42205
2.50516
2.60046
2.45801
2.40229
2.40318
2.63921
2.62044
2.62437
2.59057
2.52183
2.54762
3.01138
3.12165
2.86073
2.85461
3.06902
3.31413
3.40251
2.95237
4.98084
4.61187
4.34799
3.96983
3.57904
3.2732
3.19168
2.98576
2.54461
2.48245
2.47317
2.45054
2.43779
2.54451
2.4953
2.46547
2.4675
2.45885
2.45412
2.3987
2.39382
2.61935
2.55722
2.52977
2.55538
2.63517
2.37989
2.37656
2.56112
2.98676
2.5585
2.54532
2.84705
2.73269
2.69503
2.97147
3.00849
2.9388
3.23777
4.2582
4.73159
4.6043
4.40972
3.9777
3.52004
3.32296
3.07229
3.05829
2.76523
2.50056
2.47304
2.48498
2.49728
2.66869
2.54471
2.47042
2.42857
2.43081
2.503
2.55877
2.55357
2.45896
2.6388
2.38786
2.29326
2.68791
2.53934
2.38148
2.8
2.89911
2.67597
2.76774
3.02902
2.84693
2.79085
3.37868
3.94262
3.01735
2.8892
3.39579
4.56808
4.53179
4.38067
4.00919
3.58966
3.28433
3.10768
2.93811
3.09591
2.83878
2.65239
2.58239
2.65387
2.70098
2.49914
2.48615
2.45756
2.54084
2.60932
2.59203
2.54329
2.63606
2.2922
2.31265
2.84869
2.83951
2.48131
2.58436
3.02779
2.87127
2.79039
3.13398
2.96863
2.69827
2.94307
3.06122
3.03432
3.6881
3.10222
3.28785
1.83802
4.30607
4.24606
4.06218
3.63818
3.28848
3.10166
3.01805
3.26666
2.93831
2.77352
2.85088
2.84535
2.59025
2.52526
2.51621
2.66353
2.69787
2.62248
2.52637
2.65794
2.65409
2.3034
2.47786
3.02165
2.80291
2.52447
2.54884
3.13421
2.91194
2.55146
2.634
2.89625
2.80096
2.80237
2.75542
3.05655
3.37005
3.21606
3.42043
1.58901
4.16834
4.12031
3.96774
3.6194
3.32089
3.16939
3.14481
3.27921
2.98543
2.89265
3.12213
2.68623
2.57241
2.60514
2.67065
2.63835
2.69448
2.53571
2.40855
2.71317
2.78427
2.58398
2.57773
2.4966
2.52257
3.16164
2.86143
2.73074
2.90703
2.64741
2.69544
2.80706
2.76189
2.62518
2.92279
3.12021
3.03609
3.15677
3.89297
1.4931
3.96799
3.91804
3.86157
3.72888
3.40003
3.31412
3.46635
3.24405
2.91767
3.01566
3.01539
2.64344
2.66877
2.69072
2.61331
2.58173
2.66487
2.55743
2.53617
2.58238
3.0618
2.94826
2.50838
2.51075
3.00224
3.031
2.67172
3.03757
2.81349
2.87525
3.12496
3.18132
3.33191
3.00521
2.89757
3.00319
3.17733
3.67821
4.15572
1.29273
2.06427
3.7991
3.76994
3.709
3.46889
3.43967
3.47179
2.98925
2.95464
3.12788
2.78892
2.70862
2.69745
2.67972
2.62197
2.57862
2.67466
2.67647
2.63521
2.84765
3.0951
2.66129
2.55887
2.75126
3.10436
2.69635
2.91557
2.82501
2.62805
2.93642
3.06297
2.67324
2.73465
3.62545
3.57739
3.40978
3.69467
3.58511
3.35424
1.22552
1.84147
3.65948
3.66067
3.65303
3.50619
3.48254
3.13741
3.08316
3.13173
2.83417
2.78556
2.88252
2.69919
2.65574
2.69641
2.63613
2.81846
2.78501
2.76018
2.8971
2.8348
2.77268
2.79215
2.89681
2.88574
2.7711
2.98635
2.75474
2.74786
3.1468
2.99163
2.55332
2.63003
2.78379
3.37013
3.53082
3.40928
3.16042
3.24726
1.18945
1.71013
3.69732
3.66968
3.65889
3.56639
3.28332
3.17337
3.31367
3.05009
2.86078
2.84872
2.92344
2.74177
2.72618
2.64544
2.79248
2.97888
2.76485
2.8311
2.88122
2.91802
2.85405
2.90629
2.99563
2.9349
2.98701
2.92058
2.95111
2.846
2.94949
3.08749
2.74237
2.58284
2.69979
3.01042
3.33315
3.95169
3.53025
2.88479
1.12116
1.44138
2.13461
3.65516
3.60894
3.47541
3.31777
3.37642
3.30283
3.05093
3.04636
3.02728
2.93955
2.90635
2.84862
2.74424
2.90669
2.98705
2.71016
2.74936
3.26439
2.95553
2.70979
3.04048
3.20957
3.02156
3.01807
3.01362
3.00089
2.94877
2.78724
2.88824
3.24604
3.22282
3.10672
3.19326
3.14195
2.96154
3.31205
3.7777
1.1002
1.34838
1.8977
3.50036
3.58355
3.55307
3.5238
3.49076
3.3503
3.22665
3.09595
2.9458
2.99864
3.09028
3.14799
3.19879
2.99014
2.76898
2.68503
3.15864
3.2294
2.67899
2.88616
3.58283
3.25861
2.94242
3.27872
3.05639
2.89401
3.26344
3.13985
2.80749
3.03511
3.39142
3.06196
2.91181
3.13596
3.27795
3.2434
3.89156
1.08458
1.29522
1.77268
3.56795
3.5475
3.56026
3.54352
3.53526
3.40782
3.23476
3.08797
3.04679
3.19416
3.31224
3.22557
3.28678
3.07878
2.78328
2.87014
3.52093
2.94229
2.79706
3.21245
3.49416
2.97764
2.91511
3.33176
3.01589
3.19898
2.9258
3.06903
3.44055
3.20984
3.46685
3.21983
2.86446
3.07848
3.89519
3.46339
3.39661
1.05493
1.19085
1.50853
2.17092
3.50092
3.64873
3.65235
3.5571
3.40142
3.22414
3.18298
3.21527
3.27921
3.3176
3.25693
3.36412
2.92397
3.02948
3.44938
2.96593
2.86458
3.4914
3.85933
3.17133
2.92753
2.95081
2.89959
3.28281
2.91608
2.79976
2.86143
3.34164
3.66499
3.815
3.67294
3.32709
3.16069
3.61246
3.85138
2.99927
1.04953
1.16747
1.41861
1.98063
3.4829
3.6531
3.62792
3.53034
3.36993
3.33729
3.39086
3.39069
3.42118
3.27541
3.31433
3.20023
3.21276
3.28835
2.91899
2.96028
3.24511
3.8178
3.78791
2.97205
2.90298
3.19173
3.89656
3.58846
3.16051
3.2363
3.65132
3.55443
3.21906
3.09948
3.06413
3.23526
3.35065
3.20687
3.37029
3.70847
1.04191
1.14233
1.35399
1.83355
3.35114
3.54242
3.53643
3.51517
3.49157
3.46028
3.44072
3.48788
3.46626
3.28605
3.22865
3.43765
3.51574
3.10578
3.04613
3.57884
3.56515
3.74121
3.21794
2.92172
3.32849
4.01857
4.07184
3.32914
3.4316
3.64731
3.82142
3.68266
3.08505
3.06865
3.11985
3.12186
3.36104
3.78113
3.67818
3.67283
1.03229
1.09766
1.23757
1.5377
2.12621
3.44333
3.51847
3.56745
3.56322
3.46666
3.44231
3.45998
3.38801
3.33722
3.37539
3.76766
3.3508
3.13816
3.533
3.79259
3.52994
3.65949
3.10067
3.19683
3.73245
3.63577
3.86928
3.52969
3.40081
3.46858
3.32366
3.14966
3.47162
3.87931
3.3795
3.10867
3.05546
3.46347
3.97203
3.22205
1.02918
1.09761
1.1545
1.26774
1.51143
3.50566
3.52375
3.5318
3.47897
3.43976
3.43942
3.48735
3.53904
3.67984
3.9939
3.48627
3.25532
3.62227
3.8462
3.55677
3.75776
3.23278
2.99565
3.17787
3.94527
4.75234
3.47314
3.17342
3.50841
3.9273
3.47061
3.17547
3.15277
3.74734
3.37606
3.15853
3.14679
3.54312
3.95895
3.28846
1.01277
1.04257
1.10291
1.22972
1.51249
2.13409
3.5235
3.5439
3.56105
3.66416
3.78925
3.8551
3.92933
3.98164
3.60367
3.4753
3.74273
3.84401
3.64972
3.85283
3.3071
3.17805
3.43035
4.08639
4.72176
3.56132
3.16115
3.15125
3.28721
3.90041
3.79256
3.66688
3.62984
3.34421
3.57636
3.1575
3.36553
3.46768
3.24591
3.75048
1.01204
1.04043
1.09872
1.22043
1.48679
2.06372
3.4771
3.55209
3.60163
3.71967
3.81723
3.9414
3.95439
3.638
3.70779
3.85081
3.74893
3.73954
3.89073
3.70706
3.48114
4.01893
4.24857
3.86905
3.44382
3.45848
3.7272
4.01918
4.16038
3.89821
3.61819
3.42613
3.83642
3.46994
3.29861
3.56593
3.65105
3.15431
3.13807
4.13093
1.01002
1.03367
1.08259
1.18502
1.40324
1.89035
3.31945
3.45309
3.68962
3.7253
3.82019
3.83749
3.74236
3.7962
4.02416
3.80541
3.66567
3.7916
3.85902
3.84449
4.15928
4.25175
3.86066
3.88725
3.68705
3.48226
3.37115
3.31012
3.88772
3.99107
3.5402
3.31756
3.37047
3.81766
3.33275
3.37075
3.79164
3.3833
3.32745
3.77294
1.00723
1.02394
1.05707
1.12124
1.25162
1.53522
2.13159
3.44527
3.6865
3.69434
3.68039
3.81796
3.99077
4.1296
3.99727
3.72912
3.88084
4.00563
4.03195
3.93012
3.94646
4.09994
3.76269
3.74089
3.78093
4.00843
3.76334
3.66508
4.02604
3.42767
3.28796
3.70025
3.70269
3.86371
3.80992
3.26339
3.39015
3.41802
3.58505
3.62358
1.00663
1.02214
1.05335
1.11574
1.23497
1.4789
2.02514
3.24459
3.62269
3.74835
3.78047
4.01454
4.14521
4.10129
3.85598
3.97919
4.19647
4.25494
4.48059
4.35401
4.00391
4.01628
3.92708
4.07279
4.25456
4.10637
3.84911
4.08811
3.64221
3.30245
3.27796
3.70143
4.06643
3.96302
3.88701
3.25789
3.36505
3.25788
3.50027
3.962
1.00728
1.02383
1.05202
1.10404
1.21515
1.4668
2.04284
2.71297
3.68847
4.03358
4.13547
3.98931
4.01273
4.35721
4.52557
4.62338
4.69977
4.77712
4.27013
4.04603
4.05293
4.46972
4.71016
4.11958
3.86478
3.84529
3.87697
3.78146
4.06449
3.72456
3.49632
3.87702
3.92
3.54581
3.61681
3.50397
3.31497
3.70927
4.0446
3.44107
1.004
1.01465
1.03814
1.08758
1.12945
1.21371
1.41116
2.48826
4.00591
4.08859
4.20812
4.10154
4.72972
5.0296
4.98431
4.90939
4.87041
4.78676
4.49806
4.42851
4.38903
4.55275
4.66465
4.34327
4.02137
3.77495
3.73407
3.6327
3.86148
4.11378