/*--------------------------------*- C++ -*----------------------------------*\
  =========                 |
  \\      /  F ield         | OpenFOAM: The Open Source CFD Toolbox
   \\    /   O peration     | Website:  https://openfoam.org
    \\  /    A nd           | Version:  6.0
     \\/     M anipulation  |
\*---------------------------------------------------------------------------*/
FoamFile
{
    version     2.0;
    format      ascii;
    class       surfaceScalarField;
    location    "3.5";
    object      phi;
}
// * * * * * * * * * * * * * * * * * * * * * * * * * * * * * * * * * * * * * //

dimensions      [1 0 -1 0 0 0 0];

internalField   nonuniform List<scalar> 
9440
(
0.00209995
-1.07465e-16
0.00209995
-5.94413e-16
0.00209995
-1.77213e-15
0.00209995
-4.53859e-15
0.00209995
-1.08959e-14
0.00209995
-2.50993e-14
0.00209995
-5.61505e-14
0.00209995
-1.23088e-13
0.00209995
-2.66014e-13
0.00209995
-5.68853e-13
0.00209995
-1.20617e-12
0.00209995
-2.53928e-12
0.00209995
-5.31278e-12
0.00209995
-1.10552e-11
0.00209995
-2.28924e-11
0.00209996
-4.71966e-11
0.00209996
-9.69297e-11
0.00209996
-1.98422e-10
0.00209997
-4.05146e-10
0.00209998
-8.25863e-10
0.0021
-1.68291e-09
0.00210005
-3.43574e-09
0.00210015
-7.05447e-09
0.00210034
-1.46707e-08
0.00210071
-3.13014e-08
0.00210141
-7.00941e-08
0.00210275
-1.69867e-07
0.00210267
-5.17525e-07
0.00211724
-2.34877e-06
0.00210962
3.56515e-05
0.00204281
9.11341e-05
0.00195615
0.000129357
0.00183407
0.000175764
0.00165379
0.000233439
0.00138619
0.000292496
0.000555686
0.00084841
-0.000428422
0.00106167
-0.00130129
0.00104045
-0.00091418
-0.000234209
-0.000851167
0.00209995
-1.84791e-16
0.00209995
-1.03043e-15
0.00209995
-3.12703e-15
0.00209995
-8.17212e-15
0.00209995
-1.99497e-14
0.00209995
-4.65597e-14
0.00209995
-1.05284e-13
0.00209995
-2.32968e-13
0.00209995
-5.07716e-13
0.00209995
-1.09386e-12
0.00209995
-2.33465e-12
0.00209995
-4.94222e-12
0.00209995
-1.03852e-11
0.00209995
-2.16761e-11
0.00209995
-4.49703e-11
0.00209996
-9.28048e-11
0.00209996
-1.90661e-10
0.00209996
-3.90273e-10
0.00209997
-7.96718e-10
0.00209998
-1.62387e-09
0.0021
-3.30938e-09
0.00210005
-6.75834e-09
0.00210015
-1.38816e-08
0.00210034
-2.88716e-08
0.00210072
-6.15563e-08
0.00210141
-1.37501e-07
0.00210275
-3.30982e-07
0.00210263
-1.00144e-06
0.00211721
-4.70482e-06
0.00210061
7.96667e-05
0.00203016
0.000185396
0.00193785
0.000264052
0.00180935
0.000357257
0.00162622
0.000468125
0.00133506
0.000606826
0.00112382
0.0010789
-0.000231753
0.00249595
-0.000737781
0.00168496
-0.000473991
-0.00044767
-0.00135046
0.00209995
-2.08441e-16
0.00209995
-1.20075e-15
0.00209995
-3.80045e-15
0.00209995
-1.03217e-14
0.00209995
-2.59523e-14
0.00209995
-6.19201e-14
0.00209995
-1.42491e-13
0.00209995
-3.19863e-13
0.00209995
-7.0552e-13
0.00209995
-1.53556e-12
0.00209995
-3.3057e-12
0.00209995
-7.04877e-12
0.00209995
-1.49031e-11
0.00209995
-3.12732e-11
0.00209995
-6.51946e-11
0.00209996
-1.35142e-10
0.00209996
-2.78802e-10
0.00209996
-5.72946e-10
0.00209997
-1.17393e-09
0.00209998
-2.40066e-09
0.00210001
-4.90631e-09
0.00210006
-1.00416e-08
0.00210016
-2.06541e-08
0.00210035
-4.29746e-08
0.00210073
-9.15483e-08
0.00210143
-2.04002e-07
0.00210278
-4.88684e-07
0.00210266
-1.47363e-06
0.00211729
-7.05809e-06
0.00209365
0.000130333
0.00201625
0.000285968
0.00192135
0.000400031
0.00178671
0.000543347
0.00161609
0.000686796
0.00137435
0.000870165
0.00132205
0.00115125
0.00219744
0.00167569
-0.00278461
0.00675923
-0.000633584
-0.00263674
-0.00225001
0.00209995
-2.01691e-16
0.00209995
-1.21708e-15
0.00209995
-4.07212e-15
0.00209995
-1.15061e-14
0.00209995
-2.96345e-14
0.00209995
-7.17967e-14
0.00209995
-1.67062e-13
0.00209995
-3.78727e-13
0.00209995
-8.43678e-13
0.00209995
-1.85525e-12
0.00209995
-4.03638e-12
0.00209995
-8.69892e-12
0.00209995
-1.85855e-11
0.00209995
-3.93931e-11
0.00209995
-8.28886e-11
0.00209996
-1.73262e-10
0.00209996
-3.60059e-10
0.00209996
-7.44507e-10
0.00209997
-1.53318e-09
0.00209998
-3.14797e-09
0.00210001
-6.45388e-09
0.00210006
-1.32409e-08
0.00210017
-2.72846e-08
0.00210037
-5.68447e-08
0.00210076
-1.21185e-07
0.00210148
-2.70028e-07
0.00210286
-6.45949e-07
0.00210277
-1.94633e-06
0.00211751
-9.45074e-06
0.00208819
0.000185766
0.0020062
0.000389688
0.00190403
0.000542278
0.00177003
0.000725473
0.00160267
0.000896873
0.00140721
0.00108516
0.00145663
0.00111578
0.0029528
0.000224127
0.00878613
0.000966901
0.00358774
0.00275748
0.00172393
0.00209995
-1.99374e-16
0.00209995
-1.26862e-15
0.00209995
-4.46e-15
0.00209995
-1.28423e-14
0.00209995
-3.31515e-14
0.00209995
-8.00083e-14
0.00209995
-1.85483e-13
0.00209995
-4.20031e-13
0.00209995
-9.37549e-13
0.00209995
-2.07117e-12
0.00209995
-4.53569e-12
0.00209995
-9.85222e-12
0.00209995
-2.1233e-11
0.00209995
-4.54151e-11
0.00209995
-9.6446e-11
0.00209996
-2.03469e-10
0.00209996
-4.26693e-10
0.00209996
-8.90096e-10
0.00209997
-1.84844e-09
0.00209998
-3.82502e-09
0.00210001
-7.89744e-09
0.00210007
-1.63021e-08
0.00210018
-3.37628e-08
0.00210039
-7.0613e-08
0.0021008
-1.5092e-07
0.00210155
-3.36665e-07
0.00210298
-8.05047e-07
0.00210295
-2.42317e-06
0.00211784
-1.18657e-05
0.00208442
0.000244622
0.00199804
0.000496681
0.00188804
0.000690019
0.00175169
0.000905214
0.00157485
0.00111181
0.0013876
0.0012933
0.00113857
0.00137425
0.000435217
0.000906654
0.000396735
0.000878973
0.0019661
0.000956567
0.00246449
0.00209995
-2.46544e-16
0.00209995
-1.59508e-15
0.00209995
-5.59802e-15
0.00209995
-1.57074e-14
0.00209995
-3.91971e-14
0.00209995
-9.15432e-14
0.00209995
-2.06352e-13
0.00209995
-4.57389e-13
0.00209995
-1.00663e-12
0.00209995
-2.20815e-12
0.00209995
-4.83083e-12
0.00209995
-1.05318e-11
0.00209995
-2.28557e-11
0.00209995
-4.93287e-11
0.00209995
-1.05818e-10
0.00209996
-2.25564e-10
0.00209996
-4.77806e-10
0.00209996
-1.00614e-09
0.00209997
-2.10746e-09
0.00209998
-4.3949e-09
0.00210001
-9.13735e-09
0.00210007
-1.89801e-08
0.00210019
-3.95327e-08
0.00210042
-8.3106e-08
0.00210085
-1.78429e-07
0.00210164
-3.99528e-07
0.00210314
-9.57825e-07
0.00210318
-2.88823e-06
0.00211827
-1.42962e-05
0.00208142
0.000306144
0.00198872
0.000608444
0.00187262
0.000841174
0.00173017
0.0010865
0.00154312
0.00133235
0.00133149
0.00152608
0.00100764
0.00170609
0.000653679
0.00125921
0.000360586
0.00112194
-6.55023e-05
0.00125637
0.00228611
0.00209995
-3.44208e-16
0.00209995
-2.20232e-15
0.00209995
-7.54747e-15
0.00209995
-2.04326e-14
0.00209995
-4.90704e-14
0.00209995
-1.104e-13
0.00209995
-2.40381e-13
0.00209995
-5.16586e-13
0.00209995
-1.10739e-12
0.00209995
-2.37871e-12
0.00209995
-5.12489e-12
0.00209995
-1.10653e-11
0.00209995
-2.39067e-11
0.00209995
-5.15999e-11
0.00209995
-1.11104e-10
0.00209996
-2.38383e-10
0.00209996
-5.09257e-10
0.00209996
-1.08275e-09
0.00209997
-2.29094e-09
0.00209999
-4.82556e-09
0.00210002
-1.01279e-08
0.00210008
-2.12192e-08
0.00210021
-4.45314e-08
0.00210045
-9.42194e-08
0.0021009
-2.03371e-07
0.00210174
-4.57307e-07
0.00210331
-1.0997e-06
0.00210346
-3.3249e-06
0.0021187
-1.66327e-05
0.00207834
0.000371252
0.00197953
0.000725635
0.00185813
0.000994351
0.00170857
0.00126914
0.00151544
0.00155339
0.00128932
0.00177283
0.00101294
0.00199985
0.000628176
0.00166602
0.000370822
0.00135031
-0.000159755
0.00170857
0.00228152
0.00209995
-5.18744e-16
0.00209995
-3.21053e-15
0.00209995
-1.0565e-14
0.00209995
-2.75213e-14
0.00209995
-6.37424e-14
0.00209995
-1.38596e-13
0.00209995
-2.92098e-13
0.00209995
-6.08545e-13
0.00209995
-1.26726e-12
0.00209995
-2.65175e-12
0.00209995
-5.58521e-12
0.00209995
-1.18381e-11
0.00209995
-2.52194e-11
0.00209995
-5.3913e-11
0.00209995
-1.15459e-10
0.00209996
-2.47315e-10
0.00209996
-5.29149e-10
0.00209996
-1.12969e-09
0.00209997
-2.40489e-09
0.00209999
-5.10371e-09
0.00210002
-1.08019e-08
0.00210009
-2.28308e-08
0.00210022
-4.8336e-08
0.00210047
-1.03133e-07
0.00210096
-2.2434e-07
0.00210185
-5.07882e-07
0.00210349
-1.22791e-06
0.00210374
-3.729e-06
0.00211908
-1.88503e-05
0.00207439
0.000439784
0.00197105
0.000847023
0.0018446
0.00115061
0.00168995
0.00145256
0.00148947
0.00177396
0.00126072
0.00202436
0.00100305
0.0022752
0.000533672
0.00213787
0.000510839
0.00133827
-0.000127648
0.00226131
0.00216613
0.00209995
-7.07986e-16
0.00209995
-4.30113e-15
0.00209995
-1.38727e-14
0.00209995
-3.5537e-14
0.00209995
-8.10702e-14
0.00209995
-1.73683e-13
0.00209995
-3.60384e-13
0.00209995
-7.37759e-13
0.00209995
-1.506e-12
0.00209995
-3.08303e-12
0.00209995
-6.34736e-12
0.00209995
-1.31572e-11
0.00209995
-2.74625e-11
0.00209995
-5.76866e-11
0.00209995
-1.2182e-10
0.00209996
-2.58287e-10
0.00209996
-5.49056e-10
0.00209996
-1.16863e-09
0.00209997
-2.48766e-09
0.00209998
-5.29215e-09
0.00210002
-1.12497e-08
0.00210009
-2.39159e-08
0.00210022
-5.09798e-08
0.00210049
-1.09586e-07
0.002101
-2.40215e-07
0.00210193
-5.47933e-07
0.00210365
-1.33358e-06
0.00210402
-4.07601e-06
0.00211939
-2.08827e-05
0.00207014
0.000511836
0.00196307
0.000972777
0.0018329
0.00130938
0.00167418
0.00163648
0.00146639
0.00199317
0.00123844
0.0022878
0.00100502
0.00254621
0.000518489
0.00263093
0.000603069
0.00123703
5.63471e-05
0.00272153
0.00219527
0.00209995
-8.17437e-16
0.00209995
-5.00143e-15
0.00209995
-1.62091e-14
0.00209995
-4.1672e-14
0.00209995
-9.53648e-14
0.00209995
-2.05077e-13
0.00209995
-4.27047e-13
0.00209995
-8.75736e-13
0.00209995
-1.78462e-12
0.00209995
-3.63155e-12
0.00209995
-7.39941e-12
0.00209995
-1.51227e-11
0.00209995
-3.1041e-11
0.00209995
-6.40455e-11
0.00209995
-1.32882e-10
0.00209995
-2.77237e-10
0.00209996
-5.81344e-10
0.00209996
-1.22424e-09
0.00209997
-2.5867e-09
0.00209998
-5.47893e-09
0.00210001
-1.16286e-08
0.00210008
-2.47421e-08
0.00210021
-5.28888e-08
0.00210048
-1.14185e-07
0.002101
-2.51683e-07
0.00210196
-5.777e-07
0.00210374
-1.41461e-06
0.00210423
-4.35374e-06
0.00211956
-2.26459e-05
0.00206654
0.000587645
0.0019561
0.00110245
0.00182403
0.00147056
0.00165948
0.00182191
0.00145263
0.00220532
0.00122747
0.00252321
0.00103353
0.00278466
0.000870373
0.00282955
0.000266791
0.00183978
0.00018411
0.002719
0.00224381
0.00209995
-8.7856e-16
0.00209995
-5.42691e-15
0.00209995
-1.77582e-14
0.00209995
-4.58847e-14
0.00209995
-1.05429e-13
0.00209995
-2.27972e-13
0.00209995
-4.78273e-13
0.00209995
-9.89053e-13
0.00209995
-2.03143e-12
0.00209995
-4.15811e-12
0.00209995
-8.49587e-12
0.00209995
-1.73468e-11
0.00209995
-3.54309e-11
0.00209995
-7.24726e-11
0.00209995
-1.48617e-10
0.00209995
-3.05835e-10
0.00209996
-6.32058e-10
0.00209996
-1.3124e-09
0.00209997
-2.7382e-09
0.00209998
-5.74011e-09
0.00210001
-1.20899e-08
0.00210007
-2.55989e-08
0.00210019
-5.46002e-08
0.00210045
-1.17901e-07
0.00210096
-2.60438e-07
0.00210191
-5.99979e-07
0.00210371
-1.47508e-06
0.00210429
-4.56504e-06
0.0021195
-2.40989e-05
0.00206522
0.000667052
0.00195105
0.00123524
0.00181587
0.00163704
0.00164954
0.00200541
0.00144579
0.00240926
0.00122438
0.0027361
0.00103685
0.00300509
0.000749996
0.00315101
-4.51102e-05
0.00263881
0.000147001
0.00248082
0.00230146
0.00209995
-9.37682e-16
0.00209995
-5.83263e-15
0.00209995
-1.91474e-14
0.00209995
-4.94359e-14
0.00209995
-1.13445e-13
0.00209995
-2.4548e-13
0.00209995
-5.16676e-13
0.00209995
-1.07407e-12
0.00209995
-2.22012e-12
0.00209995
-4.57475e-12
0.00209995
-9.40582e-12
0.00209995
-1.93033e-11
0.00209995
-3.95581e-11
0.00209995
-8.099e-11
0.00209995
-1.65773e-10
0.00209995
-3.39498e-10
0.00209996
-6.96311e-10
0.00209996
-1.43163e-09
0.00209996
-2.95346e-09
0.00209997
-6.11937e-09
0.0021
-1.27467e-08
0.00210005
-2.67323e-08
0.00210016
-5.65967e-08
0.0021004
-1.21619e-07
0.00210087
-2.68041e-07
0.00210179
-6.17495e-07
0.00210354
-1.51989e-06
0.00210416
-4.71938e-06
0.00211915
-2.52574e-05
0.00206554
0.000749448
0.00194907
0.00137198
0.00180983
0.00180561
0.00164165
0.00218911
0.00144232
0.00260504
0.00122628
0.00295344
0.00103164
0.00323147
0.000732894
0.00350815
-0.000188215
0.0035339
0.000136541
0.00210156
0.00243138
0.00209995
-9.31686e-16
0.00209995
-5.90802e-15
0.00209995
-1.96765e-14
0.00209995
-5.11173e-14
0.00209995
-1.1783e-13
0.00209995
-2.56423e-13
0.00209995
-5.43452e-13
0.00209995
-1.13782e-12
0.00209995
-2.36715e-12
0.00209995
-4.9042e-12
0.00209995
-1.01278e-11
0.00209995
-2.0861e-11
0.00209995
-4.28814e-11
0.00209995
-8.80107e-11
0.00209995
-1.80448e-10
0.00209995
-3.69779e-10
0.00209996
-7.57792e-10
0.00209996
-1.55403e-09
0.00209996
-3.19167e-09
0.00209997
-6.57163e-09
0.00209999
-1.3584e-08
0.00210004
-2.82476e-08
0.00210013
-5.92965e-08
0.00210033
-1.26428e-07
0.00210075
-2.76849e-07
0.00210158
-6.34739e-07
0.00210322
-1.55668e-06
0.0021038
-4.82804e-06
0.00211841
-2.61151e-05
0.00206601
0.00083545
0.00194771
0.00151231
0.00180366
0.00197323
0.00163505
0.00237251
0.0014432
0.00279476
0.00123346
0.00315432
0.00104599
0.00343038
0.000797853
0.00376522
0.000672647
0.00361538
0.000242468
0.00249639
0.00262234
0.00209995
-8.52266e-16
0.00209995
-5.58776e-15
0.00209995
-1.90617e-14
0.00209995
-4.99473e-14
0.00209995
-1.15814e-13
0.00209995
-2.54121e-13
0.00209995
-5.44406e-13
0.00209995
-1.15334e-12
0.00209995
-2.42669e-12
0.00209995
-5.0773e-12
0.00209995
-1.05697e-11
0.00209995
-2.19072e-11
0.00209995
-4.52444e-11
0.00209995
-9.31923e-11
0.00209995
-1.91597e-10
0.00209995
-3.93454e-10
0.00209996
-8.07527e-10
0.00209996
-1.65733e-09
0.00209996
-3.40332e-09
0.00209997
-6.99799e-09
0.00209999
-1.44258e-08
0.00210003
-2.98733e-08
0.00210011
-6.2367e-08
0.00210028
-1.32119e-07
0.00210063
-2.87282e-07
0.00210135
-6.53897e-07
0.0021028
-1.59169e-06
0.00210323
-4.90507e-06
0.00211722
-2.66879e-05
0.00206456
0.000925329
0.00194456
0.00165593
0.00179712
0.00213871
0.00162815
0.0025539
0.00144573
0.00298236
0.00124154
0.00333923
0.00105513
0.00362124
0.000857738
0.00390288
0.000551285
0.00392538
0.000265033
0.00280053
0.00290691
0.00209995
-8.31314e-16
0.00209995
-5.5307e-15
0.00209995
-1.88762e-14
0.00209995
-4.87489e-14
0.00209995
-1.11466e-13
0.00209995
-2.42729e-13
0.00209995
-5.19816e-13
0.00209995
-1.10729e-12
0.00209995
-2.3515e-12
0.00209995
-4.97537e-12
0.00209995
-1.0479e-11
0.00209995
-2.19621e-11
0.00209995
-4.58113e-11
0.00209995
-9.51641e-11
0.00209995
-1.97023e-10
0.00209995
-4.06878e-10
0.00209996
-8.3879e-10
0.00209996
-1.72741e-09
0.00209996
-3.55624e-09
0.00209997
-7.32442e-09
0.00209999
-1.51085e-08
0.00210002
-3.12705e-08
0.00210009
-6.51614e-08
0.00210024
-1.37569e-07
0.00210054
-2.97616e-07
0.00210114
-6.72737e-07
0.00210237
-1.62293e-06
0.00210257
-4.95077e-06
0.00211564
-2.697e-05
0.00205773
0.00101892
0.0019362
0.00180236
0.0017908
0.00230467
0.001621
0.00273219
0.00144639
0.00317111
0.00124967
0.00351149
0.00105917
0.0037874
0.000859671
0.00405116
0.000564178
0.00435552
0.000274081
0.00311712
0.00337075
0.00209995
-1.05619e-15
0.00209995
-6.64318e-15
0.00209995
-2.13256e-14
0.00209995
-5.2032e-14
0.00209995
-1.1322e-13
0.00209995
-2.36755e-13
0.00209995
-4.92252e-13
0.00209995
-1.03014e-12
0.00209995
-2.17277e-12
0.00209995
-4.60598e-12
0.00209995
-9.77877e-12
0.00209995
-2.07332e-11
0.00209995
-4.38197e-11
0.00209995
-9.22358e-11
0.00209995
-1.93317e-10
0.00209995
-4.0356e-10
0.00209996
-8.39608e-10
0.00209996
-1.74221e-09
0.00209996
-3.60867e-09
0.00209997
-7.46825e-09
0.00209999
-1.54611e-08
0.00210002
-3.20781e-08
0.00210009
-6.69171e-08
0.00210023
-1.41199e-07
0.00210049
-3.04671e-07
0.00210101
-6.85016e-07
0.00210204
-1.63826e-06
0.00210198
-4.94197e-06
0.00211389
-2.69327e-05
0.00204531
0.0011145
0.00192077
0.00195132
0.00178298
0.00247467
0.00161525
0.00290683
0.00144257
0.00336205
0.00125554
0.00367735
0.00106399
0.003951
0.000859433
0.0041789
0.000589588
0.00455546
0.000287899
0.00342939
0.00382816
0.00209995
-1.58458e-15
0.00209995
-9.18964e-15
0.00209995
-2.70792e-14
0.00209995
-6.1632e-14
0.00209995
-1.25975e-13
0.00209995
-2.48176e-13
0.00209995
-4.88357e-13
0.00209995
-9.75951e-13
0.00209995
-1.99084e-12
0.00209995
-4.13862e-12
0.00209995
-8.72534e-12
0.00209995
-1.85504e-11
0.00209995
-3.95709e-11
0.00209995
-8.43744e-11
0.00209995
-1.79392e-10
0.00209995
-3.79846e-10
0.00209996
-8.00702e-10
0.00209996
-1.68078e-09
0.00209996
-3.51582e-09
0.00209997
-7.33584e-09
0.00209999
-1.52883e-08
0.00210003
-3.18858e-08
0.00210009
-6.67681e-08
0.00210023
-1.41183e-07
0.00210048
-3.04614e-07
0.00210095
-6.82733e-07
0.00210185
-1.62102e-06
0.0021016
-4.8432e-06
0.00211222
-2.64695e-05
0.00202875
0.00121113
0.00189921
0.00210197
0.00177107
0.00264955
0.00161195
0.003081
0.00143433
0.00355287
0.00125963
0.00384448
0.00105407
0.00411785
0.000901347
0.00431634
0.000605348
0.00441049
0.00031972
0.00375281
0.00343171
0.00209995
-2.23788e-15
0.00209995
-1.22481e-14
0.00209995
-3.38509e-14
0.00209995
-7.35024e-14
0.00209995
-1.44286e-13
0.00209995
-2.72575e-13
0.00209995
-5.11878e-13
0.00209995
-9.73203e-13
0.00209995
-1.89234e-12
0.00209995
-3.7786e-12
0.00209995
-7.7409e-12
0.00209995
-1.61949e-11
0.00209995
-3.4379e-11
0.00209995
-7.35722e-11
0.00209995
-1.57872e-10
0.00209995
-3.38388e-10
0.00209996
-7.22857e-10
0.00209996
-1.53732e-09
0.00209996
-3.25468e-09
0.00209997
-6.8635e-09
0.00209999
-1.44344e-08
0.00210003
-3.03331e-08
0.0021001
-6.38997e-08
0.00210024
-1.357e-07
0.0021005
-2.93391e-07
0.00210096
-6.56826e-07
0.00210179
-1.55042e-06
0.00210144
-4.60454e-06
0.00211079
-2.54412e-05
0.00201175
0.00130819
0.00187497
0.00225335
0.00175209
0.00282794
0.00161101
0.00325984
0.00142299
0.00373945
0.00126198
0.0040172
0.00104722
0.00427819
0.000881376
0.0044541
0.000636935
0.00456253
0.000306219
0.00404976
0.00361199
0.00209995
-2.66767e-15
0.00209995
-1.4052e-14
0.00209995
-3.7206e-14
0.00209995
-7.8837e-14
0.00209995
-1.52823e-13
0.00209995
-2.86126e-13
0.00209995
-5.30534e-13
0.00209995
-9.87289e-13
0.00209995
-1.86052e-12
0.00209995
-3.57543e-12
0.00209995
-7.04096e-12
0.00209995
-1.4231e-11
0.00209995
-2.94596e-11
0.00209995
-6.2149e-11
0.00209995
-1.32777e-10
0.00209995
-2.85536e-10
0.00209996
-6.15086e-10
0.00209996
-1.32283e-09
0.00209996
-2.83501e-09
0.00209997
-6.05089e-09
0.00209999
-1.28675e-08
0.00210003
-2.73045e-08
0.00210011
-5.7986e-08
0.00210025
-1.23896e-07
0.00210052
-2.68818e-07
0.00210099
-6.01695e-07
0.00210182
-1.41182e-06
0.00210147
-4.18613e-06
0.00210961
-2.36931e-05
0.00199791
0.00140555
0.00185234
0.00240473
0.00172537
0.00300714
0.001609
0.00344812
0.00141109
0.00392065
0.00126172
0.00419699
0.00104766
0.00443556
0.000847841
0.00458595
0.000698301
0.00478916
0.000303025
0.00433808
0.00389681
0.00209995
-2.52636e-15
0.00209995
-1.28589e-14
0.00209995
-3.2689e-14
0.00209995
-6.80891e-14
0.00209995
-1.32651e-13
0.00209995
-2.53338e-13
0.00209995
-4.81439e-13
0.00209995
-9.13655e-13
0.00209995
-1.73451e-12
0.00209995
-3.30576e-12
0.00209995
-6.3614e-12
0.00209995
-1.2441e-11
0.00209995
-2.48578e-11
0.00209995
-5.08518e-11
0.00209995
-1.06336e-10
0.00209995
-2.26246e-10
0.00209996
-4.86855e-10
0.00209996
-1.05349e-09
0.00209996
-2.28187e-09
0.00209997
-4.93304e-09
0.00209999
-1.063e-08
0.00210003
-2.28385e-08
0.00210011
-4.9025e-08
0.00210026
-1.05619e-07
0.00210054
-2.30253e-07
0.00210104
-5.15179e-07
0.00210186
-1.19835e-06
0.00210159
-3.56569e-06
0.00210857
-2.11012e-05
0.00198841
0.00150386
0.00183426
0.00255532
0.00169527
0.00318305
0.00160004
0.00364743
0.00140156
0.00410023
0.00125781
0.00438196
0.0010462
0.00460033
0.000812282
0.00471708
0.000709355
0.00508685
0.000299024
0.00460507
0.00426792
0.00209995
-1.71265e-15
0.00209995
-8.16513e-15
0.00209995
-1.89587e-14
0.00209995
-3.7618e-14
0.00209995
-7.41398e-14
0.00209995
-1.50476e-13
0.00209995
-3.10619e-13
0.00209995
-6.38552e-13
0.00209995
-1.29099e-12
0.00209995
-2.56008e-12
0.00209995
-5.0011e-12
0.00209995
-9.7076e-12
0.00209995
-1.89282e-11
0.00209995
-3.74746e-11
0.00209995
-7.59398e-11
0.00209995
-1.57981e-10
0.00209995
-3.36588e-10
0.00209996
-7.29921e-10
0.00209996
-1.59926e-09
0.00209997
-3.51701e-09
0.00209999
-7.72726e-09
0.00210003
-1.69226e-08
0.00210011
-3.69438e-08
0.00210027
-8.06282e-08
0.00210056
-1.77021e-07
0.00210107
-3.95433e-07
0.0021019
-9.04708e-07
0.00210173
-2.72777e-06
0.00210753
-1.7599e-05
0.00198299
0.00160342
0.00182205
0.00270448
0.00166799
0.00335326
0.00157809
0.00385182
0.0013969
0.0042855
0.00125076
0.00456746
0.00103198
0.00477541
0.000829179
0.00487692
0.000695222
0.00516323
0.000296849
0.00486241
0.00474767
0.00209995
-3.7674e-16
0.00209995
-7.81139e-16
0.00209995
1.93286e-15
0.00209995
9.02783e-15
0.00209995
1.86288e-14
0.00209995
2.19607e-14
0.00209995
-3.64482e-15
0.00209995
-1.06595e-13
0.00209995
-3.80308e-13
0.00209995
-9.94163e-13
0.00209995
-2.24548e-12
0.00209995
-4.65789e-12
0.00209995
-9.19853e-12
0.00209995
-1.78112e-11
0.00209995
-3.47756e-11
0.00209995
-7.01444e-11
0.00209995
-1.48206e-10
0.00209996
-3.27669e-10
0.00209996
-7.48376e-10
0.00209997
-1.7367e-09
0.00209999
-4.03873e-09
0.00210003
-9.32974e-09
0.00210011
-2.1323e-08
0.00210027
-4.81966e-08
0.00210057
-1.07985e-07
0.00210109
-2.40989e-07
0.00210192
-5.2994e-07
0.00210184
-1.67705e-06
0.0021064
-1.32223e-05
0.00198031
0.00170289
0.00181528
0.00285274
0.00165001
0.00351753
0.00154032
0.00405127
0.00139723
0.00448805
0.00123989
0.00475417
0.00100865
0.00496256
0.000867841
0.00508559
0.000681374
0.0052615
0.000322155
0.00514342
0.0054224
0.00209995
1.20243e-15
0.00209995
7.86475e-15
0.00209995
2.63374e-14
0.00209995
6.47379e-14
0.00209995
1.33985e-13
0.00209995
2.48009e-13
0.00209995
4.2359e-13
0.00209995
6.80415e-13
0.00209995
1.04389e-12
0.00209995
1.55869e-12
0.00209995
2.33256e-12
0.00209995
3.64988e-12
0.00209995
6.22689e-12
0.00209995
1.17191e-11
0.00209995
2.36073e-11
0.00209995
4.84923e-11
0.00209995
9.74036e-11
0.00209996
1.85443e-10
0.00209996
3.24844e-10
0.00209997
4.99115e-10
0.00209998
5.90374e-10
0.00210002
2.02899e-10
0.0021001
-1.71694e-09
0.00210026
-7.57324e-09
0.00210056
-2.18918e-08
0.00210109
-4.98189e-08
0.00210192
-7.11177e-08
0.00210193
-4.1058e-07
0.00210507
-7.901e-06
0.00197656
0.00180313
0.00181237
0.00299955
0.00164484
0.00367641
0.00149075
0.00423596
0.00139989
0.00471846
0.00123157
0.00493182
0.00100031
0.00516821
0.000844334
0.00532336
0.000679202
0.00548273
0.000385896
0.0054825
0.00505609
0.00209995
2.69828e-15
0.00209995
1.60698e-14
0.00209995
4.98311e-14
0.00209995
1.20304e-13
0.00209995
2.54884e-13
0.00209995
4.98912e-13
0.00209995
9.27247e-13
0.00209995
1.66456e-12
0.00209995
2.92365e-12
0.00209995
5.08388e-12
0.00209995
8.86001e-12
0.00209995
1.56719e-11
0.00209995
2.84461e-11
0.00209995
5.33093e-11
0.00209995
1.03053e-10
0.00209995
2.03974e-10
0.00209996
4.08914e-10
0.00209996
8.21272e-10
0.00209996
1.63791e-09
0.00209997
3.22436e-09
0.00209998
6.2472e-09
0.00210001
1.19217e-08
0.00210008
2.25484e-08
0.00210023
4.29663e-08
0.00210053
8.54055e-08
0.00210106
1.8772e-07
0.00210188
4.94839e-07
0.00210199
1.12989e-06
0.00210353
-1.49611e-06
0.00197359
0.00190375
0.00181048
0.00314674
0.00164687
0.00383335
0.00144265
0.00439873
0.00139947
0.00500914
0.00123112
0.00509466
0.00102501
0.00541816
0.000812653
0.00556429
0.000681301
0.005746
0.000410448
0.00599213
0.00506285
0.00209995
3.80168e-15
0.00209995
2.22421e-14
0.00209995
6.82221e-14
0.00209995
1.66377e-13
0.00209995
3.61921e-13
0.00209995
7.36612e-13
0.00209995
1.43712e-12
0.00209995
2.72514e-12
0.00209995
5.06832e-12
0.00209995
9.31168e-12
0.00209995
1.70157e-11
0.00209995
3.11468e-11
0.00209995
5.7518e-11
0.00209995
1.0781e-10
0.00209995
2.05866e-10
0.00209996
4.00636e-10
0.00209996
7.92303e-10
0.00209996
1.58415e-09
0.00209996
3.18402e-09
0.00209997
6.40135e-09
0.00209998
1.28326e-08
0.0021
2.5639e-08
0.00210006
5.12356e-08
0.00210019
1.03425e-07
0.00210045
2.15209e-07
0.00210094
4.77538e-07
0.0021017
1.1892e-06
0.00210188
3.01653e-06
0.00210171
6.16636e-06
0.00197381
0.00200341
0.00181006
0.0032958
0.00164781
0.0039917
0.00141663
0.00453993
0.00138985
0.00559553
0.00123548
0.00525198
0.00109425
0.00571218
0.000793667
0.0058118
0.000671834
0.00607011
0.000381908
0.00690043
0.00528861
0.00209995
4.37674e-15
0.00209995
2.57206e-14
0.00209995
7.96731e-14
0.00209995
1.98021e-13
0.00209995
4.42282e-13
0.00209995
9.29988e-13
0.00209995
1.88324e-12
0.00209995
3.7172e-12
0.00209995
7.20194e-12
0.00209995
1.37628e-11
0.00209995
2.60504e-11
0.00209995
4.90521e-11
0.00209995
9.2316e-11
0.00209995
1.74487e-10
0.00209995
3.32664e-10
0.00209996
6.41761e-10
0.00209996
1.25438e-09
0.00209996
2.48231e-09
0.00209996
4.96182e-09
0.00209997
9.98733e-09
0.00209998
2.01889e-08
0.0021
4.09396e-08
0.00210004
8.344e-08
0.00210013
1.72138e-07
0.00210033
3.65058e-07
0.00210072
8.17526e-07
0.00210135
2.01444e-06
0.00210149
5.28119e-06
0.00209935
1.53941e-05
0.00197452
0.00210443
0.00181187
0.00344481
0.0016448
0.00414695
0.00143471
0.00468044
0.00135717
0.00566511
0.00122843
0.00541829
0.00114857
0.00612531
0.000772797
0.00604177
0.000679084
0.00655044
0.000305321
0.00702483
0.00555023
0.00209995
4.53977e-15
0.00209995
2.71128e-14
0.00209995
8.57424e-14
0.00209995
2.17842e-13
0.00209995
4.98383e-13
0.00209995
1.07635e-12
0.00209995
2.24444e-12
0.00209995
4.57011e-12
0.00209995
9.14117e-12
0.00209995
1.8027e-11
0.00209995
3.51516e-11
0.00209995
6.79692e-11
0.00209995
1.30737e-10
0.00209995
2.51034e-10
0.00209995
4.82938e-10
0.00209996
9.34023e-10
0.00209996
1.82095e-09
0.00209996
3.58424e-09
0.00209997
7.12485e-09
0.00209997
1.4292e-08
0.00209999
2.88942e-08
0.0021
5.8835e-08
0.00210003
1.20824e-07
0.00210009
2.51628e-07
0.00210021
5.38277e-07
0.00210046
1.21054e-06
0.00210084
2.96834e-06
0.00210076
7.92948e-06
0.00209602
2.65517e-05
0.00197426
0.0022091
0.00181367
0.00359243
0.00163506
0.00429643
0.00145555
0.00482835
0.00130781
0.0052985
0.00125579
0.00560673
0.00113699
0.00636
0.0008308
0.00629505
0.000671015
0.00638235
0.000229798
0.00654696
0.00594147
0.00209995
4.6254e-15
0.00209995
2.82055e-14
0.00209995
9.12148e-14
0.00209995
2.35917e-13
0.00209995
5.48788e-13
0.00209995
1.20633e-12
0.00209995
2.56508e-12
0.00209995
5.33608e-12
0.00209995
1.09208e-11
0.00209995
2.2055e-11
0.00209995
4.40427e-11
0.00209995
8.71328e-11
0.00209995
1.71138e-10
0.00209995
3.34523e-10
0.00209995
6.52536e-10
0.00209996
1.27383e-09
0.00209996
2.49515e-09
0.00209996
4.91489e-09
0.00209997
9.74991e-09
0.00209998
1.94928e-08
0.0021
3.92871e-08
0.00210002
7.98617e-08
0.00210004
1.64052e-07
0.00210008
3.42377e-07
0.00210012
7.3448e-07
0.00210019
1.65418e-06
0.00210021
4.04007e-06
0.00209974
1.08877e-05
0.00209231
3.94313e-05
0.00197858
0.00230981
0.00181518
0.00374103
0.00162308
0.00444401
0.00145621
0.00497857
0.00128085
0.00541058
0.00133218
0.00593376
0.00109171
0.00613515
0.000895746
0.00651423
0.000622455
0.00631298
0.000203591
0.0069215
0.0074073
0.00209995
5.04775e-15
0.00209995
3.12068e-14
0.00209995
1.02193e-13
0.00209995
2.66133e-13
0.00209995
6.22403e-13
0.00209995
1.37686e-12
0.00209995
2.95277e-12
0.00209995
6.21176e-12
0.00209995
1.28898e-11
0.00209995
2.64508e-11
0.00209995
5.37477e-11
0.00209995
1.08247e-10
0.00209995
2.16299e-10
0.00209995
4.29387e-10
0.00209995
8.48286e-10
0.00209996
1.67116e-09
0.00209996
3.29041e-09
0.00209996
6.48966e-09
0.00209997
1.28481e-08
0.00209999
2.55774e-08
0.00210001
5.12771e-08
0.00210004
1.03691e-07
0.00210008
2.12079e-07
0.00210011
4.41194e-07
0.00210012
9.44124e-07
0.00210006
2.11999e-06
0.00209975
5.13991e-06
0.00209887
1.39122e-05
0.00208816
5.37452e-05
0.00197327
0.00240719
0.00180785
0.00389134
0.00161115
0.00459569
0.00145576
0.00512868
0.00127709
0.00553629
0.00138441
0.00672167
0.00112535
0.00630855
0.000896716
0.00662876
0.000588898
0.00648127
0.000211759
0.0074984
0.00890711
0.00209995
6.21364e-15
0.00209995
3.83364e-14
0.00209995
1.25053e-13
0.00209995
3.23796e-13
0.00209995
7.53067e-13
0.00209995
1.65874e-12
0.00209995
3.54912e-12
0.00209995
7.4689e-12
0.00209995
1.55507e-11
0.00209995
3.2117e-11
0.00209995
6.58636e-11
0.00209995
1.34163e-10
0.00209995
2.71516e-10
0.00209995
5.46139e-10
0.00209995
1.09262e-09
0.00209995
2.17652e-09
0.00209996
4.32318e-09
0.00209996
8.57686e-09
0.00209997
1.70271e-08
0.00209999
3.38905e-08
0.00210001
6.77671e-08
0.00210005
1.36462e-07
0.00210011
2.77723e-07
0.00210015
5.74861e-07
0.00210014
1.22438e-06
0.00209994
2.73718e-06
0.00209911
6.60366e-06
0.00209716
1.79245e-05
0.00207869
7.19597e-05
0.0019348
0.00252229
0.00177624
0.00403734
0.00160463
0.00473406
0.00145804
0.00526896
0.0012967
0.00565712
0.00134106
0.00676711
0.001148
0.00653406
0.000896111
0.00687152
0.000582455
0.00666295
0.000275248
0.0084989
0.0102712
0.00209995
8.25863e-15
0.00209995
5.04448e-14
0.00209995
1.6268e-13
0.00209995
4.17066e-13
0.00209995
9.61806e-13
0.00209995
2.10296e-12
0.00209995
4.47197e-12
0.00209995
9.36885e-12
0.00209995
1.9462e-11
0.00209995
4.02065e-11
0.00209995
8.26998e-11
0.00209995
1.69395e-10
0.00209995
3.45475e-10
0.00209995
7.01418e-10
0.00209995
1.41771e-09
0.00209995
2.85355e-09
0.00209995
5.72356e-09
0.00209996
1.14518e-08
0.00209996
2.28876e-08
0.00209998
4.5769e-08
0.0021
9.17659e-08
0.00210004
1.84977e-07
0.0021001
3.76413e-07
0.00210014
7.78629e-07
0.00210008
1.65734e-06
0.00209965
3.70447e-06
0.002098
8.94641e-06
0.00209352
2.43694e-05
0.00206739
9.60935e-05
0.00191031
0.00264434
0.00175064
0.00418382
0.00160532
0.00487198
0.00145877
0.00539613
0.00130563
0.00576686
0.00114249
0.00605902
0.00117476
0.00691957
0.000919728
0.00717945
0.000615704
0.00686151
0.000338515
0.00765175
0.00759275
0.00209995
1.11714e-14
0.00209995
6.75855e-14
0.00209995
2.15767e-13
0.00209995
5.48881e-13
0.00209995
1.25772e-12
0.00209995
2.73397e-12
0.00209995
5.7821e-12
0.00209995
1.20547e-11
0.00209995
2.49453e-11
0.00209995
5.14141e-11
0.00209995
1.05702e-10
0.00209995
2.16857e-10
0.00209995
4.43902e-10
0.00209995
9.06284e-10
0.00209995
1.84481e-09
0.00209995
3.74342e-09
0.00209995
7.57275e-09
0.00209995
1.52787e-08
0.00209995
3.07687e-08
0.00209996
6.19212e-08
0.00209997
1.24749e-07
0.0021
2.52249e-07
0.00210005
5.14084e-07
0.0021001
1.06356e-06
0.00210003
2.26176e-06
0.00209949
5.04746e-06
0.00209728
1.21695e-05
0.00209067
3.3055e-05
0.00205796
0.000125844
0.00188808
0.00276449
0.00172946
0.00432486
0.00161084
0.00501502
0.00146001
0.00551303
0.00130235
0.00585823
0.00113219
0.00610486
0.00120363
0.00763987
0.000952774
0.00757063
0.000633691
0.007072
0.000380008
0.00717764
0.00704191