/*--------------------------------*- C++ -*----------------------------------*\
  =========                 |
  \\      /  F ield         | OpenFOAM: The Open Source CFD Toolbox
   \\    /   O peration     | Website:  https://openfoam.org
    \\  /    A nd           | Version:  6.0
     \\/     M anipulation  |
\*---------------------------------------------------------------------------*/
FoamFile
{
    version     2.0;
    format      ascii;
    class       volScalarField;
    location    "3.5";
    object      T;
}
// * * * * * * * * * * * * * * * * * * * * * * * * * * * * * * * * * * * * * //

dimensions      [0 0 0 1 0 0 0];

internalField   nonuniform List<scalar> 
4800
(
1
1
1
1
1
1
1
1
1
1
1
1.00001
1.00001
1.00002
1.00004
1.00009
1.00019
1.00038
1.00079
1.00162
1.00333
1.00685
1.0141
1.02915
1.06077
1.12878
1.28488
1.66335
3.25704
2.43693
2.62264
2.74437
2.79357
2.80266
2.79128
2.77689
2.80914
2.80703
2.73671
2.67384
1
1
1
1
1
1
1
1
1
1
1
1.00001
1.00001
1.00002
1.00004
1.00009
1.00019
1.00038
1.00079
1.00162
1.00333
1.00685
1.0141
1.02915
1.06077
1.12879
1.2849
1.66351
3.25667
2.43742
2.62374
2.74574
2.79426
2.80306
2.79013
2.77484
2.77132
2.77419
2.459
2.11494
1
1
1
1
1
1
1
1
1
1
1
1.00001
1.00001
1.00002
1.00004
1.00009
1.00019
1.00038
1.00079
1.00162
1.00333
1.00685
1.0141
1.02915
1.06078
1.12881
1.28493
1.66384
3.25586
2.43841
2.62492
2.74726
2.7954
2.80353
2.79083
2.76979
2.76594
2.60756
2.20272
1.58083
1
1
1
1
1
1
1
1
1
1
1
1.00001
1.00001
1.00002
1.00004
1.00009
1.00019
1.00039
1.00079
1.00162
1.00333
1.00685
1.0141
1.02916
1.06079
1.12884
1.28497
1.66433
3.25458
2.43994
2.62624
2.74936
2.7961
2.80452
2.79071
2.77042
2.76195
2.65013
2.6921
3.44372
1
1
1
1
1
1
1
1
1
1
1
1.00001
1.00001
1.00002
1.00004
1.00009
1.00019
1.00039
1.00079
1.00162
1.00333
1.00685
1.01411
1.02917
1.06081
1.12887
1.28503
1.66499
3.25283
2.44204
2.62803
2.75136
2.79691
2.8057
2.78964
2.77487
2.78648
2.77283
2.56085
1.86962
1
1
1
1
1
1
1
1
1
1
1
1.00001
1.00001
1.00002
1.00004
1.00009
1.00019
1.00039
1.00079
1.00162
1.00333
1.00685
1.01411
1.02918
1.06083
1.12892
1.28511
1.66583
3.2506
2.44473
2.63038
2.75338
2.79787
2.80655
2.78951
2.77833
2.79639
2.80316
2.80378
2.50655
1
1
1
1
1
1
1
1
1
1
1
1.00001
1.00001
1.00002
1.00004
1.00009
1.00019
1.00039
1.00079
1.00162
1.00334
1.00686
1.01412
1.02919
1.06085
1.12897
1.28521
1.66687
3.2479
2.44809
2.63315
2.75541
2.79888
2.80713
2.79007
2.77831
2.79237
2.81524
2.82003
2.64717
1
1
1
1
1
1
1
1
1
1
1
1.00001
1.00001
1.00002
1.00004
1.00009
1.00019
1.00039
1.00079
1.00162
1.00334
1.00686
1.01413
1.02921
1.06088
1.12904
1.28533
1.66809
3.2447
2.45217
2.63626
2.75766
2.79989
2.8076
2.79067
2.77824
2.7871
2.83453
2.80622
2.58972
1
1
1
1
1
1
1
1
1
1
1
1.00001
1.00001
1.00002
1.00004
1.00009
1.00019
1.00039
1.00079
1.00163
1.00334
1.00686
1.01413
1.02922
1.06092
1.12913
1.28547
1.66951
3.24103
2.45692
2.63984
2.76014
2.80104
2.80742
2.79054
2.77825
2.78124
2.83943
2.8198
2.61486
1
1
1
1
1
1
1
1
1
1
1
1.00001
1.00001
1.00002
1.00004
1.00009
1.00019
1.00039
1.00079
1.00163
1.00334
1.00687
1.01414
1.02924
1.06096
1.12922
1.28563
1.67111
3.23686
2.46239
2.64393
2.76286
2.8025
2.80566
2.79021
2.77863
2.77789
2.8173
2.8667
2.75459
1
1
1
1
1
1
1
1
1
1
1
1.00001
1.00001
1.00002
1.00004
1.00009
1.00019
1.00039
1.00079
1.00163
1.00334
1.00687
1.01415
1.02926
1.06101
1.12932
1.28581
1.67288
3.23216
2.46863
2.64852
2.76579
2.80327
2.80328
2.78737
2.77805
2.77732
2.8158
2.92676
2.86293
1
1
1
1
1
1
1
1
1
1
1
1.00001
1.00001
1.00002
1.00004
1.00009
1.00019
1.00039
1.00079
1.00163
1.00335
1.00688
1.01416
1.02929
1.06105
1.12943
1.286
1.67478
3.22691
2.47571
2.65372
2.76835
2.80378
2.80069
2.78425
2.77615
2.77725
2.81922
2.9669
2.90199
1
1
1
1
1
1
1
1
1
1
1
1.00001
1.00001
1.00002
1.00004
1.00009
1.00019
1.00039
1.00079
1.00163
1.00335
1.00688
1.01417
1.02931
1.0611
1.12954
1.28619
1.6768
3.22108
2.48366
2.65941
2.77053
2.80421
2.79771
2.78102
2.77404
2.77756
2.8119
2.94221
2.90639
1
1
1
1
1
1
1
1
1
1
1
1.00001
1.00001
1.00002
1.00004
1.00009
1.00019
1.00039
1.00079
1.00163
1.00335
1.00689
1.01418
1.02933
1.06114
1.12964
1.28638
1.67891
3.2146
2.49254
2.66551
2.77239
2.80435
2.79438
2.77735
2.77058
2.77375
2.79814
2.9054
2.89047
1
1
1
1
1
1
1
1
1
1
1
1.00001
1.00001
1.00002
1.00004
1.00009
1.00019
1.00039
1.00079
1.00163
1.00335
1.00689
1.01419
1.02935
1.06119
1.12974
1.28655
1.68106
3.20743
2.50233
2.67185
2.77411
2.80414
2.79118
2.77284
2.76634
2.7697
2.79113
2.87652
2.86885
1
1
1
1
1
1
1
1
1
1
1
1.00001
1.00001
1.00002
1.00004
1.00009
1.00019
1.00039
1.0008
1.00163
1.00335
1.00689
1.0142
1.02937
1.06123
1.12985
1.28672
1.68326
3.19952
2.5129
2.67845
2.77609
2.80342
2.78838
2.76759
2.76125
2.76385
2.78946
2.85169
2.85919
1
1
1
1
1
1
1
1
1
1
1
1.00001
1.00001
1.00002
1.00004
1.00009
1.00019
1.00039
1.0008
1.00163
1.00336
1.0069
1.01421
1.02939
1.06127
1.12995
1.28689
1.68547
3.19083
2.52413
2.68519
2.77827
2.80239
2.78539
2.76234
2.75647
2.75878
2.77534
2.83108
2.83678
1
1
1
1
1
1
1
1
1
1
1
1.00001
1.00001
1.00002
1.00004
1.00009
1.00019
1.00039
1.0008
1.00164
1.00336
1.0069
1.01422
1.02941
1.06132
1.13005
1.28704
1.6877
3.18138
2.53587
2.69196
2.78063
2.80145
2.78184
2.75765
2.75107
2.75499
2.76168
2.81409
2.80744
1
1
1
1
1
1
1
1
1
1
1
1.00001
1.00001
1.00002
1.00004
1.00009
1.00019
1.00039
1.0008
1.00164
1.00336
1.00691
1.01423
1.02943
1.06136
1.13015
1.2872
1.68991
3.17121
2.54808
2.6988
2.78307
2.80102
2.77744
2.75356
2.74517
2.75032
2.75596
2.79834
2.79276
1
1
1
1
1
1
1
1
1
1
1
1.00001
1.00001
1.00002
1.00004
1.00009
1.00019
1.00039
1.0008
1.00164
1.00336
1.00691
1.01424
1.02945
1.0614
1.13025
1.28735
1.6921
3.16031
2.56075
2.70554
2.78511
2.80131
2.77241
2.7498
2.73965
2.74435
2.75571
2.7831
2.7828
1
1
1
1
1
1
1
1
1
1
1
1.00001
1.00001
1.00002
1.00004
1.00009
1.00019
1.00039
1.0008
1.00164
1.00337
1.00692
1.01425
1.02947
1.06144
1.13034
1.28748
1.6942
3.1487
2.57386
2.71202
2.7866
2.80199
2.76711
2.746
2.7348
2.73812
2.75668
2.76866
2.77808
1
1
1
1
1
1
1
1
1
1
1
1.00001
1.00001
1.00002
1.00004
1.00009
1.00019
1.00039
1.0008
1.00164
1.00337
1.00692
1.01426
1.02948
1.06148
1.13042
1.28758
1.69619
3.13636
2.58738
2.71854
2.78748
2.80225
2.76231
2.74167
2.73033
2.73476
2.74865
2.75589
2.78006
1
1
1
1
1
1
1
1
1
1
1
1.00001
1.00001
1.00002
1.00004
1.00009
1.00019
1.00039
1.0008
1.00164
1.00337
1.00692
1.01426
1.0295
1.0615
1.13048
1.28765
1.69802
3.12326
2.60133
2.72467
2.78786
2.80151
2.75928
2.73648
2.72568
2.73397
2.74284
2.74703
2.77681
1
1
1
1
1
1
1
1
1
1
1
1.00001
1.00001
1.00002
1.00004
1.00009
1.00019
1.00039
1.0008
1.00164
1.00337
1.00693
1.01427
1.0295
1.06152
1.13052
1.28768
1.69967
3.10944
2.61556
2.73047
2.78813
2.79773
2.75882
2.73037
2.72112
2.73282
2.73946
2.74282
2.74681
1
1
1
1
1
1
1
1
1
1
1
1.00001
1.00001
1.00002
1.00004
1.00009
1.00019
1.00039
1.0008
1.00164
1.00337
1.00693
1.01427
1.02951
1.06152
1.13054
1.28766
1.7011
3.09489
2.6299
2.73666
2.78844
2.79036
2.76366
2.72373
2.71869
2.73024
2.73823
2.7478
2.73354
1
1
1
1
1
1
1
1
1
1
1
1.00001
1.00001
1.00002
1.00004
1.00009
1.00019
1.00039
1.0008
1.00164
1.00337
1.00692
1.01426
1.0295
1.06152
1.13053
1.28759
1.70226
3.0795
2.64449
2.74255
2.7883
2.7837
2.77292
2.71786
2.71905
2.72441
2.74018
2.75481
2.72316
1
1
1
1
1
1
1
1
1
1
1
1.00001
1.00001
1.00002
1.00004
1.00009
1.00019
1.00039
1.0008
1.00164
1.00337
1.00692
1.01426
1.02949
1.06149
1.13048
1.28741
1.70304
3.06317
2.65932
2.74665
2.78736
2.77752
2.75802
2.71233
2.72311
2.71693
2.74136
2.72771
2.71542
1
1
1
1
1
1
1
1
1
1
1
1.00001
1.00001
1.00002
1.00004
1.00009
1.00019
1.00039
1.0008
1.00164
1.00336
1.00691
1.01424
1.02946
1.06143
1.13036
1.2871
1.70332
3.04581
2.67362
2.75066
2.78592
2.77171
2.74394
2.71062
2.71338
2.71247
2.72188
2.70532
2.71765
1
1
1
1
1
1
1
1
1
1
1
1.00001
1.00001
1.00002
1.00004
1.00009
1.00019
1.00039
1.0008
1.00163
1.00336
1.0069
1.01422
1.02941
1.06134
1.13018
1.28665
1.70294
3.02753
2.68772
2.75434
2.78425
2.76584
2.73456
2.71957
2.69943
2.70222
2.70841
2.69698
2.74803
1
1
1
1
1
1
1
1
1
1
1
1.00001
1.00001
1.00002
1.00004
1.00009
1.00019
1.00039
1.00079
1.00163
1.00335
1.00689
1.01419
1.02936
1.06122
1.12992
1.28608
1.70167
3.01184
2.70795
2.75468
2.78079
2.75872
2.72679
2.73263
2.68986
2.69083
2.69595
2.69651
2.77118
1
1
1
1
1
1
1
1
1
1
1
1.00001
1.00001
1.00002
1.00004
1.00009
1.00019
1.00039
1.00079
1.00163
1.00334
1.00687
1.01416
1.02929
1.06107
1.1296
1.28539
1.69923
3.00295
2.72454
2.75203
2.77617
2.75097
2.71851
2.71388
2.68558
2.68158
2.68215
2.69842
2.76686
1
1
1
1
1
1
1
1
1
1
1
1.00001
1.00001
1.00002
1.00004
1.00009
1.00019
1.00039
1.00079
1.00162
1.00333
1.00685
1.01411
1.02919
1.06086
1.12914
1.2844
1.69565
2.99373
2.7341
2.75192
2.7712
2.74345
2.71019
2.6943
2.69155
2.67337
2.66891
2.6465
2.67555
1
1
1
1
1
1
1
1
1
1
1
1.00001
1.00001
1.00002
1.00004
1.00009
1.00019
1.00038
1.00079
1.00162
1.00332
1.00682
1.01405
1.02905
1.06057
1.12852
1.28304
1.69082
2.98387
2.7402
2.75263
2.76786
2.73416
2.69972
2.68509
2.69715
2.66855
2.65308
2.62479
2.64496
1
1
1
1
1
1
1
1
1
1
1
1.00001
1.00001
1.00002
1.00004
1.00009
1.00019
1.00038
1.00078
1.0016
1.0033
1.00678
1.01396
1.02887
1.06018
1.12767
1.28118
1.68455
2.97344
2.7441
2.75413
2.7633
2.72778
2.69029
2.67906
2.66709
2.67109
2.63025
2.61046
2.6223
1
1
1
1
1
1
1
1
1
1
1
1.00001
1.00001
1.00002
1.00004
1.00009
1.00018
1.00038
1.00077
1.00159
1.00326
1.00671
1.01383
1.02861
1.05965
1.12653
1.27869
1.6765
2.9629
2.74554
2.75466
2.75547
2.71883
2.67958
2.67019
2.64791
2.64749
2.61546
2.60578
2.60842
1
1
1
1
1
1
1
1
1
1
1
1
1.00001
1.00002
1.00004
1.00009
1.00018
1.00037
1.00076
1.00157
1.00322
1.00663
1.01366
1.02826
1.05892
1.12498
1.27533
1.66609
2.95211
2.74593
2.75269
2.75124
2.71287
2.66966
2.66108
2.6347
2.61816
2.60945
2.60302
2.60075
1
1
1
1
1
1
1
1
1
1
1
1
1.00001
1.00002
1.00004
1.00009
1.00018
1.00036
1.00075
1.00154
1.00316
1.00651
1.01342
1.02778
1.05793
1.12288
1.27079
1.65243
2.94118
2.74497
2.74703
2.7411
2.70439
2.65863
2.65128
2.61745
2.6057
2.59713
2.60006
2.59175
1
1
1
1
1
1
1
1
1
1
1
1
1.00001
1.00002
1.00004
1.00008
1.00017
1.00036
1.00073
1.0015
1.00309
1.00636
1.01311
1.02713
1.0566
1.12005
1.26466
1.63446
2.93061
2.74186
2.74233
2.73396
2.69966
2.64926
2.64128
2.61054
2.59341
2.59047
2.59232
2.57264
1
1
1
1
1
1
1
1
1
1
1
1
1.00001
1.00002
1.00004
1.00008
1.00017
1.00034
1.00071
1.00145
1.00298
1.00614
1.01267
1.02624
1.05475
1.1161
1.2561
1.60866
2.91825
2.73499
2.73116
2.71911
2.69165
2.64864
2.63403
2.59988
2.58605
2.59573
2.59019
2.53941
1
1
1
1
1
1
1
1
1
1
1
1
1.00001
1.00002
1.00004
1.00008
1.00016
1.00033
1.00067
1.00139
1.00285
1.00587
1.01212
1.02509
1.05237
1.11103
1.24521
1.57759
2.92491
2.71996
2.73287
2.71583
2.69191
2.64761
2.63358
2.57819
2.58674
2.62235
2.53047
2.49934
1
1
1
1
1
1
1
1
1
1
1
1
1.00001
1.00002
1.00003
1.00007
1.00013
1.00027
1.00056
1.00116
1.00238
1.00488
1.01005
1.02074
1.04306
1.09031
1.1971
1.41555
2.76748
2.51116
2.56068
2.61955
2.65227
2.62894
2.61592
2.5894
2.56918
2.48609
2.42785
2.45361
1
1
1
1
1
1
1
1
1
1
1
1
1.00001
1.00001
1.00002
1.00005
1.0001
1.00021
1.00042
1.00087
1.00179
1.00367
1.00756
1.01559
1.03228
1.06742
1.14419
1.31481
1.94901
2.73888
2.68678
2.65553
2.65122
2.61254
2.59216
2.58097
2.54066
2.49648
2.42965
2.34149
1
1
1
1
1
1
1
1
1
1
1
1
1
1.00001
1.00002
1.00003
1.00006
1.00013
1.00027
1.00054
1.00111
1.00228
1.00469
1.00963
1.01984
1.04108
1.08663
1.1806
1.53731
2.57931
2.49862
2.55944
2.59516
2.59896
2.5595
2.536
2.49774
2.4537
2.35983
2.30285
1
1
1
1
1
1
1
1
1
1
1
1
1
1.00001
1.00001
1.00002
1.00005
1.0001
1.0002
1.00042
1.00086
1.00176
1.00361
1.00742
1.0153
1.03166
1.06619
1.14021
1.32486
1.82861
2.62183
2.61682
2.60792
2.595
2.55187
2.51742
2.4785
2.41731
2.35007
2.2854
1
1
1
1
1
1
1
1
1
1
1
1
1
1
1.00001
1.00001
1.00003
1.00006
1.00013
1.00026
1.00053
1.00109
1.00223
1.00457
1.00939
1.01934
1.04005
1.08416
1.17888
1.47711
2.52039
2.4803
2.52517
2.54469
2.52006
2.49515
2.45921
2.4014
2.32781
2.30911
1
1
1
1
1
1
1
1
1
1
1
1
1
1
1.00001
1.00001
1.00002
1.00005
1.0001
1.0002
1.0004
1.00083
1.0017
1.0035
1.0072
1.01483
1.03069
1.06409
1.13599
1.30791
1.80127
2.57565
2.58116
2.5603
2.53266
2.49359
2.45051
2.3913
2.32435
2.30568
1
1
1
1
1
1
1
1
1
1
1
1
1
1
1
1.00001
1.00001
1.00003
1.00006
1.00012
1.00025
1.00052
1.00106
1.00216
1.00444
1.00912
1.01879
1.03889
1.08168
1.17313
1.45703
2.44617
2.45227
2.4869
2.48198
2.45605
2.42049
2.39677
2.34779
2.27961
1
1
1
1
1
1
1
1
1
1
1
1
1
1
1
1.00001
1.00001
1.00002
1.00004
1.00009
1.00019
1.00038
1.00078
1.00161
1.0033
1.00679
1.01399
1.02893
1.06036
1.12791
1.28688
1.76319
2.4755
2.54057
2.50183
2.47267
2.44307
2.40076
2.33138
2.25584
1
1
1
1
1
1
1
1
1
1
1
1
1
1
1
1
1.00001
1.00001
1.00003
1.00005
1.00011
1.00023
1.00046
1.00095
1.00195
1.00399
1.00819
1.01684
1.03481
1.07303
1.15293
1.41834
2.29936
2.35711
2.43373
2.44664
2.43634
2.39585
2.3169
2.26869
1
1
1
1
1
1
1
1
1
1
1
1
1
1
1
1
1
1.00001
1.00002
1.00004
1.00007
1.00015
1.00031
1.00064
1.0013
1.00267
1.00548
1.01126
1.02323
1.04823
1.10156
1.22091
1.66877
2.28332
2.33173
2.33403
2.34065
2.32232
2.25551
2.26753
1
1
1
1
1
1
1
1
1
1
1
1
1
1
1
1
1
1.00001
1.00001
1.00002
1.00004
1.00009
1.00018
1.00037
1.00076
1.00157
1.00321
1.00659
1.01357
1.02803
1.05873
1.12083
1.33055
1.79249
2.27182
2.3023
2.29613
2.27532
2.19947
2.19938
1
1
1
1
1
1
1
1
1
1
1
1
1
1
1
1
1
1
1
1.00001
1.00002
1.00004
1.00008
1.00017
1.00035
1.00072
1.00147
1.00301
1.00616
1.01267
1.02619
1.05479
1.11425
1.39247
1.55726
1.9624
2.16207
2.19642
2.18095
2.14338
1
1
1
1
1
1
1
1
1
1
1
1
1
1
1
1
1
1
1
1
1.00001
1.00002
1.00003
1.00007
1.00015
1.0003
1.00061
1.00124
1.00251
1.00513
1.01039
1.02237
1.04314
1.11511
1.20733
1.415
1.93917
2.09968
2.11049
2.09595
1
1
1
1
1
1
1
1
1
1
1
1
1
1
1
1
1
1
1
1
1
1.00001
1.00001
1.00003
1.00006
1.00012
1.00025
1.00051
1.00104
1.00212
1.00433
1.00886
1.01811
1.03775
1.07704
1.16364
1.35784
1.85845
2.048
2.04775
1
1
1
1
1
1
1
1
1
1
1
1
1
1
1
1
1
1
1
1
1
1
1.00001
1.00001
1.00002
1.00005
1.0001
1.0002
1.00041
1.00084
1.00172
1.0035
1.00712
1.01454
1.02995
1.06153
1.12959
1.28977
1.82834
2.02612
1
1
1
1
1
1
1
1
1
1
1
1
1
1
1
1
1
1
1
1
1
1
1
1
1.00001
1.00001
1.00002
1.00005
1.0001
1.0002
1.0004
1.00082
1.00165
1.00333
1.00673
1.01398
1.02732
1.06024
1.11025
1.33612
1
1
1
1
1
1
1
1
1
1
1
1
1
1
1
1
1
1
1
1
1
1
1
1
1
1.00001
1.00002
1.00004
1.00007
1.00015
1.00031
1.00063
1.00128
1.00262
1.00535
1.01111
1.02214
1.05171
1.09029
1.35686
1
1
1
1
1
1
1
1
1
1
1
1
1
1
1
1
1
1
1
1
1
1
1
1
1
1
1.00001
1.00002
1.00003
1.00007
1.00014
1.00028
1.00058
1.0012
1.00247
1.00511
1.01027
1.02303
1.04154
1.13139
1
1
1
1
1
1
1
1
1
1
1
1
1
1
1
1
1
1
1
1
1
1
1
1
1
1
1.00001
1.00001
1.00002
1.00004
1.00009
1.00018
1.00038
1.00077
1.00157
1.00321
1.00658
1.01354
1.02796
1.05815
1
1
1
1
1
1
1
1
1
1
1
1
1
1
1
1
1
1
1
1
1
1
1
1
1
1
1
1.00001
1.00002
1.00004
1.00008
1.00016
1.00032
1.00065
1.00133
1.00273
1.00561
1.01139
1.02521
1.04706
1
1
1
1
1
1
1
1
1
1
1
1
1
1
1
1
1
1
1
1
1
1
1
1
1
1
1
1.00001
1.00001
1.00003
1.00005
1.00011
1.00022
1.00045
1.00091
1.00184
1.00383
1.00753
1.01746
1.03006
1
1
1
1
1
1
1
1
1
1
1
1
1
1
1
1
1
1
1
1
1
1
1
1
1
1
1
1
1.00001
1.00002
1.00004
1.00008
1.00017
1.00034
1.0007
1.00142
1.00294
1.00592
1.01318
1.0242
1
1
1
1
1
1
1
1
1
1
1
1
1
1
1
1
1
1
1
1
1
1
1
1
1
1
1
1
1.00001
1.00002
1.00003
1.00007
1.00014
1.00029
1.00059
1.00121
1.00249
1.00509
1.01095
1.02104
1
1
1
1
1
1
1
1
1
1
1
1
1
1
1
1
1
1
1
1
1
1
1
1
1
1
1
1
1.00001
1.00001
1.00002
1.00004
1.00009
1.00019
1.0004
1.00082
1.0017
1.00342
1.00753
1.0137
1
1
1
1
1
1
1
1
1
1
1
1
1
1
1
1
1
1
1
1
1
1
1
1
1
1
1
1
1
1.00001
1.00002
1.00004
1.00007
1.00015
1.00031
1.00064
1.00134
1.0027
1.00611
1.01108
1
1
1
1
1
1
1
1
1
1
1
1
1
1
1
1
1
1
1
1
1
1
1
1
1
1
1
1
1
1.00001
1.00002
1.00003
1.00006
1.00013
1.00027
1.00055
1.00114
1.00228
1.00517
1.00937
1
1
1
1
1
1
1
1
1
1
1
1
1
1
1
1
1
1
1
1
1
1
1
1
1
1
1
1
1
1.00001
1.00001
1.00002
1.00004
1.00009
1.00018
1.00037
1.00078
1.00155
1.00355
1.00619
1
1
1
1
1
1
1
1
1
1
1
1
1
1
1
1
1
1
1
1
1
1
1
1
1
1
1
1
1
1
1.00001
1.00002
1.00004
1.00008
1.00017
1.00034
1.0007
1.00142
1.00313
1.00578
1
1
1
1
1
1
1
1
1
1
1
1
1
1
1
1
1
1
1
1
1
1
1
1
1
1
1
1
1
1
1.00001
1.00002
1.00003
1.00007
1.00014
1.00028
1.00058
1.00119
1.0026
1.00497
1
1
1
1
1
1
1
1
1
1
1
1
1
1
1
1
1
1
1
1
1
1
1
1
1
1
1
1
1
1
1.00001
1.00001
1.00003
1.00006
1.00012
1.00025
1.0005
1.00102
1.00212
1.00408
1
1
1
1
1
1
1
1
1
1
1
1
1
1
1
1
1
1
1
1
1
1
1
1
1
1
1
1
1
1
1
1.00001
1.00002
1.00004
1.00009
1.00018
1.00037
1.00075
1.00161
1.00313
1
1
1
1
1
1
1
1
1
1
1
1
1
1
1
1
1
1
1
1
1
1
1
1
1
1
1
1
1
1
1
1.00001
1.00001
1.00002
1.00004
1.00009
1.00019
1.00037
1.00083
1.00149
1
1
1
1
1
1
1
1
1
1
1
1
1
1
1
1
1
1
1
1
1
1
1
1
1
1
1
1
1
1
1
1
1.00001
1.00002
1.00004
1.00008
1.00017
1.00034
1.00075
1.00138
1
1
1
1
1
1
1
1
1
1
1
1
1
1
1
1
1
1
1
1
1
1
1
1
1
1
1
1
1
1
1
1
1.00001
1.00002
1.00003
1.00007
1.00014
1.00029
1.00064
1.00117
1
1
1
1
1
1
1
1
1
1
1
1
1
1
1
1
1
1
1
1
1
1
1
1
1
1
1
1
1
1
1
1
1.00001
1.00001
1.00002
1.00005
1.0001
1.00021
1.00047
1.00085
1
1
1
1
1
1
1
1
1
1
1
1
1
1
1
1
1
1
1
1
1
1
1
1
1
1
1
1
1
1
1
1
1.00001
1.00001
1.00002
1.00005
1.00009
1.00019
1.00041
1.00079
1
1
1
1
1
1
1
1
1
1
1
1
1
1
1
1
1
1
1
1
1
1
1
1
1
1
1
1
1
1
1
1
1
1.00001
1.00002
1.00004
1.00009
1.00019
1.00039
1.00079
1
1
1
1
1
1
1
1
1
1
1
1
1
1
1
1
1
1
1
1
1
1
1
1
1
1
1
1
1
1
1
1
1
1
1.00001
1.00002
1.00003
1.00007
1.00017
1.00035
1
1
1
1
1
1
1
1
1
1
1
1
1
1
1
1
1
1
1
1
1
1
1
1
1
1
1
1
1
1
1
1
1
1
1.00001
1.00001
1.00002
1.00004
1.0001
1.00017
1
1
1
1
1
1
1
1
1
1
1
1
1
1
1
1
1
1
1
1
1
1
1
1
1
1
1
1
1
1
1
1
1
1
1.00001
1.00001
1.00002
1.00004
1.0001
1.00017
2.35355
2.36395
2.33594
1.9335
1.7372
2.06946
2.20875
2.21725
2.06933
2.01719
1.9957
1.96847
2.05437
2.65584
2.68666
2.72509
2.74757
2.73603
2.64047
2.59896
2.58355
2.56903
2.52279
2.5061
2.53286
2.5641
2.53764
2.60458
2.5783
2.54747
2.5519
2.52573
2.53015
2.592
2.58812
2.48215
2.38587
2.3324
2.17693
1.71359
2.33632
2.36797
2.31734
2.36511
2.6687
2.97182
2.19245
2.59296
2.11009
2.24797
2.5073
2.81023
2.24429
2.5185
2.5308
2.57355
2.67252
2.67298
2.65042
2.60502
2.55005
2.53764
2.49457
2.39484
2.42372
2.49781
2.51353
2.58696
2.56529
2.52236
2.53095
2.50275
2.51228
2.55324
2.54777
2.3818
2.27873
2.08838
1.93373
1.40672
2.3414
2.4049
2.44856
2.48936
2.25854
2.21083
2.10756
2.19296
2.14005
2.1708
2.17443
2.30381
2.48879
2.4606
2.46707
2.52729
2.60414
2.64597
2.63952
2.62772
2.57634
2.52608
2.45329
2.36492
2.35528
2.39557
2.41364
2.55562
2.51266
2.54633
2.73268
2.5636
2.52127
2.55943
2.55311
2.5582
2.55071
2.50549
2.93861
3.87114
2.30694
2.3832
2.4266
2.3477
2.30928
2.26199
2.21744
2.23256
2.24261
2.29153
2.33419
2.36593
2.40815
2.41506
2.4352
2.44443
2.53947
2.6162
2.62695
2.62379
2.55913
2.482
2.44186
2.35249
2.33334
2.33185
2.35836
2.47255
2.45599
2.56154
2.60517
2.57541
2.54218
2.57156
2.6234
2.58523
2.48215
2.35419
2.17015
1.63658
2.21805
2.23821
2.27151
2.21499
2.19815
2.15507
2.20276
2.25464
2.27404
2.28338
2.35319
2.39755
2.4303
2.4112
2.40628
2.3902
2.46694
2.54216
2.55795
2.56893
2.51504
2.45891
2.42374
2.33886
2.3176
2.30317
2.29903
2.36399
2.42638
2.5175
2.58552
2.5398
2.55766
2.62026
2.6915
2.56231
2.5743
2.49052
2.45092
2.05431
2.20613
2.18111
2.18788
2.18592
2.14604
2.10363
2.11499
2.18319
2.19716
2.2377
2.30728
2.36716
2.3727
2.38291
2.38409
2.35262
2.43614
2.45153
2.49765
2.52961
2.50621
2.4972
2.4366
2.35139
2.31348
2.30127
2.31555
2.36684
2.47599
2.57155
2.61774
2.60914
2.63282
2.60526
2.63371
2.54358
2.51421
2.48558
2.60122
2.36715
2.19364
2.15422
2.15252
2.15382
2.10747
2.08939
2.10701
2.13903
2.1509
2.17253
2.21543
2.28344
2.32473
2.33954
2.3009
2.34994
2.41289
2.38751
2.42183
2.46899
2.49517
2.51612
2.49074
2.38512
2.29613
2.23895
2.22292
2.26929
2.31356
2.36446
2.47884
2.59602
2.66903
2.70241
2.70066
2.6119
2.49501
2.43587
2.44654
2.23155
2.16782
2.13709
2.14368
2.11318
2.06691
2.05889
2.09118
2.11739
2.11904
2.12147
2.13906
2.20197
2.26308
2.27552
2.3175
2.35687
2.35222
2.3565
2.35779
2.38034
2.4749
2.50951
2.46602
2.36759
2.29097
2.20401
2.19301
2.24993
2.29498
2.32513
2.43835
2.55425
2.58838
2.6519
2.63436
2.65064
2.59017
2.61196
2.55209
2.25895
2.14917
2.13615
2.13299
2.08021
2.03719
2.06424
2.06598
2.07798
2.07549
2.07845
2.10157
2.1532
2.21762
2.28062
2.3066
2.31244
2.3361
2.31573
2.27251
2.30199
2.38554
2.45321
2.46211
2.43388
2.33865
2.25959
2.20619
2.18465
2.2169
2.23072
2.2876
2.45958
2.51548
2.52276
2.61998
2.72357
2.61645
2.54853
2.47092
2.45913
2.16767
2.14164
2.11555
2.04989
2.04177
2.07175
2.08893
2.08075
2.07622
2.08039
2.10332
2.12693
2.15535
2.21371
2.25944
2.27945
2.29682
2.24779
2.21493
2.22622
2.23464
2.32015
2.39201
2.38984
2.35894
2.24616
2.17954
2.13955
2.14745
2.19958
2.24753
2.34391
2.43188
2.46587
2.4896
2.58452
2.67002
2.60984
2.60543
2.55837
2.14933
2.13493
2.09253
2.04261
2.05494
2.07882
2.0786
2.05365
2.04598
2.05042
2.06951
2.07428
2.09236
2.13556
2.21029
2.24764
2.22493
2.21715
2.20012
2.16752
2.16263
2.22183
2.33007
2.34236
2.32421
2.23332
2.1625
2.13471
2.13151
2.14003
2.18462
2.22674
2.26939
2.35937
2.4879
2.45481
2.49609
2.6563
2.55099
2.4827
2.1056
2.11015
2.0485
2.046
2.05663
2.05815
2.04695
1.99463
1.98515
1.99795
2.03473
2.05917
2.07047
2.09479
2.13526
2.18584
2.20261
2.17483
2.16652
2.13301
2.11022
2.14548
2.25887
2.33079
2.34156
2.27104
2.16834
2.12835
2.10374
2.1284
2.17662
2.20373
2.23153
2.31403
2.31741
2.47043
2.38669
2.37686
2.42666
2.60413
2.05807
2.07978
2.04521
2.047
2.05386
2.04036
2.00915
1.9624
1.96522
1.98238
2.02246
2.05525
2.07093
2.06397
2.08837
2.14394
2.13995
2.15671
2.15102
2.09872
2.08254
2.08833
2.16451
2.23885
2.25772
2.22934
2.18656
2.11773
2.07879
2.14592
2.18354
2.19155
2.25234
2.2478
2.27606
2.41737
2.42815
2.3121
2.43226
2.27082
2.01214
2.04671
2.04172
2.03107
2.05121
2.05317
2.00669
1.95381
1.95053
1.9731
2.00192
2.03155
2.03917
2.04706
2.04716
2.08014
2.12114
2.14408
2.12496
2.07369
2.04031
2.05726
2.15183
2.21248
2.2168
2.172
2.14061
2.09056
2.08226
2.09071
2.09457
2.11956
2.24075
2.28841
2.24338
2.24563
2.28021
2.30516
2.29755
2.21828
1.98397
1.9975
2.01327
2.0107
1.99796
2.00039
2.02098
2.00607
1.93433
1.94976
1.9712
1.9946
2.00537
2.03565
2.03243
2.0496
2.08774
2.10572
2.10226
2.06272
2.02455
2.05607
2.0704
2.15615
2.2148
2.22173
2.10744
2.05852
2.06564
2.16147
2.08221
2.09003
2.16505
2.15882
2.15558
2.21808
2.22595
2.1853
2.20469
2.37996
1.97847
1.97795
1.98662
1.97297
1.94183
1.96894
1.9604
1.97749
1.95836
1.91993
1.93899
1.96563
1.99121
2.03995
2.02009
2.02069
2.04935
2.07444
2.09415
2.08358
2.04881
2.00428
2.06135
2.06934
2.10473
2.21919
2.1733
2.09368
2.16261
2.17178
2.09682
2.10046
2.15539
2.10114
2.08287
2.20329
2.32271
2.14545
2.0909
2.15563
1.84177
1.89912
1.93634
1.93887
1.91978
1.91159
1.91479
1.91687
1.98712
1.97844
1.95805
1.96583
2.00341
2.03043
1.99149
2.00187
2.02883
2.07568
2.1027
2.08963
2.04729
2.04832
1.9576
1.98314
2.1722
2.23274
2.16149
2.1793
2.26057
2.18566
2.12094
2.16038
2.11632
2.03814
2.08177
2.10024
2.10118
2.23882
2.09938
2.09414
1.50807
1.82366
1.8606
1.8784
1.88173
1.87111
1.87755
1.9023
1.99541
1.97143
1.95592
1.99205
2.0259
1.98689
1.97739
1.9864
2.04769
2.0883
2.08821
2.06653
2.07533
2.06195
1.95549
1.99025
2.15938
2.18945
2.15966
2.17076
2.28235
2.21318
2.07457
2.06517
2.10383
2.07035
2.0559
2.03166
2.07971
2.13708
2.07905
2.06098
1.55415
1.8917
1.86617
1.85594
1.84019
1.83854
1.84952
1.89288
1.96311
1.94251
1.94461
2.02038
1.96904
1.96141
1.97262
1.99849
2.0178
2.06161
2.05226
2.02807
2.08775
2.08421
2.01614
2.00215
1.99074
2.03762
2.23809
2.22388
2.18476
2.20539
2.10552
2.09749
2.1061
2.08343
2.03664
2.07103
2.08322
2.03705
2.02606
2.11953
1.5408
1.7297
1.75252
1.80366
1.82157
1.81536
1.83388
1.9114
1.92224
1.89076
1.93157
1.97184
1.92434
1.96243
1.97604
1.96497
1.97197
2.02036
2.02567
2.03802
2.04937
2.13637
2.10291
1.97987
1.97514
2.0902
2.1532
2.12373
2.22753
2.17389
2.17016
2.20778
2.20208
2.20902
2.12705
2.06456
2.05516
2.05137
2.11332
2.10975
1.30145
1.52761
1.71529
1.73753
1.7758
1.79256
1.82734
1.88362
1.83875
1.86095
1.92707
1.89197
1.9071
1.94755
1.958
1.94915
1.94554
1.98374
2.01893
2.03867
2.09352
2.14409
2.0375
1.99313
2.01756
2.09601
2.02753
2.10416
2.1197
2.09604
2.16523
2.18633
2.07926
2.06368
2.20937
2.17968
2.10747
2.114
2.05935
1.96446
1.17822
1.47842
1.77052
1.74389
1.75635
1.76746
1.80324
1.79554
1.82254
1.86549
1.84185
1.8613
1.92077
1.92843
1.93587
1.94493
1.93146
1.97735
1.99786
2.02517
2.07869
2.07441
2.05489
2.04144
2.04218
2.03419
2.01061
2.07315
2.06183
2.07436
2.15147
2.12163
2.00515
2.0002
2.00517
2.09748
2.09291
2.04316
1.96115
1.91988
1.12643
1.48588
1.66803
1.70752
1.73754
1.752
1.74264
1.76494
1.82652
1.81892
1.81404
1.8445
1.9005
1.91217
1.93023
1.91253
1.93345
1.97652
1.95366
1.99647
2.03929
2.06318
2.05351
2.05516
2.06092
2.03139
2.02846
2.01697
2.0365
2.01262
2.02735
2.07383
1.99448
1.939
1.93975
1.97993
2.00799
2.0824
1.99555
1.81851
1.08443
1.30901
1.5047
1.6772
1.7078
1.7144
1.72092
1.76116
1.7882
1.78115
1.81366
1.85085
1.88675
1.92982
1.93504
1.9083
1.93049
1.95119
1.90668
1.93221
2.06507
2.04124
1.99699
2.05927
2.08704
2.03059
2.01497
2.00593
1.99921
1.95959
1.92882
1.95186
2.01838
2.00315
1.96779
1.95907
1.9264
1.87374
1.91163
1.96248
1.07225
1.20071
1.45596
1.69829
1.70589
1.71858
1.73731
1.75875
1.76983
1.77767
1.78288
1.79349
1.85668
1.93131
1.96648
1.97576
1.93335
1.8864
1.87359
1.97499
2.03111
1.93912
1.99004
2.13339
2.07948
1.99197
2.03586
1.97757
1.92654
1.97552
1.94551
1.86695
1.90186
1.96397
1.90154
1.86167
1.88283
1.89954
1.87776
1.91992
1.06009
1.15292
1.46775
1.63403
1.65131
1.69638
1.71975
1.74151
1.74794
1.74433
1.74792
1.77412
1.85051
1.93488
1.95443
1.96984
1.93515
1.87219
1.88213
2.01108
1.92882
1.90937
2.00337
2.08224
1.98899
1.96324
2.02426
1.9472
1.95796
1.89291
1.89188
1.94478
1.89224
1.92088
1.8836
1.80721
1.8246
1.9534
1.87139
1.80658
1.04101
1.09706
1.32323
1.49173
1.62326
1.68807
1.7182
1.7232
1.71968
1.71831
1.73631
1.77686
1.85395
1.92147
1.93319
1.95633
1.87108
1.87862
1.95451
1.87618
1.85861
1.98019
2.0812
1.98272
1.94411
1.94065
1.91442
1.96407
1.88402
1.84973
1.82798
1.88397
1.92058
1.93914
1.91466
1.84685
1.7973
1.85533
1.87372
1.74157
1.03246
1.08236
1.20984
1.44819
1.64822
1.67183
1.68431
1.69674
1.69482
1.71679
1.74966
1.78137
1.8536
1.8847
1.91161
1.89399
1.88628
1.89935
1.83132
1.82973
1.87571
1.98592
2.023
1.89771
1.89566
1.94326
2.0526
1.98751
1.88166
1.87973
1.91066
1.88214
1.81472
1.7921
1.78234
1.80213
1.81029
1.77355
1.77344
1.83906
1.02668
1.06821
1.18348
1.43323
1.60304
1.64708
1.65368
1.6653
1.69205
1.71726
1.73802
1.77748
1.83018
1.84797
1.85722
1.8897
1.90353
1.83311
1.81583
1.89381
1.89632
1.92807
1.87652
1.83753
1.91336
2.02411
2.02066
1.87687
1.87671
1.88238
1.89384
1.86373
1.76131
1.75307
1.75581
1.75072
1.77544
1.83075
1.80223
1.78794
1.01894
1.04703
1.1136
1.22003
1.32559
1.57833
1.63357
1.65664
1.67906
1.69154
1.71901
1.76586
1.79996
1.82134
1.83495
1.89747
1.83842
1.79791
1.85125
1.89087
1.84917
1.88296
1.81357
1.84352
1.9372
1.91524
1.92832
1.85814
1.81199
1.80941
1.77273
1.73669
1.77362
1.83646
1.75965
1.71745
1.70471
1.75567
1.82523
1.69739
1.01414
1.04141
1.06801
1.11861
1.45271
1.60731
1.63559
1.64917
1.66002
1.67935
1.71416
1.7553
1.78663
1.82003
1.8752
1.81265
1.77318
1.82306
1.8564
1.81171
1.84857
1.77764
1.74992
1.7832
1.90749
2.03093
1.8386
1.77273
1.79424
1.84409
1.77118
1.71137
1.69464
1.77693
1.73329
1.69485
1.68818
1.73023
1.78865
1.68267
1.00828
1.02166
1.04952
1.10738
1.29871
1.44993
1.61937
1.62809
1.65175
1.69659
1.74041
1.76818
1.79196
1.81478
1.77515
1.75883
1.79549
1.80912
1.78201
1.81608
1.75974
1.74313
1.78256
1.88622
1.97514
1.82411
1.72873
1.7293
1.72341
1.80458
1.78452
1.75391
1.74651
1.69932
1.73352
1.67026
1.68512
1.69848
1.6543
1.71681
1.00759
1.01993
1.04539
1.09853
1.24265
1.43239
1.64601
1.63488
1.64075
1.67834
1.70082
1.72909
1.75386
1.72824
1.74308
1.76606
1.75311
1.75313
1.78155
1.77106
1.74557
1.82381
1.8565
1.81769
1.7383
1.72331
1.75467
1.78687
1.80749
1.77428
1.73122
1.70169
1.75797
1.70866
1.67442
1.70504
1.70967
1.63588
1.61859
1.74424
1.00643
1.01665
1.03762
1.08149
1.183
1.42611
1.59581
1.58753
1.60922
1.62295
1.65057
1.68741
1.70108
1.71991
1.75355
1.72751
1.7085
1.73247
1.75141
1.75783
1.80485
1.82176
1.76618
1.76086
1.72499
1.68514
1.6672
1.65389
1.72739
1.74947
1.6919
1.66611
1.67348
1.73965
1.67192
1.6641
1.71838
1.65012
1.63013
1.67571
1.00468
1.01204
1.02599
1.05707
1.116
1.2867
1.38997
1.54293
1.57635
1.58815
1.62361
1.67562
1.71257
1.73301
1.71825
1.68528
1.71073
1.73795
1.75029
1.74286
1.74374
1.76143
1.71005
1.69273
1.6879
1.71419
1.68208
1.6585
1.70615
1.63767
1.62077
1.68573
1.69329
1.71471
1.71005
1.63006
1.64459
1.64324
1.65016
1.66927
1.0038
1.00987
1.02202
1.04896
1.09721
1.19762
1.38458
1.50881
1.55657
1.58419
1.62374
1.67559
1.69706
1.6916
1.65883
1.67933
1.72295
1.74277
1.77593
1.76463
1.71165
1.70464
1.68236
1.69035
1.70966
1.69454
1.65905
1.69091
1.64911
1.59733
1.59494
1.65441
1.71002
1.69671
1.68474
1.60459
1.61574
1.60192
1.621
1.71372
1.00326
1.0091
1.01949
1.03919
1.07955
1.15877
1.42217
1.42405
1.57621
1.63203
1.66182
1.6632
1.67487
1.71168
1.72442
1.74212
1.76512
1.7874
1.73115
1.69773
1.68706
1.72569
1.74853
1.67438
1.63565
1.63466
1.64433
1.63603
1.6775
1.6467
1.61378
1.66383
1.67567
1.62423
1.63235
1.61876
1.59094
1.64004
1.69398
1.62882
1.00178
1.00561
1.01373
1.03079
1.04616
1.07976
1.14915
1.44477
1.62224
1.65212
1.72849
1.68763
1.73695
1.74431
1.73169
1.72285
1.72815
1.73541
1.71638
1.70995
1.70255
1.70946
1.71284
1.67134
1.63262
1.60394
1.60378
1.59574
1.62566
1.66434
1.63208
1.65667
1.60859
1.58687
1.62683
1.64569
1.58292
1.58759
1.66511
1.61776
1.00108
1.00282
1.00587
1.01165
1.02331
1.04712
1.0979
1.22228
1.45639
1.83016
1.73502
1.73677
1.79873
1.79916
1.75029
1.71254
1.71395
1.73722
1.76391
1.79967
1.7672
1.69723
1.65711
1.63445
1.67231
1.70184
1.64015
1.63416
1.62211
1.61467
1.61934
1.6746
1.67813
1.62869
1.65108
1.67876
1.60594
1.58211
1.60451
1.64076
1.00113
1.00282
1.00558
1.01137
1.02348
1.05114
1.10047
1.2511
1.47078
1.7272
1.76684
1.75549
1.78815
1.78107
1.73901