/*--------------------------------*- C++ -*----------------------------------*\
  =========                 |
  \\      /  F ield         | OpenFOAM: The Open Source CFD Toolbox
   \\    /   O peration     | Website:  https://openfoam.org
    \\  /    A nd           | Version:  6.0
     \\/     M anipulation  |
\*---------------------------------------------------------------------------*/
FoamFile
{
    version     2.0;
    format      ascii;
    class       volScalarField;
    location    "3.5";
    object      T;
}
// * * * * * * * * * * * * * * * * * * * * * * * * * * * * * * * * * * * * * //

dimensions      [0 0 0 1 0 0 0];

internalField   nonuniform List<scalar> 
192000
(
0.896125
0.86149
0.844608
0.833234
0.825426
0.819532
0.814908
0.811179
0.808073
0.80544
0.803169
0.801213
0.799494
0.798118
0.797616
0.79773
0.79937
0.802072
0.816297
0.841732
0.934303
1.11471
1.6637
2.09749
2.20226
2.2025
2.19593
2.18666
2.182
2.18354
2.19465
2.20417
2.21766
2.22625
2.24513
2.26137
2.30168
2.33336
2.46492
2.25855
0.896127
0.861486
0.844615
0.833228
0.825434
0.819525
0.814916
0.811171
0.808083
0.805432
0.803179
0.801204
0.799505
0.798107
0.797622
0.797723
0.799475
0.802107
0.816797
0.841091
0.936552
1.11435
1.66585
2.09316
2.19804
2.1983
2.19161
2.18242
2.17777
2.17928
2.19017
2.19935
2.21257
2.22103
2.23963
2.25572
2.29577
2.32718
2.45983
2.24843
0.896127
0.861486
0.844615
0.833228
0.825434
0.819525
0.814916
0.811171
0.808083
0.805432
0.80318
0.801204
0.799505
0.798107
0.797622
0.797722
0.799473
0.802098
0.816778
0.841007
0.936407
1.11365
1.6652
2.09303
2.19815
2.19874
2.19206
2.18295
2.17862
2.18015
2.19133
2.20039
2.21356
2.22206
2.24076
2.2569
2.29695
2.32844
2.46075
2.24975
0.896125
0.86149
0.844608
0.833234
0.825426
0.819532
0.814908
0.811179
0.808074
0.80544
0.80317
0.801213
0.799495
0.798117
0.797615
0.797729
0.799363
0.802054
0.816236
0.84152
0.9339
1.11273
1.66191
2.09736
2.20355
2.20466
2.19809
2.18908
2.18547
2.18711
2.19909
2.20849
2.22188
2.23061
2.24982
2.26626
2.30676
2.33873
2.47001
2.26394
0.896128
0.861485
0.844612
0.833229
0.82543
0.819528
0.814912
0.811174
0.808078
0.805435
0.803174
0.801208
0.799498
0.798112
0.797618
0.797716
0.799337
0.802335
0.816218
0.84307
0.933611
1.11641
1.66001
2.09694
2.20427
2.20592
2.19948
2.19072
2.18778
2.18954
2.20208
2.21159
2.22493
2.23379
2.2533
2.26992
2.31065
2.34287
2.47384
2.27052
0.896125
0.86149
0.844608
0.833234
0.825426
0.819532
0.814908
0.811179
0.808074
0.80544
0.80317
0.801213
0.799495
0.798116
0.797612
0.797725
0.79935
0.802059
0.816138
0.841415
0.933101
1.11103
1.65734
2.09695
2.20551
2.20738
2.20093
2.1923
2.18982
2.19161
2.20467
2.21397
2.22734
2.23629
2.25596
2.2727
2.31351
2.34589
2.47616
2.27482
0.896132
0.86148
0.84462
0.833223
0.825438
0.81952
0.814921
0.811166
0.808087
0.805427
0.803184
0.801199
0.799509
0.7981
0.797621
0.797707
0.799413
0.802502
0.816609
0.842112
0.934906
1.11299
1.65749
2.09211
2.20203
2.20413
2.19777
2.18947
2.18734
2.18921
2.20237
2.21141
2.22438
2.23327
2.25286
2.26954
2.31016
2.34246
2.47261
2.26982
0.896129
0.861483
0.844618
0.833226
0.825436
0.819522
0.814918
0.811168
0.808085
0.805429
0.803182
0.801202
0.799506
0.798103
0.797618
0.797716
0.799423
0.802221
0.816464
0.840738
0.933752
1.10687
1.6555
2.09325
2.2048
2.20682
2.20038
2.19219
2.19034
2.1922
2.20568
2.2144
2.22738
2.23627
2.25587
2.27257
2.3131
2.34538
2.47478
2.27087
0.896132
0.861479
0.844621
0.833222
0.825439
0.819519
0.814922
0.811165
0.808088
0.805426
0.803185
0.801198
0.799509
0.798097
0.797615
0.797702
0.799395
0.802425
0.816364
0.841298
0.933096
1.10544
1.65022
2.09036
2.20431
2.20665
2.20043
2.19264
2.19118
2.19318
2.20688
2.21539
2.22827
2.23719
2.2568
2.27352
2.31395
2.34627
2.47511
2.27083
0.896132
0.861479
0.844621
0.833222
0.825439
0.819519
0.814921
0.811165
0.808088
0.805426
0.803184
0.801198
0.799508
0.798096
0.797607
0.797692
0.799369
0.802371
0.816204
0.840932
0.932
1.10222
1.64457
2.088
2.20465
2.20715
2.20098
2.19357
2.19245
2.19455
2.20845
2.21679
2.22953
2.23851
2.25811
2.27483
2.31514
2.34748
2.47581
2.27073
0.896128
0.861484
0.844617
0.833227
0.825435
0.819524
0.814918
0.81117
0.808084
0.80543
0.803181
0.801202
0.799505
0.798097
0.797592
0.797684
0.799346
0.802082
0.815983
0.839737
0.930411
1.09747
1.63855
2.08686
2.20673
2.20937
2.2032
2.1961
2.1953
2.1977
2.2118
2.22005
2.23278
2.2419
2.26158
2.27834
2.31862
2.35105
2.47901
2.27272
0.896131
0.86148
0.84462
0.833223
0.825438
0.81952
0.81492
0.811166
0.808087
0.805427
0.803184
0.801198
0.799507
0.79809
0.797578
0.797657
0.79929
0.802218
0.815761
0.840002
0.92911
1.09448
1.6293
2.08197
2.20595
2.20911
2.20312
2.1966
2.19614
2.19912
2.21333
2.22153
2.23426
2.24347
2.26321
2.27999
2.32026
2.35283
2.48069
2.27364
0.896131
0.861481
0.844619
0.833224
0.825437
0.819521
0.814919
0.811167
0.808086
0.805428
0.803183
0.801199
0.799506
0.798087
0.797558
0.797633
0.799238
0.802097
0.815468
0.839332
0.927281
1.08909
1.61943
2.07702
2.2055
2.20885
2.20286
2.19675
2.19652
2.19999
2.21425
2.22237
2.23502
2.24425
2.264
2.28076
2.32092
2.35361
2.48141
2.2732
0.89613
0.861482
0.844618
0.833225
0.825436
0.819522
0.814918
0.811168
0.808085
0.805429
0.803182
0.801199
0.799505
0.798082
0.797533
0.797603
0.799174
0.801949
0.81513
0.83857
0.925153
1.08364
1.60756
2.07124
2.20504
2.20852
2.20253
2.19669
2.19662
2.20054
2.21486
2.22294
2.23551
2.24473
2.26457
2.2813
2.32129
2.35411
2.48206
2.27212
0.896124
0.861488
0.844614
0.83323
0.825433
0.819527
0.814915
0.811172
0.808083
0.805433
0.80318
0.801203
0.799502
0.798079
0.797503
0.797566
0.799097
0.801734
0.814757
0.837734
0.922782
1.07838
1.59449
2.06407
2.2039
2.20753
2.20142
2.19591
2.19596
2.20024
2.21453
2.22256
2.23495
2.24408
2.26383
2.28047
2.32025
2.35323
2.48162
2.2696
0.896124
0.86149
0.844608
0.833234
0.825426
0.819532
0.814907
0.811179
0.808074
0.80544
0.80317
0.801209
0.799491
0.798081
0.797467
0.797536
0.798943
0.801466
0.813918
0.837274
0.917793
1.07531
1.5801
2.06159
2.20751
2.21067
2.20396
2.19803
2.19782
2.20224
2.21621
2.224
2.23607
2.24502
2.26448
2.28091
2.32026
2.35329
2.48178
2.26737
0.896125
0.861489
0.844608
0.833234
0.825426
0.819532
0.814907
0.811179
0.808074
0.805439
0.80317
0.801209
0.799491
0.798074
0.797437
0.797495
0.798852
0.80134
0.813451
0.83683
0.915068
1.06773
1.55968
2.05459
2.20866
2.21259
2.20578
2.20032
2.20042
2.20532
2.21936
2.22723
2.23918
2.24801
2.2673
2.28351
2.32233
2.35527
2.48342
2.26668
0.896123
0.861492
0.844607
0.833236
0.825424
0.819534
0.814906
0.81118
0.808072
0.805441
0.803169
0.801209
0.799489
0.798068
0.797404
0.797456
0.798767
0.801156
0.812945
0.835473
0.911349
1.06054
1.53977
2.0459
2.20888
2.21333
2.20642
2.20094
2.20151
2.207
2.22148
2.22958
2.24196
2.25091
2.27058
2.28681
2.32565
2.35904
2.48814
2.26843
0.896123
0.86149
0.844611
0.833233
0.825429
0.81953
0.814912
0.811175
0.80808
0.805435
0.803177
0.801203
0.799498
0.798053
0.797377
0.797406
0.798735
0.801185
0.81279
0.834473
0.909839
1.04914
1.51388
2.02888
2.2029
2.20867
2.2024
2.19768
2.19899
2.20519
2.22011
2.2285
2.2412
2.25025
2.27006
2.28647
2.32551
2.35929
2.4899
2.26948
0.896119
0.861495
0.844608
0.833237
0.825426
0.819533
0.814909
0.811179
0.808077
0.805439
0.803175
0.801205
0.799495
0.798049
0.79734
0.797364
0.798646
0.800822
0.812187
0.832694
0.905632
1.03826
1.49118
2.01319
2.19617
2.20092
2.19423
2.1893
2.19094
2.19786
2.21389
2.22289
2.23633
2.24565
2.26588
2.28262
2.32208
2.35662
2.48885
2.26791
0.896118
0.861497
0.844602
0.833242
0.825418
0.819539
0.8149
0.811186
0.808067
0.805446
0.803164
0.801213
0.799483
0.79805
0.797296
0.797327
0.798477
0.800357
0.811153
0.831383
0.898841
1.03089
1.46531
2.00398
2.19527
2.19837
2.19095
2.1848
2.18616
2.19291
2.20873
2.2177
2.23135
2.24074
2.26108
2.27802
2.31774
2.35296
2.48728
2.26573
0.89612
0.861496
0.844602
0.83324
0.825419
0.819538
0.814901
0.811185
0.808068
0.805445
0.803166
0.801211
0.799483
0.798041
0.797263
0.797277
0.798355
0.800345
0.810569
0.830984
0.895114
1.02084
1.43549
1.98803
2.18952
2.19224
2.18494
2.17733
2.1784
2.18486
2.20016
2.20885
2.22226
2.23149
2.2515
2.26849
2.30841
2.34447
2.48164
2.26114
0.896113
0.861503
0.844596
0.833247
0.825413
0.819545
0.814895
0.811192
0.808062
0.805452
0.80316
0.801217
0.799477
0.79804
0.797222
0.797239
0.798273
0.799935
0.809838
0.829219
0.890399
1.01171
1.38586
1.97893
2.19008
2.19261
2.18486
2.17579
2.17633
2.18225
2.19661
2.20478
2.21723
2.22588
2.24468
2.26113
2.30005
2.33628
2.47465
2.25267
0.896122
0.861493
0.844605
0.833237
0.825422
0.819535
0.814904
0.811182
0.808071
0.805442
0.803169
0.801206
0.799485
0.798022
0.797193
0.797183
0.798154
0.800014
0.809028
0.828616
0.885867
1.00411
1.37126
1.96704
2.19512
2.20022
2.19059
2.17985
2.17806
2.18285
2.19614
2.20384
2.2155
2.22367
2.24133
2.25722
2.29489
2.33113
2.47013
2.24673
0.896116
0.8615
0.844598
0.833244
0.825415
0.819543
0.814897
0.81119
0.808065
0.805449
0.803163
0.801213
0.799478
0.798022
0.797153
0.797145
0.798077
0.799656
0.808371
0.82723
0.88169
0.995382
1.34908
1.94873
2.19741
2.20828
2.19773
2.18792
2.18591
2.18956
2.20126
2.20782
2.21758
2.22486
2.24094
2.25635
2.29278
2.32904
2.46876
2.24412
0.89611
0.861507
0.844593
0.833251
0.82541
0.819549
0.814892
0.811196
0.808059
0.805456
0.803158
0.801218
0.799472
0.79802
0.797112
0.797102
0.797972
0.799554
0.807595
0.826138
0.87748
0.98748
1.32844
1.93562
2.19778
2.2142
2.20446
2.19403
2.19231
2.19559
2.20683
2.21359
2.22318
2.23
2.24458
2.25877
2.29311
2.32939
2.46937
2.2445
0.896102
0.861517
0.844584
0.833261
0.825402
0.819559
0.814884
0.811205
0.808052
0.805465
0.803151
0.801226
0.799465
0.798019
0.797066
0.797053
0.797897
0.799065
0.807277
0.824002
0.874935
0.978782
1.31237
1.92753
2.19829
2.22036
2.21146
2.20131
2.19922
2.20213
2.21274
2.21925
2.22838
2.23499
2.24901
2.26334
2.29668
2.33246
2.47179
2.24627
0.896131
0.861483
0.844614
0.833226
0.825431
0.819525
0.814914
0.811172
0.808081
0.805431
0.803179
0.801192
0.799491
0.797978
0.797053
0.796985
0.797792
0.798854
0.806754
0.822719
0.872125
0.971278
1.29734
1.91392
2.19737
2.22612
2.21851
2.20904
2.20662
2.20918
2.21895
2.22524
2.23385
2.24012
2.25337
2.26726
2.29954
2.33583
2.47671
2.25064
0.896154
0.861455
0.844639
0.833198
0.825457
0.819496
0.814939
0.811143
0.808107
0.805402
0.803205
0.801161
0.799516
0.797939
0.797039
0.796908
0.79769
0.798616
0.806206
0.821421
0.869032
0.964119
1.28153
1.8967
2.19395
2.23046
2.22444
2.21637
2.21412
2.21659
2.22573
2.23161
2.23971
2.24561
2.2581
2.27151
2.30297
2.33863
2.48104
2.25805
0.896178
0.861426
0.844665
0.833169
0.825482
0.819467
0.814964
0.811113
0.808132
0.805372
0.80323
0.801131
0.79954
0.797902
0.797026
0.796833
0.797582
0.798406
0.805659
0.819672
0.865675
0.954212
1.26459
1.87301
2.18601
2.2315
2.22794
2.22135
2.21997
2.22282
2.23186
2.23773
2.24545
2.251
2.26271
2.27549
2.30601
2.34082
2.48425
2.2644
0.896233
0.86136
0.844725
0.833101
0.825543
0.819397
0.815025
0.811044
0.808192
0.805302
0.80329
0.801061
0.799598
0.797829
0.797055
0.79672
0.797497
0.798205
0.805457
0.818038
0.864015
0.948343
1.2551
1.85954
2.17869
2.23177
2.23008
2.22422
2.22374
2.22703
2.23623
2.2425
2.25056
2.25606
2.2675
2.27975
2.30918
2.343
2.48726
2.27159
0.896262
0.861326
0.844755
0.833067
0.825572
0.819363
0.815054
0.811009
0.808222
0.805267
0.80332
0.801026
0.799626
0.79779
0.797052
0.796636
0.797371
0.798104
0.804994
0.816185
0.861036
0.938125
1.24038
1.84186
2.17587
2.23414
2.2337
2.22756
2.22657
2.22975
2.23863
2.24463
2.25315
2.2588
2.27055
2.28253
2.31209
2.34475
2.48996
2.27853
0.896303
0.861277
0.844798
0.833017
0.825615
0.819313
0.815097
0.810959
0.808263
0.805218
0.803361
0.800977
0.799664
0.797737
0.797055
0.796532
0.79725
0.79793
0.804502
0.81515
0.858349
0.932717
1.22187
1.8183
2.16688
2.23839
2.23806
2.23332
2.2312
2.234
2.24181
2.24684
2.25474
2.26013
2.27146
2.28308
2.31186
2.34389
2.49048
2.28383
0.896273
0.861314
0.844764
0.833055
0.825581
0.819351
0.815062
0.810998
0.80823
0.805256
0.803328
0.801014
0.799631
0.797768
0.796984
0.796472
0.797106
0.797799
0.803753
0.814603
0.854197
0.924679
1.19185
1.77902
2.15232
2.2377
2.24001
2.23716
2.23573
2.23876
2.24596
2.2505
2.25735
2.26211
2.27216
2.28299
2.31083
2.34166
2.48973
2.28878
0.896265
0.861323
0.844755
0.833064
0.825572
0.819361
0.815053
0.811008
0.80822
0.805266
0.803318
0.801024
0.799619
0.797776
0.796943
0.796399
0.796996
0.797633
0.803285
0.813705
0.851237
0.919121
1.16913
1.74612
2.13072
2.23308
2.23883
2.23774
2.23803
2.24178
2.24916
2.25395
2.26057
2.26489
2.27364
2.28312
2.30828
2.33729
2.48677
2.29157
0.896262
0.861327
0.844752
0.833067
0.82557
0.819364
0.815052
0.81101
0.80822
0.805269
0.803317
0.801026
0.799617
0.797775
0.796919
0.796328
0.796931
0.797439
0.803044
0.812599
0.84972
0.916527
1.1617
1.71886
2.11508
2.22528
2.23353
2.23474
2.23693
2.24256
2.2503
2.25578
2.26287
2.26729
2.27569
2.28408
2.30637
2.33269
2.48235
2.29237
0.896247
0.861345
0.844735
0.833086
0.825552
0.819384
0.815034
0.811032
0.808201
0.805291
0.803298
0.801048
0.799595
0.797795
0.796874
0.796271
0.796811
0.797344
0.802744
0.810023
0.847217
0.907684
1.14091
1.678
2.10066
2.22422
2.23115
2.23148
2.23369
2.24065
2.24995
2.25571
2.26393
2.2685
2.27643
2.28409
2.30427
2.3261
2.47246
2.2896
0.896125
0.86149
0.844605
0.833235
0.825423
0.819533
0.814906
0.81118
0.808075
0.805438
0.803174
0.801194
0.799471
0.797937
0.796721
0.796311
0.796418
0.798061
0.800047
0.814007
0.833049
0.922192
1.07607
1.60313
2.06594
2.21811
2.22822
2.22963
2.23182
2.23704
2.2476
2.25501
2.26389
2.26973
2.27747
2.28448
2.30354
2.32048
2.46284
2.28253
0.896116
0.861501
0.844596
0.833245
0.825413
0.819545
0.814896
0.811192
0.808064
0.80545
0.803162
0.801207
0.799457
0.797949
0.796685
0.796239
0.796312
0.797775
0.800395
0.812452
0.834062
0.912649
1.05872
1.55225
2.03201
2.20836
2.22343
2.22838
2.23103
2.23656
2.24609
2.2538
2.26342
2.26958
2.27739
2.28323
2.30052
2.31084
2.44141
2.26681
0.896118
0.861498
0.844598
0.833242
0.825416
0.819542
0.814898
0.811189
0.808066
0.805448
0.803164
0.801205
0.799457
0.797945
0.796666
0.796154
0.796207
0.797544
0.799993
0.811163
0.83175
0.903971
1.03769
1.50659
1.98919
2.19139
2.21493
2.22599
2.2327
2.24147
2.25355
2.26253
2.27216
2.27788
2.28496
2.28949
2.30373
2.30656
2.41553
2.21152
1.00317
0.996907
0.990524
0.983429
0.977911
0.97336
0.969643
0.966538
0.963847
0.961564
0.959516
0.95779
0.956181
0.95516
0.95506
0.955809
0.957154
0.964563
0.976042
1.02254
1.10624
1.3984
2.10701
2.51278
2.59751
2.59219
2.58045
2.57744
2.57903
2.58524
2.60085
2.61047
2.62599
2.63771
2.66217
2.68442
2.73221
2.77256
2.88439
2.6779
1.00317
0.996854
0.990578
0.983372
0.977968
0.973301
0.969701
0.966478
0.963906
0.961504
0.959577
0.957729
0.956242
0.955091
0.955139
0.955668
0.957299
0.965664
0.977647
1.01974
1.1136
1.38801
2.08135
2.50535
2.59155
2.58696
2.57518
2.57199
2.57354
2.57962
2.59552
2.60509
2.62041
2.63204
2.65632
2.67841
2.72596
2.76596
2.87939
2.68132
1.00317
0.996854
0.990578
0.983372
0.977968
0.973301
0.969701
0.966478
0.963906
0.961504
0.959577
0.957729
0.956242
0.95509
0.955139
0.955668
0.957297
0.965654
0.977616
1.0197
1.11339
1.38759
2.08083
2.50536
2.59199
2.58765
2.57592
2.57272
2.5742
2.58029
2.59623
2.60574
2.621
2.63261
2.65685
2.67889
2.72623
2.76597
2.87929
2.684
1.00317
0.996907
0.990524
0.983428
0.977912
0.973359
0.969644
0.966537
0.963848
0.961564
0.959517
0.95779
0.956182
0.955159
0.95506
0.955809
0.957145
0.964534
0.97595
1.02236
1.10581
1.39652
2.10441
2.51179
2.59787
2.59338
2.58184
2.57874
2.58009
2.58629
2.60199
2.61112
2.62648
2.6381
2.66235
2.68438
2.73137
2.77093
2.88252
2.68564
1.00317
0.996904
0.990527
0.983423
0.977916
0.973354
0.969649
0.966532
0.963853
0.961558
0.959523
0.957784
0.956187
0.955152
0.95507
0.955818
0.957148
0.964527
0.975886
1.02254
1.1059
1.39586
2.10051
2.50844
2.59543
2.59156
2.58068
2.57768
2.5794
2.5858
2.60158
2.61052
2.62605
2.63774
2.66211
2.6842
2.73101
2.77061
2.88188
2.6876
1.00317
0.996907
0.990524
0.983428
0.977912
0.973359
0.969644
0.966537
0.963848
0.961564
0.959517
0.95779
0.956181
0.955155
0.955055
0.955801
0.957131
0.964487
0.975854
1.02195
1.10494
1.39352
2.10017
2.51084
2.59904
2.59518
2.58459
2.58125
2.58299
2.58926
2.60465
2.61341
2.62864
2.64027
2.66448
2.68643
2.73267
2.77199
2.88236
2.68773
1.00317
0.996859
0.990573
0.983377
0.977963
0.973306
0.969697
0.966483
0.963902
0.961508
0.959572
0.957733
0.956237
0.955091
0.955109
0.955811
0.957186
0.96588
0.977085
1.02004
1.10936
1.38344
2.07143
2.50047
2.59166
2.58905
2.57925
2.57637
2.57854
2.58545
2.60111
2.61005
2.62528
2.63694
2.66122
2.68313
2.72916
2.76833
2.8801
2.6881
1.00317
0.996859
0.990573
0.983377
0.977962
0.973307
0.969696
0.966484
0.963901
0.961509
0.959571
0.957734
0.956236
0.955093
0.955114
0.955808
0.957231
0.965858
0.97692
1.02083
1.10801
1.38144
2.07282
2.50347
2.59575
2.59246
2.58252
2.57933
2.58123
2.58852
2.60364
2.61242
2.62719
2.63872
2.66269
2.68429
2.7295
2.76806
2.87956
2.68933
1.00317
0.99686
0.990573
0.983377
0.977963
0.973306
0.969697
0.966483
0.963902
0.961508
0.959573
0.957732
0.956237
0.955088
0.955093
0.955942
0.957112
0.966442
0.976642
1.02115
1.10654
1.37781
2.06457
2.49933
2.59447
2.5921
2.58297
2.57984
2.58202
2.58971
2.60476
2.61346
2.62795
2.63935
2.66312
2.68444
2.72889
2.76684
2.87856
2.68993
1.00317
0.99686
0.990572
0.983377
0.977962
0.973306
0.969697
0.966483
0.963902
0.961508
0.959573
0.957732
0.956236
0.955085
0.955082
0.955923
0.957084
0.966355
0.976472
1.02071
1.10533
1.37444
2.05772
2.49591
2.59383
2.59183
2.58324
2.58019
2.5826
2.59054
2.60571
2.61434
2.62854
2.63981
2.66342
2.6845
2.72831
2.76568
2.87768
2.69133
1.00317
0.996852
0.99058
0.98337
0.977969
0.973299
0.969704
0.966476
0.963909
0.961501
0.959579
0.957724
0.956243
0.955073
0.955088
0.955754
0.95715
0.965611
0.976419
1.01951
1.10427
1.3715
2.05234
2.49424
2.59517
2.59323
2.58505
2.58171
2.58414
2.59211
2.60726
2.61575
2.62965
2.64071
2.66412
2.68486
2.7279
2.76463
2.87685
2.69397
1.00317
0.996861
0.990571
0.983378
0.977961
0.973307
0.969696
0.966484
0.963901
0.961508
0.959572
0.957731
0.956236
0.955072
0.955049
0.95586
0.956995
0.966104
0.975987
1.01956
1.10213
1.36583
2.04022
2.48764
2.59355
2.59202
2.58476
2.58164
2.58442
2.59272
2.60797
2.61645
2.63032
2.64119
2.6644
2.68486
2.72719
2.76346
2.87595
2.69619
1.00317
0.996864
0.990568
0.98338
0.977959
0.973309
0.969693
0.966485
0.963899
0.96151
0.95957
0.957732
0.956233
0.955064
0.955024
0.955825
0.956928
0.965972
0.975658
1.01883
1.10031
1.3599
2.02906
2.48182
2.59306
2.59145
2.58477
2.58166
2.58461
2.59315
2.60844
2.61692
2.63072
2.64137
2.66425
2.68452
2.72626
2.76216
2.87511
2.6981
1.00317
0.996864
0.990568
0.98338
0.977958
0.973309
0.969693
0.966485
0.963899
0.961509
0.95957
0.95773
0.956234
0.955052
0.954996
0.955767
0.956854
0.965752
0.975284
1.01784
1.09809
1.35368
2.01517
2.47538
2.59267
2.59098
2.58485
2.58178
2.58499
2.59374
2.609
2.61751
2.63112
2.64152
2.66391
2.68396
2.72512
2.76042
2.87399
2.70051
1.00318
0.996844
0.990588
0.983359
0.977979
0.973287
0.969714
0.966463
0.96392
0.961487
0.959592
0.957707
0.956255
0.955015
0.954982
0.955562
0.956824
0.964937
0.975019
1.01528
1.0957
1.34777
1.99845
2.46497
2.59036
2.58891
2.58374
2.58099
2.58472
2.59379
2.60918
2.61781
2.63136
2.64156
2.66342
2.6832
2.72374
2.75862
2.87264
2.70284
1.00317
0.996906
0.990525
0.983426
0.977913
0.973357
0.969646
0.966535
0.96385
0.96156
0.959521
0.957779
0.956183
0.955081
0.954889
0.955537
0.956695
0.963267
0.97349
1.01484
1.08902
1.34634
2.00046
2.4583
2.58878
2.5871
2.58183
2.57907
2.58327
2.5927
2.60849
2.61734
2.63116
2.6413
2.66276
2.68236
2.72248
2.75708
2.87178
2.70498
1.00317
0.996913
0.990517
0.983429
0.977907
0.973359
0.969642
0.966536
0.963847
0.96156
0.959519
0.957777
0.956181
0.955068
0.954857
0.955483
0.956607
0.963084
0.973009
1.01388
1.08662
1.33694
1.98342
2.45164
2.58895
2.58701
2.58159
2.57814
2.58244
2.59168
2.60756
2.6162
2.63023
2.64027
2.66132
2.68072
2.72034
2.75461
2.87037
2.70795
1.00317
0.996908
0.990523
0.983427
0.977911
0.973358
0.969644
0.966536
0.963849
0.96156
0.959521
0.957777
0.956182
0.955053
0.954815
0.95542
0.956507
0.962775
0.972515
1.01195
1.08245
1.3267
1.96054
2.44149
2.58815
2.58619
2.58101
2.57705
2.58151
2.59069
2.60662
2.61516
2.62924
2.63912
2.65963
2.67896
2.71821
2.75219
2.86888
2.71257
1.00317
0.996853
0.990578
0.983366
0.97797
0.973294
0.969706
0.966469
0.963913
0.961491
0.959587
0.957706
0.956249
0.954963
0.954832
0.955322
0.956427
0.963982
0.972899
1.01072
1.08203
1.30947
1.91288
2.42712
2.58624
2.58432
2.57974
2.57531
2.5804
2.58921
2.60492
2.61324
2.62723
2.63687
2.65671
2.67572
2.71461
2.74836
2.8667
2.71552
1.00318
0.996843
0.990588
0.983356
0.97798
0.973284
0.969716
0.966459
0.963923
0.96148
0.959598
0.957693
0.95626
0.954937
0.954803
0.955205
0.956348
0.963569
0.972395
1.0084
1.07847
1.2967
1.87986
2.40758
2.58087
2.57935
2.57605
2.57257
2.57903
2.58788
2.60361
2.61192
2.62588
2.63538
2.65475
2.67328
2.71152
2.74457
2.8639
2.71745
1.00317
0.996914
0.990517
0.983433
0.977905
0.973364
0.969638
0.966541
0.963843
0.961565
0.959516
0.957778
0.956177
0.955014
0.954692
0.955219
0.956188
0.961985
0.970815
1.00686
1.07145
1.28845
1.8719
2.39575
2.57681
2.57466
2.57007
2.56656
2.57404
2.5838
2.60024
2.60892
2.62312
2.63266
2.65198
2.67021
2.70832
2.74088
2.86071
2.71817
1.00317
0.996918
0.990511
0.983434
0.977902
0.973363
0.969637
0.966539
0.963843
0.961561
0.959517
0.957773
0.956179
0.954995
0.95466
0.955158
0.956085
0.961685
0.970195
1.00523
1.06733
1.27561
1.8413
2.38066
2.57309
2.57095
2.56642
2.56271
2.5705
2.5801
2.59664
2.60546
2.61974
2.62923
2.64838
2.66637
2.70433
2.73705
2.85817
2.718
1.00317
0.996918
0.990512
0.983437
0.9779
0.973368
0.969633
0.966545
0.963839
0.961569
0.959513
0.957779
0.956173
0.954987
0.954606
0.955066
0.95596
0.961325
0.969609
1.0028
1.06294
1.26319
1.8002
2.36917
2.56465
2.56304
2.55894
2.55622
2.56505
2.57498
2.59227
2.60146
2.61601
2.62545
2.64428
2.6619
2.69931
2.73203
2.85505
2.71699
1.00317
0.996918
0.990512
0.983434
0.977902
0.973364
0.969637
0.96654
0.963843
0.961562
0.959519
0.95777
0.956179
0.954962
0.954573
0.955017
0.95586
0.96103
0.968925
1.00114
1.0579
1.25146
1.74921
2.35006
2.55511
2.55362
2.55064
2.54833
2.55804
2.56841
2.58623
2.59641
2.61137
2.62132
2.64003
2.65739
2.6945
2.72692
2.85177
2.71469
1.00317
0.996918
0.99051
0.983434
0.9779
0.973364
0.969636
0.96654
0.963843
0.961561
0.959519
0.957768
0.956179
0.954945
0.954526
0.954941
0.95574
0.960723
0.968306
0.999323
1.05379
1.23857
1.7136
2.32337
2.54368
2.54251
2.54154
2.53932
2.55054
2.56057
2.57888
2.58971
2.60526
2.61565
2.63441
2.65158
2.68876
2.72122
2.84783
2.71474
1.00316
0.996917
0.990511
0.983433
0.977901
0.973363
0.969637
0.966539
0.963844
0.96156
0.95952
0.957766
0.956179
0.954926
0.954476
0.954859
0.95562
0.960368
0.967657
0.997271
1.04927
1.22791
1.66788
2.30807
2.53726
2.53738
2.53489
2.53217
2.54339
2.55375
2.57164
2.58291
2.59863
2.60968
2.62826
2.64522
2.68239
2.71482
2.84391
2.71572
1.00316
0.996908
0.99052
0.983426
0.977908
0.973357
0.969644
0.966534
0.963851
0.961555
0.959526
0.957759
0.956185
0.954903
0.954423
0.954738
0.955518
0.959949
0.967028
0.995012
1.04522
1.21796
1.62072
2.29461
2.53162
2.53489
2.53036
2.52737
2.53629
2.54832
2.56522
2.57632
2.59169
2.60292
2.62144
2.63817
2.67538
2.70782
2.83788
2.71649
1.00317
0.996909
0.990522
0.983425
0.977912
0.973355
0.969648
0.966531
0.963857
0.96155
0.959533
0.957751
0.956193
0.95488
0.95438
0.954669
0.955403
0.959665
0.966348
0.993524
1.04059
1.20803
1.57116
2.27811
2.52572
2.53385
2.52729
2.52437
2.53065
2.54344
2.56016
2.57098
2.58592
2.5967
2.61479
2.63103
2.6675
2.7002
2.83293
2.71836
1.00317
0.996904
0.990528
0.983423
0.977918
0.973353
0.969655
0.966528
0.963863
0.961547
0.95954
0.957746
0.956199
0.954859
0.95433
0.95458
0.955294
0.959322
0.965626
0.991761
1.03551
1.19909
1.53495
2.25249
2.51945
2.53282
2.5255
2.52205
2.52727
2.5385
2.55472
2.5654
2.58019
2.59088
2.60857
2.62414
2.65939
2.69126
2.82406
2.71931
1.00317
0.996904
0.990532
0.983426
0.97792
0.973356
0.969656
0.966532
0.963864
0.96155
0.959541
0.957747
0.9562
0.954846
0.954271
0.9545
0.955152
0.958961
0.964991
0.989959
1.03136
1.19038
1.49772
2.22595
2.50845
2.53131
2.52534
2.5212
2.52589
2.53601
2.55062
2.56045
2.57437
2.58455
2.60231
2.6175
2.6519
2.68332
2.81715
2.72077
1.00318
0.996878
0.990564
0.983399
0.977954
0.973327
0.969691
0.966501
0.9639
0.961517
0.959579
0.957712
0.956238
0.954797
0.954262
0.95439
0.95508
0.959713
0.964932
0.99068
1.03036
1.17387
1.4857
2.22263
2.49812
2.52859
2.52386
2.52124
2.52517
2.53435
2.54812
2.55664
2.56984
2.57846
2.59552
2.61001
2.64329
2.67323
2.80543
2.72008
1.00319
0.996879
0.990566
0.983403
0.977954
0.973332
0.969691
0.966506
0.9639
0.961521
0.959579
0.957715
0.956237
0.954788
0.954211
0.954329
0.955009
0.959215
0.964377
0.989112
1.02721
1.16272
1.46799
2.20577
2.49337
2.52928
2.52336
2.52168
2.52514
2.53335
2.54655
2.55377
2.56595
2.57356
2.58928
2.60297
2.63546
2.66526
2.79648
2.71867
1.00319
0.996885
0.990564
0.98341
0.977953
0.973338
0.96969
0.966512
0.963899
0.961527
0.959578
0.957719
0.956235
0.954776
0.954152
0.954245
0.954876
0.958888
0.963677
0.987452
1.02389
1.1525
1.45062
2.18838
2.48359
2.52991
2.52318
2.52224
2.52485
2.53257
2.54538
2.55204
2.56289
2.56937
2.58294
2.59497
2.62442
2.65291
2.7826
2.71522
1.00318
0.996921
0.990524
0.983447
0.977912
0.973377
0.969647
0.966552
0.963856
0.961568
0.959534
0.95776
0.956189
0.954801
0.954035
0.95423
0.954667
0.957728
0.96256
0.983663
1.01703
1.15056
1.41317
2.13901
2.47647
2.52937
2.52391
2.52229
2.52423
2.53047
2.54304
2.55023
2.56038
2.56619
2.57842
2.5892
2.61615
2.64323
2.77019
2.70809
1.00318
0.99693
0.990514
0.983456
0.977901
0.973386
0.969637
0.966561
0.963846
0.961577
0.959525
0.957768
0.956178
0.9548
0.953972
0.95414
0.954545
0.95743
0.961968
0.982151
1.01371
1.1407
1.3895
2.08172
2.45836
2.53016
2.52598
2.5228
2.52434
2.52925
2.53919
2.54702
2.55744
2.56241
2.5724
2.58127
2.60402
2.62903
2.75331
2.69942
1.00319
0.996911
0.990533
0.983434
0.977922
0.973364
0.969659
0.966538
0.963868
0.961553
0.959548
0.957743
0.956199
0.954768
0.953963
0.954012
0.954486
0.957969
0.961887
0.983073
1.01356
1.12495
1.38293
2.08807
2.44014
2.52914
2.52831
2.5248
2.52544
2.52909
2.53686
2.54239
2.55378
2.55943
2.56907
2.57618
2.59573
2.61604
2.7368
2.68165
1.00318
0.996925
0.990517
0.983447
0.977906
0.973376
0.969644
0.966551
0.963853
0.961566
0.959533
0.957755
0.956182
0.954774
0.953902
0.953937
0.954373
0.957594
0.961338
0.981581
1.01056
1.11615
1.35995
2.06918
2.42646
2.52788
2.52788
2.52595
2.52588
2.52925
2.53542
2.53921
2.54789
2.55313
2.56172
2.56801
2.58372
2.59882
2.71444
2.66436
1.00316
0.99694
0.990488
0.983461
0.977877
0.973392
0.969614
0.966569
0.963822
0.961585
0.9595
0.957776
0.956145
0.954791
0.95381
0.953863
0.954388
0.955883
0.963499
0.974459
1.01261
1.09662
1.33966
1.98923
2.41528
2.53032
2.52944
2.52647
2.52542
2.52908
2.53453
2.53775
2.545
2.54964
2.55687
2.56162
2.57616
2.58134
2.68971
2.62924
1.00316
0.996942
0.990487
0.983463
0.977875
0.973395
0.969611
0.966571
0.963819
0.961589
0.959496
0.95778
0.956138
0.95479
0.953762
0.953747
0.954499
0.9555
0.963785
0.972484
1.0122
1.08524
1.31438
1.91673
2.39004
2.5299
2.52931
2.52764
2.52385
2.52696
2.53207
2.5345
2.53992
2.54305
2.54834
2.55064
2.5635
2.56334
2.65456
2.59133
1.00316
0.996942
0.990487
0.983464
0.977875
0.973396
0.96961
0.966573
0.963817
0.961591
0.959494
0.957783
0.956133
0.954791
0.953717
0.953654
0.954288
0.955256
0.962924
0.971109
1.00826
1.07585
1.28865
1.85661
2.34961
2.52511
2.52813
2.52806
2.52482
2.52717
2.53204
2.5342
2.53878
2.54063
2.54389
2.54371
2.55063
2.54022
2.61964
2.51094
1.02214
1.02696
1.02399
1.02129
1.01827
1.01495
1.01203
1.00946
1.00709
1.0051
1.00321
1.00163
1.00012
0.999316
0.999251
1.00009
1.00174
1.01019
1.0244
1.0773
1.18234
1.50989
2.31714
2.64191
2.69528
2.68261
2.67048
2.6659
2.66737
2.6745
2.68901
2.6978
2.71088
2.7199
2.73888
2.7534
2.78434
2.80296
2.87492
2.71417
1.02215
1.02695
1.02405
1.02123
1.01832
1.0149
1.01209
1.0094
1.00715
1.00504
1.00326
1.00157
1.00017
0.999255
0.999353
0.999783
1.00285
1.00788
1.02973
1.06744
1.19583
1.49651
2.28055
2.63725
2.69134
2.67889
2.66741
2.66294
2.6649
2.67211
2.68678
2.69569
2.70904
2.71816
2.73733
2.75175
2.78227
2.80008
2.87206
2.71907
1.02215
1.02695
1.02405
1.02123
1.01832
1.0149
1.01209
1.0094
1.00715
1.00504
1.00326
1.00157
1.00017
0.999255
0.999352
0.999782
1.00284
1.00788
1.02969
1.06736
1.1956
1.49594
2.28005
2.63736
2.69172
2.67946
2.66818
2.66394
2.66615
2.67342
2.68818
2.69704
2.71041
2.71951
2.73866
2.75285
2.78321
2.79987
2.87182
2.72196
1.02214
1.02696
1.024
1.02129
1.01827
1.01495
1.01203
1.00945
1.0071
1.0051
1.00321
1.00162
1.00012
0.999312
0.999253
1.00009
1.00174
1.01018
1.02425
1.07703
1.18135
1.50788
2.31382
2.64071
2.69528
2.6832
2.67181
2.66801
2.67027
2.67764
2.69239
2.7011
2.71437
2.72338
2.74246
2.75638
2.78712
2.80172
2.8732
2.72177
1.02214
1.02696
1.02402
1.02126
1.0183
1.01492
1.01206
1.00943
1.00713
1.00507
1.00324
1.0016
1.00015
0.999281
0.999318
0.999729
1.00357
1.00819
1.03129
1.06917
1.19055
1.50661
2.29479
2.63593
2.69122
2.67997
2.66922
2.66616
2.66909
2.67712
2.69211
2.70077
2.71419
2.72325
2.74241
2.75619
2.7871
2.80025
2.87272
2.72279
1.02214
1.02696
1.024
1.02128
1.01827
1.01495
1.01204
1.00945
1.0071
1.00509
1.00322
1.00162
1.00012
0.999304
0.999242
1.00009
1.00172
1.01013
1.02411
1.07678
1.18025
1.50315
2.30983
2.63979
2.69561
2.68391
2.67347
2.67005
2.67299
2.68103
2.69562
2.70384
2.71693
2.72577
2.74459
2.75786
2.78859
2.79985
2.87268
2.72268
1.02215
1.02695
1.02406
1.02122
1.01833
1.01488
1.0121
1.00939
1.00717
1.00503
1.00328
1.00156
1.00019
0.999223
0.999343
0.999743
1.00262
1.00782
1.02896
1.06752
1.19381
1.4853
2.26631
2.63087
2.68938
2.67906
2.67002
2.66763
2.67167
2.68068
2.69584
2.70404
2.71759
2.7266
2.74569
2.75876
2.7893
2.79875
2.87223
2.72301
1.02215
1.02695
1.02405
1.02123
1.01832
1.0149
1.01209
1.0094
1.00715
1.00504
1.00327
1.00157
1.00017
0.999241
0.999302
0.999992
1.00188
1.011
1.02553
1.07372
1.1853
1.48793
2.2835
2.63566
2.69496
2.68353
2.67391
2.67131
2.67506