/*--------------------------------*- C++ -*----------------------------------*\
  =========                 |
  \\      /  F ield         | OpenFOAM: The Open Source CFD Toolbox
   \\    /   O peration     | Website:  https://openfoam.org
    \\  /    A nd           | Version:  6.0
     \\/     M anipulation  |
\*---------------------------------------------------------------------------*/
FoamFile
{
    version     2.0;
    format      ascii;
    class       volVectorField;
    location    "3.5";
    object      U;
}
// * * * * * * * * * * * * * * * * * * * * * * * * * * * * * * * * * * * * * //

dimensions      [0 1 -1 0 0 0 0];

internalField   nonuniform List<vector> 
4800
(
(3 -2.56063e-14 0)
(3 -1.41997e-13 0)
(3 -4.24131e-13 0)
(3 -1.08598e-12 0)
(3 -2.60712e-12 0)
(3 -6.00791e-12 0)
(3 -1.3447e-11 0)
(3 -2.94904e-11 0)
(3 -6.37551e-11 0)
(3 -1.36362e-10 0)
(3 -2.89155e-10 0)
(3 -6.08709e-10 0)
(2.99999 -1.2734e-09 0)
(2.99998 -2.64927e-09 0)
(2.99996 -5.48472e-09 0)
(2.99992 -1.13049e-08 0)
(2.99984 -2.32111e-08 0)
(2.99968 -4.74981e-08 0)
(2.99934 -9.69291e-08 0)
(2.99865 -1.97377e-07 0)
(2.99723 -4.01363e-07 0)
(2.99429 -8.15883e-07 0)
(2.98824 -1.66056e-06 0)
(2.97562 -3.39302e-06 0)
(2.94893 -6.99567e-06 0)
(2.89048 -1.47122e-05 0)
(2.75246 -3.21982e-05 0)
(2.36042 -8.44926e-05 0)
(0.342607 -0.000376232 0)
(-1.26931 0.000994973 0)
(-0.951172 0.00275316 0)
(-0.55488 0.00457208 0)
(-0.228575 0.00703334 0)
(0.0231361 0.0102358 0)
(0.186546 0.0143832 0)
(0.282215 0.0374422 0)
(0.329087 0.0879412 0)
(-0.0550741 0.183832 0)
(-0.149309 0.351376 0)
(0.018488 0.663468 0)
(3 -6.95583e-14 0)
(3 -3.87477e-13 0)
(3 -1.16905e-12 0)
(3 -3.03221e-12 0)
(3 -7.36103e-12 0)
(3 -1.7114e-11 0)
(3 -3.85869e-11 0)
(3 -8.51664e-11 0)
(3 -1.85169e-10 0)
(3 -3.9806e-10 0)
(3 -8.47853e-10 0)
(3 -1.7916e-09 0)
(2.99999 -3.75918e-09 0)
(2.99998 -7.83763e-09 0)
(2.99996 -1.6248e-08 0)
(2.99992 -3.35141e-08 0)
(2.99984 -6.88274e-08 0)
(2.99968 -1.40835e-07 0)
(2.99934 -2.87337e-07 0)
(2.99865 -5.84972e-07 0)
(2.99723 -1.18936e-06 0)
(2.99429 -2.41759e-06 0)
(2.98824 -4.92031e-06 0)
(2.97562 -1.00513e-05 0)
(2.94893 -2.07075e-05 0)
(2.89047 -4.34622e-05 0)
(2.75244 -9.46557e-05 0)
(2.3603 -0.000247179 0)
(0.342918 -0.00112632 0)
(-1.2685 0.00324933 0)
(-0.948841 0.00859666 0)
(-0.550108 0.0139974 0)
(-0.221176 0.0209432 0)
(0.0323604 0.0293074 0)
(0.199208 0.0385126 0)
(0.29272 0.0720258 0)
(0.378502 0.139778 0)
(0.0892362 0.255667 0)
(0.12266 0.573387 0)
(0.318793 1.20477 0)
(3 -9.36159e-14 0)
(3 -5.30796e-13 0)
(3 -1.64604e-12 0)
(3 -4.39255e-12 0)
(3 -1.09101e-11 0)
(3 -2.58143e-11 0)
(3 -5.90334e-11 0)
(3 -1.31855e-10 0)
(3 -2.8962e-10 0)
(3 -6.28116e-10 0)
(3 -1.34806e-09 0)
(3 -2.86694e-09 0)
(2.99999 -6.04766e-09 0)
(2.99998 -1.26644e-08 0)
(2.99996 -2.63496e-08 0)
(2.99992 -5.45158e-08 0)
(2.99984 -1.12251e-07 0)
(2.99968 -2.30217e-07 0)
(2.99934 -4.70663e-07 0)
(2.99865 -9.59965e-07 0)
(2.99723 -1.95495e-06 0)
(2.99429 -3.97898e-06 0)
(2.98823 -8.10488e-06 0)
(2.97562 -1.65594e-05 0)
(2.94892 -3.40854e-05 0)
(2.89045 -7.13655e-05 0)
(2.75239 -0.000154588 0)
(2.36007 -0.000401931 0)
(0.343701 -0.00187468 0)
(-1.2666 0.00597335 0)
(-0.94566 0.0151509 0)
(-0.544412 0.0244335 0)
(-0.213009 0.0367475 0)
(0.0423081 0.0503032 0)
(0.213679 0.0664641 0)
(0.31333 0.104438 0)
(0.407693 0.170346 0)
(0.315316 0.557669 0)
(0.457023 1.06659 0)
(0.604596 1.95968 0)
(3 -9.76616e-14 0)
(3 -5.73179e-13 0)
(3 -1.86015e-12 0)
(3 -5.1564e-12 0)
(3 -1.31492e-11 0)
(3 -3.16863e-11 0)
(3 -7.34746e-11 0)
(3 -1.66052e-10 0)
(3 -3.68678e-10 0)
(3 -8.07734e-10 0)
(3 -1.75036e-09 0)
(3 -3.75665e-09 0)
(2.99999 -7.99266e-09 0)
(2.99998 -1.68718e-08 0)
(2.99996 -3.53635e-08 0)
(2.99992 -7.36572e-08 0)
(2.99984 -1.52575e-07 0)
(2.99968 -3.14563e-07 0)
(2.99934 -6.45999e-07 0)
(2.99865 -1.32253e-06 0)
(2.99722 -2.70146e-06 0)
(2.99429 -5.51115e-06 0)
(2.98823 -1.12441e-05 0)
(2.97561 -2.29941e-05 0)
(2.94891 -4.73322e-05 0)
(2.89043 -9.89949e-05 0)
(2.75233 -0.000213832 0)
(2.35973 -0.000555089 0)
(0.344994 -0.00262788 0)
(-1.26357 0.00900261 0)
(-0.94155 0.0219288 0)
(-0.537938 0.035169 0)
(-0.203936 0.0526458 0)
(0.0526077 0.0704049 0)
(0.226091 0.0917125 0)
(0.330723 0.118423 0)
(0.442604 0.136344 0)
(0.426954 0.305662 0)
(0.655713 0.212584 0)
(1.04227 -0.0113461 0)
(3 -9.55033e-14 0)
(3 -5.87417e-13 0)
(3 -2.00707e-12 0)
(3 -5.729e-12 0)
(3 -1.47996e-11 0)
(3 -3.58534e-11 0)
(3 -8.34121e-11 0)
(3 -1.89275e-10 0)
(3 -4.22638e-10 0)
(3 -9.32701e-10 0)
(3 -2.03827e-09 0)
(3 -4.41485e-09 0)
(2.99999 -9.48291e-09 0)
(2.99998 -2.02092e-08 0)
(2.99996 -4.27538e-08 0)
(2.99992 -8.98424e-08 0)
(2.99984 -1.87654e-07 0)
(2.99968 -3.89859e-07 0)
(2.99934 -8.06208e-07 0)
(2.99865 -1.66075e-06 0)
(2.99722 -3.41064e-06 0)
(2.99429 -6.98969e-06 0)
(2.98823 -1.43136e-05 0)
(2.9756 -2.93532e-05 0)
(2.94889 -6.0531e-05 0)
(2.8904 -0.000126682 0)
(2.75224 -0.000273413 0)
(2.35927 -0.000709314 0)
(0.346779 -0.00338875 0)
(-1.25939 0.0122623 0)
(-0.936456 0.0288836 0)
(-0.53061 0.0463361 0)
(-0.194485 0.0681279 0)
(0.0628601 0.0899409 0)
(0.235801 0.112977 0)
(0.327906 0.128702 0)
(0.344465 0.0888117 0)
(0.29608 -0.218558 0)
(0.462332 -0.82144 0)
(0.548459 -1.84416 0)
(3 -1.06132e-13 0)
(3 -6.77052e-13 0)
(3 -2.36883e-12 0)
(3 -6.72565e-12 0)
(3 -1.70656e-11 0)
(3 -4.05188e-11 0)
(3 -9.26521e-11 0)
(3 -2.07674e-10 0)
(3 -4.6057e-10 0)
(3 -1.01462e-09 0)
(3 -2.22262e-09 0)
(3 -4.84085e-09 0)
(2.99999 -1.04782e-08 0)
(2.99998 -2.25324e-08 0)
(2.99996 -4.81326e-08 0)
(2.99992 -1.02147e-07 0)
(2.99984 -2.15425e-07 0)
(2.99968 -4.51689e-07 0)
(2.99934 -9.42104e-07 0)
(2.99865 -1.95595e-06 0)
(2.99722 -4.04532e-06 0)
(2.99429 -8.34238e-06 0)
(2.98822 -1.71768e-05 0)
(2.9756 -3.5387e-05 0)
(2.94887 -7.32422e-05 0)
(2.89036 -0.000153683 0)
(2.75213 -0.000332101 0)
(2.35869 -0.000862371 0)
(0.349028 -0.00415197 0)
(-1.25403 0.0157123 0)
(-0.930296 0.0361457 0)
(-0.522335 0.0578994 0)
(-0.184492 0.083584 0)
(0.0730249 0.109915 0)
(0.243717 0.133766 0)
(0.325424 0.150247 0)
(0.325766 0.114548 0)
(0.255099 0.0523027 0)
(0.24016 -0.208543 0)
(0.352316 -0.833715 0)
(3 -1.40723e-13 0)
(3 -9.01186e-13 0)
(3 -3.11354e-12 0)
(3 -8.55938e-12 0)
(3 -2.09123e-11 0)
(3 -4.78568e-11 0)
(3 -1.0588e-10 0)
(3 -2.30849e-10 0)
(3 -5.01088e-10 0)
(3 -1.08739e-09 0)
(3 -2.36081e-09 0)
(3 -5.12328e-09 0)
(2.99999 -1.10982e-08 0)
(2.99998 -2.39659e-08 0)
(2.99996 -5.15367e-08 0)
(2.99992 -1.10281e-07 0)
(2.99984 -2.34727e-07 0)
(2.99968 -4.96872e-07 0)
(2.99934 -1.04616e-06 0)
(2.99865 -2.19162e-06 0)
(2.99722 -4.57072e-06 0)
(2.99429 -9.49757e-06 0)
(2.98822 -1.96876e-05 0)
(2.97559 -4.07992e-05 0)
(2.94885 -8.4867e-05 0)
(2.89031 -0.000178794 0)
(2.752 -0.000387452 0)
(2.35799 -0.00100888 0)
(0.351715 -0.00489784 0)
(-1.24745 0.0193783 0)
(-0.922896 0.0438226 0)
(-0.513083 0.0697304 0)
(-0.17384 0.0992143 0)
(0.0832189 0.130181 0)
(0.252332 0.155525 0)
(0.326665 0.179324 0)
(0.325172 0.147229 0)
(0.249658 0.105581 0)
(0.210814 0.122966 0)
(0.294457 -0.00718517 0)
(3 -2.05398e-13 0)
(3 -1.28936e-12 0)
(3 -4.31551e-12 0)
(3 -1.14252e-11 0)
(3 -2.68729e-11 0)
(3 -5.92897e-11 0)
(3 -1.26717e-10 0)
(3 -2.67569e-10 0)
(3 -5.64336e-10 0)
(3 -1.19483e-09 0)
(3 -2.54285e-09 0)
(3 -5.43677e-09 0)
(2.99999 -1.16611e-08 0)
(2.99998 -2.50486e-08 0)
(2.99996 -5.37971e-08 0)
(2.99992 -1.15359e-07 0)
(2.99984 -2.46699e-07 0)
(2.99968 -5.25705e-07 0)
(2.99934 -1.11569e-06 0)
(2.99865 -2.35759e-06 0)
(2.99722 -4.9607e-06 0)
(2.99428 -1.03981e-05 0)
(2.98821 -2.1733e-05 0)
(2.97557 -4.53794e-05 0)
(2.94883 -9.50279e-05 0)
(2.89025 -0.000201337 0)
(2.75184 -0.000438204 0)
(2.35717 -0.00114584 0)
(0.354852 -0.00560515 0)
(-1.23959 0.0233 0)
(-0.914243 0.0518947 0)
(-0.502938 0.0818335 0)
(-0.162494 0.115049 0)
(0.0936042 0.150531 0)
(0.261515 0.178521 0)
(0.329016 0.206966 0)
(0.328718 0.180373 0)
(0.240059 0.13026 0)
(0.214237 0.197284 0)
(0.292291 0.253837 0)
(3 -2.92139e-13 0)
(3 -1.7914e-12 0)
(3 -5.83409e-12 0)
(3 -1.50597e-11 0)
(3 -3.45899e-11 0)
(3 -7.45864e-11 0)
(3 -1.55791e-10 0)
(3 -3.21275e-10 0)
(3 -6.61334e-10 0)
(3 -1.36652e-09 0)
(3 -2.84126e-09 0)
(3 -5.94766e-09 0)
(2.99999 -1.25289e-08 0)
(2.99998 -2.65302e-08 0)
(2.99996 -5.63927e-08 0)
(2.99992 -1.20146e-07 0)
(2.99984 -2.56193e-07 0)
(2.99968 -5.46044e-07 0)
(2.99934 -1.16204e-06 0)
(2.99865 -2.4672e-06 0)
(2.99722 -5.22362e-06 0)
(2.99428 -1.1028e-05 0)
(2.98821 -2.3228e-05 0)
(2.97556 -4.88852e-05 0)
(2.9488 -0.000103163 0)
(2.89019 -0.000220157 0)
(2.75167 -0.000482091 0)
(2.35623 -0.00126838 0)
(0.358428 -0.00625822 0)
(-1.23039 0.0274733 0)
(-0.904419 0.0603216 0)
(-0.491944 0.0942749 0)
(-0.150435 0.131112 0)
(0.104501 0.170957 0)
(0.270745 0.20283 0)
(0.332163 0.233221 0)
(0.331604 0.217712 0)
(0.236945 0.134558 0)
(0.198484 0.212802 0)
(0.26853 0.256626 0)
(3 -3.63233e-13 0)
(3 -2.21664e-12 0)
(3 -7.17355e-12 0)
(3 -1.84243e-11 0)
(3 -4.2129e-11 0)
(3 -9.04824e-11 0)
(3 -1.88159e-10 0)
(3 -3.8557e-10 0)
(3 -7.86238e-10 0)
(3 -1.60384e-09 0)
(3 -3.28205e-09 0)
(3 -6.74804e-09 0)
(2.99999 -1.39512e-08 0)
(2.99998 -2.90107e-08 0)
(2.99996 -6.06631e-08 0)
(2.99992 -1.27478e-07 0)
(2.99984 -2.68952e-07 0)
(2.99968 -5.69046e-07 0)
(2.99934 -1.20596e-06 0)
(2.99865 -2.55709e-06 0)
(2.99722 -5.42005e-06 0)
(2.99428 -1.14783e-05 0)
(2.9882 -2.42888e-05 0)
(2.97555 -5.14133e-05 0)
(2.94877 -0.000109207 0)
(2.89012 -0.000234656 0)
(2.75147 -0.000517094 0)
(2.35518 -0.00137051 0)
(0.362469 -0.00683282 0)
(-1.21979 0.0319165 0)
(-0.893403 0.0691203 0)
(-0.480124 0.107073 0)
(-0.137578 0.147496 0)
(0.116191 0.191169 0)
(0.280005 0.227529 0)
(0.336695 0.2594 0)
(0.332993 0.254797 0)
(0.288486 0.189426 0)
(0.177201 0.243592 0)
(0.220391 0.237565 0)
(3 -4.03818e-13 0)
(3 -2.48392e-12 0)
(3 -8.09645e-12 0)
(3 -2.0887e-11 0)
(3 -4.7933e-11 0)
(3 -1.03428e-10 0)
(3 -2.16296e-10 0)
(3 -4.45628e-10 0)
(3 -9.12043e-10 0)
(3 -1.86182e-09 0)
(3 -3.79895e-09 0)
(3 -7.75887e-09 0)
(2.99999 -1.58796e-08 0)
(2.99998 -3.26003e-08 0)
(2.99996 -6.71889e-08 0)
(2.99992 -1.39091e-07 0)
(2.99984 -2.89273e-07 0)
(2.99968 -6.04292e-07 0)
(2.99934 -1.26735e-06 0)
(2.99864 -2.66651e-06 0)
(2.99722 -5.62395e-06 0)
(2.99427 -1.18825e-05 0)
(2.98819 -2.51451e-05 0)
(2.97553 -5.33354e-05 0)
(2.94874 -0.000113708 0)
(2.89005 -0.000245509 0)
(2.75126 -0.00054367 0)
(2.35404 -0.00145088 0)
(0.367046 -0.00730979 0)
(-1.20772 0.0366475 0)
(-0.881152 0.078266 0)
(-0.467372 0.120368 0)
(-0.123992 0.16408 0)
(0.12851 0.210873 0)
(0.289447 0.251134 0)
(0.342491 0.284398 0)
(0.331585 0.290963 0)
(0.301508 0.222578 0)
(0.150233 0.266158 0)
(0.156721 0.219404 0)
(3 -4.32371e-13 0)
(3 -2.68342e-12 0)
(3 -8.80538e-12 0)
(3 -2.27633e-11 0)
(3 -5.23009e-11 0)
(3 -1.13172e-10 0)
(3 -2.37867e-10 0)
(3 -4.93273e-10 0)
(3 -1.01652e-09 0)
(3 -2.08796e-09 0)
(3 -4.28005e-09 0)
(3 -8.76213e-09 0)
(2.99999 -1.79265e-08 0)
(2.99998 -3.66807e-08 0)
(2.99996 -7.51289e-08 0)
(2.99992 -1.54164e-07 0)
(2.99984 -3.17191e-07 0)
(2.99968 -6.54807e-07 0)
(2.99934 -1.35693e-06 0)
(2.99864 -2.8232e-06 0)
(2.99721 -5.89732e-06 0)
(2.99427 -1.23667e-05 0)
(2.98819 -2.60365e-05 0)
(2.97552 -5.5081e-05 0)
(2.9487 -0.000117393 0)
(2.88997 -0.000253872 0)
(2.75104 -0.000563508 0)
(2.35282 -0.00151145 0)
(0.372273 -0.0076856 0)
(-1.19411 0.0416556 0)
(-0.867584 0.08778 0)
(-0.45366 0.134142 0)
(-0.110083 0.18074 0)
(0.14126 0.230129 0)
(0.298934 0.273615 0)
(0.349041 0.308393 0)
(0.330015 0.323144 0)
(0.30146 0.266264 0)
(0.12563 0.257621 0)
(0.0921861 0.222383 0)
(3 -4.45112e-13 0)
(3 -2.79732e-12 0)
(3 -9.25994e-12 0)
(3 -2.40087e-11 0)
(3 -5.5267e-11 0)
(3 -1.20007e-10 0)
(3 -2.53575e-10 0)
(3 -5.29189e-10 0)
(3 -1.09761e-09 0)
(3 -2.26811e-09 0)
(3 -4.67378e-09 0)
(3 -9.6092e-09 0)
(2.99999 -1.9721e-08 0)
(2.99998 -4.04219e-08 0)
(2.99996 -8.27945e-08 0)
(2.99992 -1.69575e-07 0)
(2.99984 -3.47537e-07 0)
(2.99968 -7.13233e-07 0)
(2.99934 -1.46681e-06 0)
(2.99864 -3.02508e-06 0)
(2.99721 -6.26042e-06 0)
(2.99427 -1.30095e-05 0)
(2.98818 -2.71683e-05 0)
(2.9755 -5.70996e-05 0)
(2.94867 -0.000121134 0)
(2.88989 -0.000261264 0)
(2.75081 -0.000579005 0)
(2.35155 -0.00155565 0)
(0.378263 -0.00796238 0)
(-1.17891 0.046949 0)
(-0.852635 0.0977128 0)
(-0.439034 0.148124 0)
(-0.0959268 0.19762 0)
(0.154297 0.249012 0)
(0.308775 0.295369 0)
(0.356037 0.331069 0)
(0.331389 0.351614 0)
(0.305304 0.314987 0)
(0.159557 0.265418 0)
(0.0555189 0.240614 0)
(3 -4.24808e-13 0)
(3 -2.73519e-12 0)
(3 -9.22121e-12 0)
(3 -2.40881e-11 0)
(3 -5.57508e-11 0)
(3 -1.21932e-10 0)
(3 -2.59999e-10 0)
(3 -5.47909e-10 0)
(3 -1.14692e-09 0)
(3 -2.3888e-09 0)
(3 -4.95429e-09 0)
(3 -1.0238e-08 0)
(2.99999 -2.10951e-08 0)
(2.99998 -4.33704e-08 0)
(2.99996 -8.90314e-08 0)
(2.99992 -1.82599e-07 0)
(2.99984 -3.74371e-07 0)
(2.99968 -7.67686e-07 0)
(2.99934 -1.57537e-06 0)
(2.99864 -3.23716e-06 0)
(2.99721 -6.66563e-06 0)
(2.99426 -1.37659e-05 0)
(2.98817 -2.85493e-05 0)
(2.97549 -5.95743e-05 0)
(2.94863 -0.000125521 0)
(2.88981 -0.000269049 0)
(2.75058 -0.000592759 0)
(2.35025 -0.00158764 0)
(0.385159 -0.00814227 0)
(-1.16206 0.0525677 0)
(-0.836364 0.108058 0)
(-0.423512 0.162148 0)
(-0.0814957 0.2147 0)
(0.167449 0.267658 0)
(0.318716 0.315995 0)
(0.36319 0.351381 0)
(0.335282 0.375978 0)
(0.305203 0.357384 0)
(0.168845 0.286466 0)
(0.0389093 0.259551 0)
(3 -4.00854e-13 0)
(3 -2.6445e-12 0)
(3 -9.02778e-12 0)
(3 -2.35178e-11 0)
(3 -5.42091e-11 0)
(3 -1.18578e-10 0)
(3 -2.54112e-10 0)
(3 -5.40036e-10 0)
(3 -1.14196e-09 0)
(3 -2.40354e-09 0)
(3 -5.03451e-09 0)
(3 -1.04959e-08 0)
(2.99999 -2.179e-08 0)
(2.99998 -4.50793e-08 0)
(2.99996 -9.30089e-08 0)
(2.99992 -1.91526e-07 0)
(2.99984 -3.93889e-07 0)
(2.99968 -8.09496e-07 0)
(2.99934 -1.6633e-06 0)
(2.99864 -3.41866e-06 0)
(2.99721 -7.03275e-06 0)
(2.99426 -1.44917e-05 0)
(2.98817 -2.99473e-05 0)
(2.97547 -6.21883e-05 0)
(2.9486 -0.000130239 0)
(2.88973 -0.000277164 0)
(2.75035 -0.000605483 0)
(2.34893 -0.00160963 0)
(0.39312 -0.00822744 0)
(-1.14351 0.058539 0)
(-0.818824 0.118794 0)
(-0.407159 0.176285 0)
(-0.0667052 0.231848 0)
(0.180595 0.286315 0)
(0.328538 0.335461 0)
(0.370086 0.369594 0)
(0.339206 0.395527 0)
(0.301995 0.387239 0)
(0.170043 0.309871 0)
(0.0345911 0.280859 0)
(3 -4.4941e-13 0)
(3 -2.90213e-12 0)
(3 -9.60046e-12 0)
(3 -2.40997e-11 0)
(3 -5.37467e-11 0)
(3 -1.14663e-10 0)
(3 -2.41903e-10 0)
(3 -5.10664e-10 0)
(3 -1.08066e-09 0)
(3 -2.28854e-09 0)
(3 -4.83938e-09 0)
(3 -1.02021e-08 0)
(2.99999 -2.14239e-08 0)
(2.99998 -4.48059e-08 0)
(2.99996 -9.33487e-08 0)
(2.99992 -1.9384e-07 0)
(2.99984 -4.01436e-07 0)
(2.99968 -8.29687e-07 0)
(2.99934 -1.71241e-06 0)
(2.99864 -3.53144e-06 0)
(2.99721 -7.28114e-06 0)
(2.99426 -1.50195e-05 0)
(2.98816 -3.10289e-05 0)
(2.97545 -6.4313e-05 0)
(2.94856 -0.000134178 0)
(2.88965 -0.000283797 0)
(2.75011 -0.000614418 0)
(2.34761 -0.00161763 0)
(0.40228 -0.0082133 0)
(-1.1232 0.0648285 0)
(-0.80012 0.129898 0)
(-0.390102 0.190785 0)
(-0.0515091 0.248981 0)
(0.193637 0.305212 0)
(0.337891 0.354089 0)
(0.376213 0.386686 0)
(0.342853 0.410737 0)
(0.297217 0.410776 0)
(0.17021 0.335619 0)
(0.0387738 0.306703 0)
(3 -6.28792e-13 0)
(3 -3.78647e-12 0)
(3 -1.16203e-11 0)
(3 -2.7335e-11 0)
(3 -5.75353e-11 0)
(3 -1.16546e-10 0)
(3 -2.35343e-10 0)
(3 -4.80698e-10 0)
(3 -9.96283e-10 0)
(3 -2.09025e-09 0)
(3 -4.42028e-09 0)
(3 -9.38147e-09 0)
(2.99999 -1.99147e-08 0)
(2.99998 -4.21833e-08 0)
(2.99996 -8.90421e-08 0)
(2.99992 -1.87202e-07 0)
(2.99984 -3.92023e-07 0)
(2.99968 -8.18044e-07 0)
(2.99934 -1.70203e-06 0)
(2.99864 -3.53327e-06 0)
(2.99721 -7.32323e-06 0)
(2.99425 -1.51659e-05 0)
(2.98815 -3.14111e-05 0)
(2.97543 -6.51628e-05 0)
(2.94852 -0.000135777 0)
(2.88957 -0.000285973 0)
(2.74988 -0.000614151 0)
(2.34629 -0.00160206 0)
(0.412703 -0.00808094 0)
(-1.10106 0.0713778 0)
(-0.7802 0.141373 0)
(-0.372445 0.205821 0)
(-0.0359569 0.266171 0)
(0.206565 0.324344 0)
(0.346696 0.3725 0)
(0.38124 0.404027 0)
(0.345762 0.424739 0)
(0.292313 0.427089 0)
(0.171697 0.363264 0)
(0.048112 0.326056 0)
(3 -9.1012e-13 0)
(3 -5.13448e-12 0)
(3 -1.46696e-11 0)
(3 -3.26154e-11 0)
(3 -6.52882e-11 0)
(3 -1.25779e-10 0)
(3 -2.41343e-10 0)
(3 -4.69525e-10 0)
(3 -9.33553e-10 0)
(3 -1.89964e-09 0)
(3 -3.94423e-09 0)
(3 -8.31226e-09 0)
(2.99999 -1.7677e-08 0)
(2.99998 -3.77393e-08 0)
(2.99996 -8.0572e-08 0)
(2.99992 -1.71586e-07 0)
(2.99984 -3.63994e-07 0)
(2.99968 -7.68808e-07 0)
(2.99934 -1.61699e-06 0)
(2.99864 -3.38823e-06 0)
(2.9972 -7.07798e-06 0)
(2.99425 -1.47521e-05 0)
(2.98814 -3.0705e-05 0)
(2.97542 -6.39047e-05 0)
(2.94849 -0.000133293 0)
(2.88948 -0.000280142 0)
(2.74964 -0.000597649 0)
(2.345 -0.00154884 0)
(0.42438 -0.00779533 0)
(-1.07708 0.0781684 0)
(-0.759068 0.153171 0)
(-0.354282 0.221363 0)
(-0.0201527 0.283713 0)
(0.219435 0.343463 0)
(0.355008 0.391207 0)
(0.385442 0.421481 0)
(0.346812 0.439519 0)
(0.287718 0.440298 0)
(0.172084 0.390328 0)
(0.0564597 0.34057 0)
(3 -1.16804e-12 0)
(3 -6.29675e-12 0)
(3 -1.71004e-11 0)
(3 -3.67577e-11 0)
(3 -7.18013e-11 0)
(3 -1.35148e-10 0)
(3 -2.5225e-10 0)
(3 -4.74276e-10 0)
(3 -9.07006e-10 0)
(3 -1.77464e-09 0)
(3 -3.56046e-09 0)
(3 -7.31465e-09 0)
(2.99999 -1.53213e-08 0)
(2.99998 -3.25291e-08 0)
(2.99996 -6.95939e-08 0)
(2.99992 -1.49297e-07 0)
(2.99984 -3.20015e-07 0)
(2.99968 -6.83852e-07 0)
(2.99934 -1.45528e-06 0)
(2.99864 -3.08312e-06 0)
(2.9972 -6.50427e-06 0)
(2.99424 -1.36713e-05 0)
(2.98813 -2.86525e-05 0)
(2.9754 -5.99372e-05 0)
(2.94845 -0.000125357 0)
(2.8894 -0.000263271 0)
(2.74941 -0.000558273 0)
(2.34375 -0.00144312 0)
(0.437301 -0.00731522 0)
(-1.05119 0.0851983 0)
(-0.736687 0.165261 0)
(-0.33559 0.237311 0)
(-0.00423707 0.301972 0)
(0.23227 0.362344 0)
(0.362798 0.410416 0)
(0.388849 0.438606 0)
(0.346818 0.454469 0)
(0.283532 0.456769 0)
(0.170885 0.415676 0)
(0.0625567 0.361247 0)
(3 -1.23671e-12 0)
(3 -6.4334e-12 0)
(3 -1.67754e-11 0)
(3 -3.5338e-11 0)
(3 -6.8783e-11 0)
(3 -1.30212e-10 0)
(3 -2.44683e-10 0)
(3 -4.60288e-10 0)
(3 -8.71299e-10 0)
(3 -1.66816e-09 0)
(3 -3.24738e-09 0)
(3 -6.45487e-09 0)
(2.99999 -1.31233e-08 0)
(2.99998 -2.72506e-08 0)
(2.99996 -5.75603e-08 0)
(2.99992 -1.23008e-07 0)
(2.99984 -2.64519e-07 0)
(2.99968 -5.69823e-07 0)
(2.99934 -1.22569e-06 0)
(2.99864 -2.62737e-06 0)
(2.9972 -5.60717e-06 0)
(2.99424 -1.19107e-05 0)
(2.98812 -2.51878e-05 0)
(2.97538 -5.30524e-05 0)
(2.94842 -0.000111392 0)
(2.88932 -0.000233843 0)
(2.74919 -0.000492201 0)
(2.34257 -0.00127504 0)
(0.451474 -0.00660406 0)
(-1.02337 0.0924963 0)
(-0.712967 0.177644 0)
(-0.316225 0.253491 0)
(0.0116229 0.321173 0)
(0.244999 0.381022 0)
(0.370098 0.430165 0)
(0.391365 0.455721 0)
(0.346578 0.469442 0)
(0.279842 0.476698 0)
(0.168198 0.439894 0)
(0.0661767 0.388299 0)
(3 -1.00927e-12 0)
(3 -5.01551e-12 0)
(3 -1.23444e-11 0)
(3 -2.52932e-11 0)
(3 -4.95702e-11 0)
(3 -9.70527e-11 0)
(3 -1.90939e-10 0)
(3 -3.75313e-10 0)
(3 -7.33526e-10 0)
(3 -1.42528e-09 0)
(3 -2.765e-09 0)
(3 -5.39326e-09 0)
(2.99999 -1.06591e-08 0)
(2.99998 -2.14773e-08 0)
(2.99996 -4.42433e-08 0)
(2.99992 -9.30674e-08 0)
(2.99984 -1.99032e-07 0)
(2.99968 -4.30197e-07 0)
(2.99934 -9.34402e-07 0)
(2.99864 -2.03001e-06 0)
(2.9972 -4.3969e-06 0)
(2.99424 -9.47544e-06 0)
(2.98812 -2.02935e-05 0)
(2.97537 -4.31626e-05 0)
(2.94839 -9.11136e-05 0)
(2.88926 -0.000191046 0)
(2.749 -0.0003972 0)
(2.3415 -0.00103833 0)
(0.466937 -0.0056384 0)
(-0.993584 0.100122 0)
(-0.687934 0.190275 0)
(-0.296038 0.269706 0)
(0.0274207 0.341184 0)
(0.257488 0.399733 0)
(0.376983 0.450354 0)
(0.392899 0.473296 0)
(0.346696 0.485468 0)
(0.276626 0.497445 0)
(0.164731 0.462982 0)
(0.0684261 0.421575 0)
(3 -4.97497e-13 0)
(3 -2.12327e-12 0)
(3 -4.01404e-12 0)
(3 -6.69987e-12 0)
(3 -1.30482e-11 0)
(3 -3.05182e-11 0)
(3 -7.53645e-11 0)
(3 -1.80014e-10 0)
(3 -4.06e-10 0)
(3 -8.67299e-10 0)
(3 -1.77503e-09 0)
(3 -3.52987e-09 0)
(2.99999 -6.92708e-09 0)
(2.99998 -1.36307e-08 0)
(2.99996 -2.72862e-08 0)
(2.99992 -5.61176e-08 0)
(2.99984 -1.18903e-07 0)
(2.99968 -2.58473e-07 0)
(2.99934 -5.7164e-07 0)
(2.99864 -1.27438e-06 0)
(2.9972 -2.84145e-06 0)
(2.99424 -6.3006e-06 0)
(2.98811 -1.38393e-05 0)
(2.97536 -3.00179e-05 0)
(2.94836 -6.40698e-05 0)
(2.8892 -0.000134101 0)
(2.74884 -0.000271957 0)
(2.34058 -0.000730822 0)
(0.483782 -0.00441832 0)
(-0.961804 0.108054 0)
(-0.661642 0.203172 0)
(-0.274912 0.285896 0)
(0.0432261 0.361501 0)
(0.269609 0.41898 0)
(0.383543 0.470854 0)
(0.393707 0.491676 0)
(0.346867 0.504346 0)
(0.273358 0.516484 0)
(0.161941 0.485389 0)
(0.070595 0.457796 0)
(3 1.96617e-13 0)
(3 1.70583e-12 0)
(3 6.83462e-12 0)
(3 1.7841e-11 0)
(3 3.68944e-11 0)
(3 6.51947e-11 0)
(3 1.01166e-10 0)
(3 1.37415e-10 0)
(3 1.56293e-10 0)
(3 1.24729e-10 0)
(3 -9.76554e-12 0)
(3 -3.19303e-10 0)
(2.99999 -8.9371e-10 0)
(2.99998 -1.85998e-09 0)
(2.99996 -3.52006e-09 0)
(2.99992 -6.9092e-09 0)
(2.99984 -1.55954e-08 0)
(2.99968 -4.0762e-08 0)
(2.99934 -1.14354e-07 0)
(2.99864 -3.20959e-07 0)
(2.9972 -8.71129e-07 0)
(2.99423 -2.26181e-06 0)
(2.98811 -5.60654e-06 0)
(2.97535 -1.32508e-05 0)
(2.94835 -2.96897e-05 0)
(2.88917 -6.22425e-05 0)
(2.74872 -0.000115779 0)
(2.33984 -0.000352964 0)
(0.502032 -0.00294548 0)
(-0.928013 0.116277 0)
(-0.634021 0.21639 0)
(-0.25282 0.302103 0)
(0.059265 0.381603 0)
(0.281329 0.439481 0)
(0.389788 0.491193 0)
(0.394339 0.510894 0)
(0.346682 0.526212 0)
(0.269631 0.535612 0)
(0.160652 0.509173 0)
(0.0729894 0.487291 0)
(3 9.28711e-13 0)
(3 5.72218e-12 0)
(3 1.82598e-11 0)
(3 4.43905e-11 0)
(3 9.33e-11 0)
(3 1.79188e-10 0)
(3 3.23944e-10 0)
(3 5.61852e-10 0)
(3 9.49018e-10 0)
(3 1.58441e-09 0)
(3 2.65866e-09 0)
(3 4.56539e-09 0)
(2.99999 8.14564e-09 0)
(2.99998 1.51984e-08 0)
(2.99996 2.94909e-08 0)
(2.99992 5.8648e-08 0)
(2.99984 1.17471e-07 0)
(2.99968 2.33367e-07 0)
(2.99934 4.54438e-07 0)
(2.99864 8.6006e-07 0)
(2.9972 1.57206e-06 0)
(2.99423 2.7635e-06 0)
(2.98811 4.67365e-06 0)
(2.97535 7.72506e-06 0)
(2.94834 1.32643e-05 0)
(2.88915 2.70396e-05 0)
(2.74866 7.63451e-05 0)
(2.33931 0.000105661 0)
(0.521692 -0.00119522 0)
(-0.892203 0.124875 0)
(-0.605216 0.229905 0)
(-0.229787 0.318448 0)
(0.0758755 0.400987 0)
(0.292583 0.462055 0)
(0.395558 0.510801 0)
(0.395269 0.531155 0)
(0.346468 0.549216 0)
(0.265812 0.557118 0)
(0.158307 0.536311 0)
(0.0731793 0.508181 0)
(3 1.54768e-12 0)
(3 9.13982e-12 0)
(3 2.81988e-11 0)
(3 6.84957e-11 0)
(3 1.47396e-10 0)
(3 2.95311e-10 0)
(3 5.65236e-10 0)
(3 1.04951e-09 0)
(3 1.91046e-09 0)
(3 3.4394e-09 0)
(3 6.17603e-09 0)
(3 1.11578e-08 0)
(2.99999 2.04471e-08 0)
(2.99998 3.82406e-08 0)
(2.99996 7.31681e-08 0)
(2.99992 1.42953e-07 0)
(2.99984 2.8364e-07 0)
(2.99968 5.67443e-07 0)
(2.99934 1.13654e-06 0)
(2.99864 2.26616e-06 0)
(2.9972 4.48197e-06 0)
(2.99424 8.78326e-06 0)
(2.98811 1.70947e-05 0)
(2.97535 3.32987e-05 0)
(2.94835 6.60088e-05 0)
(2.88916 0.000137037 0)
(2.74866 0.000312815 0)
(2.33904 0.000666696 0)
(0.542828 0.00087203 0)
(-0.854313 0.13382 0)
(-0.575324 0.243865 0)
(-0.206093 0.335117 0)
(0.0935296 0.41929 0)
(0.303481 0.488368 0)
(0.400626 0.529741 0)
(0.396678 0.553276 0)
(0.346466 0.572679 0)
(0.262812 0.581336 0)
(0.154079 0.568544 0)
(0.0705576 0.531366 0)
(3 1.94734e-12 0)
(3 1.1423e-11 0)
(3 3.52237e-11 0)
(3 8.67767e-11 0)
(3 1.91536e-10 0)
(3 3.97062e-10 0)
(3 7.91402e-10 0)
(3 1.53619e-09 0)
(3 2.92688e-09 0)
(3 5.50505e-09 0)
(3 1.02739e-08 0)
(3 1.91254e-08 0)
(2.99999 3.57072e-08 0)
(2.99998 6.72094e-08 0)
(2.99996 1.28064e-07 0)
(2.99992 2.47577e-07 0)
(2.99984 4.85516e-07 0)
(2.99968 9.63558e-07 0)
(2.99934 1.92795e-06 0)
(2.99864 3.87314e-06 0)
(2.9972 7.78501e-06 0)
(2.99424 1.56238e-05 0)
(2.98812 3.13134e-05 0)
(2.97536 6.29067e-05 0)
(2.94837 0.000127854 0)
(2.88921 0.000267497 0)
(2.74873 0.000595568 0)
(2.33909 0.00134058 0)
(0.565508 0.0032939 0)
(-0.814308 0.143079 0)
(-0.544124 0.258473 0)
(-0.181965 0.35215 0)
(0.113018 0.437247 0)
(0.314491 0.514783 0)
(0.404471 0.548523 0)
(0.398824 0.578106 0)
(0.346645 0.596017 0)
(0.261659 0.608732 0)
(0.149035 0.600369 0)
(0.0659115 0.559404 0)
(3 2.12303e-12 0)
(3 1.2565e-11 0)
(3 3.92986e-11 0)
(3 9.8757e-11 0)
(3 2.23394e-10 0)
(3 4.76624e-10 0)
(3 9.81012e-10 0)
(3 1.97062e-09 0)
(3 3.88812e-09 0)
(3 7.56615e-09 0)
(3 1.45707e-08 0)
(3 2.78634e-08 0)
(2.99999 5.31064e-08 0)
(2.99998 1.01283e-07 0)
(2.99996 1.94035e-07 0)
(2.99992 3.74638e-07 0)
(2.99984 7.30568e-07 0)
(2.99968 1.43983e-06 0)
(2.99934 2.86548e-06 0)
(2.99864 5.74729e-06 0)
(2.9972 1.15895e-05 0)
(2.99424 2.34487e-05 0)
(2.98813 4.75652e-05 0)
(2.97538 9.68946e-05 0)
(2.94841 0.000199386 0)
(2.88929 0.00041967 0)
(2.74891 0.000927905 0)
(2.33952 0.00214097 0)
(0.589856 0.00617748 0)
(-0.772184 0.152884 0)
(-0.511645 0.2735 0)
(-0.157334 0.369362 0)
(0.133638 0.455881 0)
(0.325834 0.534029 0)
(0.408383 0.567774 0)
(0.401507 0.603968 0)
(0.347185 0.619448 0)
(0.261392 0.635306 0)
(0.142987 0.622657 0)
(0.061011 0.589899 0)
(3 2.18224e-12 0)
(3 1.31397e-11 0)
(3 4.19521e-11 0)
(3 1.07499e-10 0)
(3 2.48048e-10 0)
(3 5.40796e-10 0)
(3 1.13981e-09 0)
(3 2.34865e-09 0)
(3 4.75855e-09 0)
(3 9.51101e-09 0)
(3 1.87982e-08 0)
(3 3.68247e-08 0)
(2.99999 7.16795e-08 0)
(2.99998 1.39034e-07 0)
(2.99996 2.6956e-07 0)
(2.99992 5.2398e-07 0)
(2.99984 1.02389e-06 0)
(2.99968 2.01507e-06 0)
(2.99934 3.99772e-06 0)
(2.99864 7.9939e-06 0)
(2.99721 1.60964e-05 0)
(2.99425 3.26003e-05 0)
(2.98814 6.63678e-05 0)
(2.97541 0.000135941 0)
(2.94847 0.000281327 0)
(2.88943 0.000594047 0)
(2.74921 0.00130861 0)
(2.34043 0.00306515 0)
(0.616373 0.0095839 0)
(-0.727759 0.163194 0)
(-0.478285 0.288824 0)
(-0.132331 0.386835 0)
(0.153772 0.475228 0)
(0.337194 0.550245 0)
(0.413998 0.589303 0)
(0.40484 0.626021 0)
(0.347542 0.643919 0)
(0.259699 0.657297 0)
(0.137764 0.642774 0)
(0.0584361 0.629122 0)
(3 2.30314e-12 0)
(3 1.40977e-11 0)
(3 4.57716e-11 0)
(3 1.18689e-10 0)
(3 2.76758e-10 0)
(3 6.10345e-10 0)
(3 1.30383e-09 0)
(3 2.72918e-09 0)
(3 5.62872e-09 0)
(3 1.14695e-08 0)
(3 2.31284e-08 0)
(3 4.62168e-08 0)
(2.99999 9.16542e-08 0)
(2.99998 1.80709e-07 0)
(2.99996 3.54975e-07 0)
(2.99992 6.96347e-07 0)
(2.99984 1.36741e-06 0)
(2.99968 2.69382e-06 0)
(2.99934 5.33308e-06 0)
(2.99864 1.06217e-05 0)
(2.99721 2.12914e-05 0)
(2.99426 4.29538e-05 0)
(2.98816 8.72215e-05 0)
(2.97545 0.000178455 0)
(2.94855 0.000369177 0)
(2.88961 0.000778673 0)
(2.74965 0.00170526 0)
(2.3419 0.00403002 0)
(0.644764 0.0133346 0)
(-0.682011 0.173288 0)
(-0.443976 0.304813 0)
(-0.10673 0.405254 0)
(0.17411 0.495138 0)
(0.349078 0.569054 0)
(0.419479 0.616094 0)
(0.408302 0.645001 0)
(0.348225 0.66626 0)
(0.258102 0.678531 0)
(0.136656 0.67076 0)
(0.0588735 0.67972 0)
(3 2.68131e-12 0)
(3 1.64962e-11 0)
(3 5.3744e-11 0)
(3 1.39331e-10 0)
(3 3.24627e-10 0)
(3 7.16151e-10 0)
(3 1.53363e-09 0)
(3 3.2268e-09 0)
(3 6.7085e-09 0)
(3 1.38162e-08 0)
(3 2.82196e-08 0)
(3 5.71962e-08 0)
(2.99999 1.15103e-07 0)
(2.99998 2.3017e-07 0)
(2.99996 4.57872e-07 0)
(2.99992 9.07422e-07 0)
(2.99984 1.79472e-06 0)
(2.99968 3.54912e-06 0)
(2.99934 7.03022e-06 0)
(2.99865 1.39713e-05 0)
(2.99722 2.78912e-05 0)
(2.99427 5.59853e-05 0)
(2.98819 0.0001131 0)
(2.97551 0.000230317 0)
(2.94866 0.000474471 0)
(2.88985 0.000996595 0)
(2.7502 0.00216876 0)
(2.34382 0.00515457 0)
(0.673397 0.0176999 0)
(-0.636844 0.184227 0)
(-0.408432 0.321603 0)
(-0.0799784 0.424378 0)
(0.194532 0.515042 0)
(0.362531 0.588239 0)
(0.424979 0.642765 0)
(0.409874 0.66505 0)
(0.349512 0.686791 0)
(0.258685 0.701761 0)
(0.140726 0.705586 0)
(0.0626536 0.734922 0)
(3 3.44586e-12 0)
(3 2.10661e-11 0)
(3 6.80759e-11 0)
(3 1.75024e-10 0)
(3 4.0478e-10 0)
(3 8.87451e-10 0)
(3 1.89174e-09 0)
(3 3.9705e-09 0)
(3 8.25591e-09 0)
(3 1.7054e-08 0)
(3 3.50332e-08 0)
(3 7.15877e-08 0)
(2.99999 1.45511e-07 0)
(2.99998 2.94226e-07 0)
(2.99996 5.92002e-07 0)
(2.99992 1.18603e-06 0)
(2.99984 2.36817e-06 0)
(2.99968 4.71862e-06 0)
(2.99934 9.39552e-06 0)
(2.99865 1.87234e-05 0)
(2.99722 3.73983e-05 0)
(2.99429 7.49819e-05 0)
(2.98822 0.000151145 0)
(2.97557 0.000307007 0)
(2.9488 0.000630923 0)
(2.89015 0.00132251 0)
(2.7509 0.00287326 0)
(2.34637 0.00685801 0)
(0.703331 0.0234833 0)
(-0.590917 0.197134 0)
(-0.373125 0.338407 0)
(-0.05344 0.443159 0)
(0.214886 0.534277 0)
(0.376488 0.607035 0)
(0.43074 0.659431 0)
(0.411194 0.687916 0)
(0.35146 0.709211 0)
(0.262127 0.726558 0)
(0.149463 0.737734 0)
(0.0687084 0.77293 0)
(3 4.62633e-12 0)
(3 2.80181e-11 0)
(3 8.95919e-11 0)
(3 2.28324e-10 0)
(3 5.24156e-10 0)
(3 1.14163e-09 0)
(3 2.41935e-09 0)
(3 5.05365e-09 0)
(3 1.04743e-08 0)
(3 2.16098e-08 0)
(3 4.44377e-08 0)
(3 9.11087e-08 0)
(2.99999 1.86209e-07 0)
(2.99998 3.79267e-07 0)
(2.99996 7.69663e-07 0)
(2.99992 1.55623e-06 0)
(2.99984 3.13613e-06 0)
(2.99968 6.30267e-06 0)
(2.99934 1.2643e-05 0)
(2.99865 2.53427e-05 0)
(2.99723 5.08279e-05 0)
(2.99431 0.000102153 0)
(2.98826 0.000206114 0)
(2.97566 0.000418616 0)
(2.94899 0.000859633 0)
(2.89056 0.00180004 0)
(2.75189 0.00390787 0)
(2.34988 0.00932384 0)
(0.73573 0.0309187 0)
(-0.543641 0.211122 0)
(-0.338071 0.355658 0)
(-0.0275499 0.462043 0)
(0.234916 0.552885 0)
(0.388893 0.624937 0)
(0.437447 0.671662 0)
(0.41499 0.715454 0)
(0.353659 0.733939 0)
(0.265931 0.752765 0)
(0.156433 0.75912 0)
(0.073451 0.790248 0)
(3 6.20846e-12 0)
(3 3.73462e-11 0)
(3 1.18573e-10 0)
(3 3.00612e-10 0)
(3 6.87237e-10 0)
(3 1.49102e-09 0)
(3 3.14757e-09 0)
(3 6.55028e-09 0)
(3 1.35318e-08 0)
(3 2.78504e-08 0)
(3 5.72031e-08 0)
(3 1.17321e-07 0)
(2.99999 2.40265e-07 0)
(2.99998 4.91169e-07 0)
(2.99996 1.00192e-06 0)
(2.99992 2.03875e-06 0)
(2.99985 4.13779e-06 0)
(2.99968 8.3771e-06 0)
(2.99935 1.69239e-05 0)
(2.99866 3.41403e-05 0)
(2.99725 6.88321e-05 0)
(2.99434 0.000138869 0)
(2.98832 0.000280842 0)
(2.97579 0.000570836 0)
(2.94925 0.0011715 0)
(2.89112 0.00244862 0)
(2.75324 0.00530232 0)
(2.35449 0.012587 0)
(0.769572 0.0401283 0)
(-0.495839 0.225479 0)
(-0.303191 0.373546 0)
(-0.00232645 0.481842 0)
(0.254591 0.570911 0)
(0.400696 0.641333 0)
(0.446157 0.688081 0)
(0.420811 0.741249 0)
(0.355574 0.762068 0)
(0.268085 0.7817 0)
(0.160718 0.783586 0)
(0.0773777 0.813147 0)
(3 8.22816e-12 0)
(3 4.93285e-11 0)
(3 1.56137e-10 0)
(3 3.95275e-10 0)
(3 9.02893e-10 0)