/*--------------------------------*- C++ -*----------------------------------*\
  =========                 |
  \\      /  F ield         | OpenFOAM: The Open Source CFD Toolbox
   \\    /   O peration     | Website:  https://openfoam.org
    \\  /    A nd           | Version:  6.0
     \\/     M anipulation  |
\*---------------------------------------------------------------------------*/
FoamFile
{
    version     2.0;
    format      ascii;
    class       surfaceScalarField;
    location    "4";
    object      phi;
}
// * * * * * * * * * * * * * * * * * * * * * * * * * * * * * * * * * * * * * //

dimensions      [1 0 -1 0 0 0 0];

internalField   nonuniform List<scalar> 
8300
(
0.000641387
1.43597e-08
0.000201272
0.000568888
2.30186e-08
7.24767e-05
0.000528147
7.26521e-08
4.06622e-05
0.000464507
1.43884e-07
6.34903e-05
0.00038059
2.71816e-07
8.36365e-05
0.000264927
5.82641e-07
0.000115063
0.000380468
1.80684e-06
-0.000117387
0.000320136
1.29703e-07
6.01101e-05
0.000325505
9.72095e-05
-0.000103572
9.05217e-05
0.000234569
0.000641422
3.49292e-08
0.000201232
0.000568861
5.0058e-08
7.25349e-05
0.000528217
1.68967e-07
4.05401e-05
0.000464573
3.3548e-07
6.34465e-05
0.000380619
6.57106e-07
8.35588e-05
0.000264353
1.55602e-06
0.000115271
0.00037138
4.91249e-06
-0.000110141
0.000308914
1.33964e-05
4.94135e-05
0.000327385
0.00012523
-4.6956e-05
0.000180997
0.000236392
0.000641516
6.1923e-08
0.000201131
0.000568798
8.3418e-08
7.26861e-05
0.000528436
2.90174e-07
4.02327e-05
0.000464849
5.783e-07
6.33369e-05
0.000380932
1.14562e-06
8.34173e-05
0.000264873
2.77279e-06
0.00011482
0.000370679
8.50072e-06
-0.000109392
0.000308727
2.49239e-05
5.06335e-05
0.00031474
0.000179208
-6.03651e-05
0.000289113
0.000206249
0.000641689
9.62715e-08
0.000200952
0.000568692
1.25438e-07
7.29573e-05
0.000528848
4.41689e-07
3.96835e-05
0.00046539
8.83791e-07
6.31433e-05
0.00038159
1.75376e-06
8.31799e-05
0.000265985
4.23811e-06
0.000114112
0.000374282
1.26401e-05
-0.000112413
0.000310461
3.56635e-05
5.3296e-05
0.000304728
0.000275692
-9.0933e-05
0.000415639
0.000178089
0.000641955
1.42765e-07
0.000200675
0.000568531
1.78414e-07
7.33742e-05
0.000529486
6.45282e-07
3.883e-05
0.000466216
1.29114e-06
6.28519e-05
0.000382529
2.55918e-06
8.28668e-05
0.000267165
6.17239e-06
0.000113399
0.00037803
1.81424e-05
-0.000116337
0.000309979
5.17205e-05
5.22799e-05
0.000300651
0.000393321
-0.000108623
0.000554773
0.000161548
0.00064235
2.02388e-07
0.000200269
0.000568297
2.54492e-07
7.39827e-05
0.000530441
9.21759e-07
3.75645e-05
0.000467438
1.83426e-06
6.24467e-05
0.000383941
3.57309e-06
8.24641e-05
0.000268997
8.40518e-06
0.000112676
0.000386444
2.44629e-05
-0.000123734
0.00030913
6.79151e-05
6.15448e-05
0.000297408
0.000525606
-0.000120867
0.000709251
0.000142982
0.000642875
2.85559e-07
0.000199723
0.000567955
3.82573e-07
7.47989e-05
0.00053169
1.35458e-06
3.58139e-05
0.000468983
2.56847e-06
6.1956e-05
0.000385616
4.84577e-06
8.2072e-05
0.000271381
1.15206e-05
0.000111071
0.000395286
3.33775e-05
-0.00013276
0.000306936
9.36548e-05
6.31815e-05
0.000293191
0.000672308
-0.000133268
0.000880914
0.000121581
0.000643434
3.92799e-07
0.000199142
0.000567445
6.36584e-07
7.57442e-05
0.00053301
1.76945e-06
3.39968e-05
0.000471271
3.23549e-06
6.10526e-05
0.000390102
5.7841e-06
8.01815e-05
0.000274619
1.2735e-05
0.000114364
0.000410842
3.96376e-05
-0.000143573
0.000304264
0.000103337
9.74461e-05
0.000288524
0.000835246
-0.000147424
0.00107236
9.71513e-05
0.000643561
5.09063e-07
0.00019902
0.000566732
8.4215e-07
7.66275e-05
0.000533779
2.27745e-06
3.24228e-05
0.000473393
4.10494e-06
5.94947e-05
0.000393839
7.26326e-06
7.804e-05
0.000279859
1.59911e-05
0.0001107
0.000404433
5.00665e-05
-0.000135082
0.000300739
0.000130183
7.71276e-05
0.000279567
0.0010219
-0.000165861
0.00130046
5.14956e-05
0.000643699
0.000198866
6.5576e-07
0.000565794
7.77468e-05
1.00175e-06
0.000534689
3.05885e-05
2.77152e-06
0.000476345
5.75492e-05
4.87633e-06
0.000400024
7.49087e-05
8.64059e-06
0.000289457
0.000107603
1.89156e-05
0.000393818
-0.000117896
6.3592e-05
0.000300086
7.33644e-05
0.000150359
0.000266351
-0.00021039
0.00126545
-5.40101e-05
0.00162082
0.000903288
2.48253e-08
0.000137514
0.000858214
6.65375e-08
0.000117483
0.000788183
1.61351e-07
0.000110528
0.000757533
3.74379e-07
9.37561e-05
0.000756222
8.50572e-07
8.40793e-05
0.000782341
1.98291e-06
8.69245e-05
0.000589251
5.3559e-06
7.02681e-05
0.00062798
1.92622e-05
2.00857e-06
-1.3653e-05
0.000307176
0.000230372
0.00018474
3.62309e-05
0.000903262
5.70554e-08
0.000137492
0.000858265
1.46588e-07
0.000117451
0.000788105
3.49818e-07
0.000110507
0.00075742
8.01571e-07
9.36943e-05
0.000756081
1.80242e-06
8.3927e-05
0.000782556
4.19488e-06
8.65419e-05
0.000597846
1.07297e-05
6.90935e-05
0.000633472
3.78142e-05
-4.9575e-06
0.000422931
0.000378202
9.12864e-05
0.000643414
0.000200139
0.000903204
9.85659e-08
0.000137441
0.000858397
2.48276e-07
0.000117389
0.000787878
5.86601e-07
0.000110509
0.000757073
1.33302e-06
9.35986e-05
0.000755597
2.98071e-06
8.36949e-05
0.000781538
6.94317e-06
8.60886e-05
0.00059635
1.77488e-05
6.86743e-05
0.000631074
6.12598e-05
-7.75584e-06
0.000291664
0.000615952
3.98799e-05
0.00100474
0.00013554
0.000903102
1.51682e-07
0.000137352
0.00085863
3.7985e-07
0.000117296
0.00078745
8.91823e-07
0.000110552
0.000756451
2.01104e-06
9.34509e-05
0.000754805
4.45879e-06
8.33258e-05
0.000780065
1.03201e-05
8.54292e-05
0.000591014
2.62352e-05
6.80431e-05
0.000622885
9.06955e-05
-8.28145e-06
0.000266367
0.000883658
-3.64921e-06
0.00135545
9.27402e-05
0.000902946
2.24257e-07
0.000137212
0.000858964
5.61388e-07
0.000117171
0.000786729
1.30755e-06
0.000110641
0.000755419
2.91051e-06
9.32467e-05
0.000753549
6.36689e-06
8.28028e-05
0.000778055
1.46053e-05
8.45574e-05
0.00058334
3.70828e-05
6.74054e-05
0.000611789
0.000124204
-9.98883e-06
0.000256381
0.00116723
-3.85486e-05
0.00173119
4.11218e-05
0.000902714
3.33547e-07
0.000137002
0.000859384
8.43882e-07
0.000117026
0.00078553
1.91032e-06
0.000110804
0.000753818
4.09897e-06
9.29507e-05
0.000751867
8.73922e-06
8.20124e-05
0.000775983
1.98506e-05
8.32581e-05
0.000572948
5.00664e-05
6.61698e-05
0.000601816
0.000165774
-9.26237e-06
0.000231641
0.00147079
-5.60123e-05
0.00211007
-5.36903e-06
0.000902368
5.60469e-07
0.000136686
0.00085976
1.36293e-06
0.000116881
0.000783595
2.78983e-06
0.000111084
0.000751562
5.5818e-06
9.24835e-05
0.000749893
1.15996e-05
8.08448e-05
0.000773261
2.60293e-05
8.14583e-05
0.000558434
6.70687e-05
6.48788e-05
0.000588081
0.000208028
-9.1593e-06
0.000206243
0.00178936
-7.19259e-05
0.00248382
-4.70481e-05
0.000902062
1.09466e-06
0.000136104
0.000860138
2.25915e-06
0.00011676
0.000782485
3.94594e-06
0.000110477
0.000750192
7.22711e-06
9.16774e-05
0.000747695
1.45742e-05
7.96419e-05
0.000775218
3.29799e-05
7.99015e-05
0.0005511
8.57269e-05
6.19751e-05
0.000591342
0.000266604
-1.52917e-06
0.000185519
0.00212947
-8.37606e-05
0.00285486
-8.94966e-05
0.000903516
1.40299e-06
0.000134761
0.000863186
2.93878e-06
0.000116264
0.000785329
5.07736e-06
0.000109131
0.00075228
9.07555e-06
9.06687e-05
0.000748396
1.80501e-05
7.84001e-05
0.000773817
4.08179e-05
7.73864e-05
0.000556618
0.000108759
5.89827e-05
0.000586476
0.000323073
-9.45124e-06
0.000188129
0.00246991
-0.000110093
0.00321887
-0.000125537
0.000905043
0.000133107
1.69698e-06
0.000866623
0.000115676
3.41322e-06
0.0007891
0.000107351
5.81874e-06
0.000755939
8.93647e-05
1.03919e-05
0.000751612
7.6794e-05
2.04423e-05
0.000780498
7.38688e-05
4.55924e-05
0.000597388
5.23115e-05
0.000121579
0.000605238
-2.56653e-05
0.000413913
0.000215296
-0.000149927
0.00279722
-0.000151081
0.00352974
0.000915194
1.08027e-08
6.17428e-05
0.000953328
5.54995e-08
7.92928e-05
0.000983165
1.6356e-07
8.05235e-05
0.000998553
4.05072e-07
7.79534e-05
0.000998154
9.78629e-07
8.34762e-05
0.000994981
2.48118e-06
8.75687e-05
0.000969396
6.91428e-06
8.88529e-05
0.000913477
2.60151e-05
3.17087e-05
0.000849808
0.000275399
1.69615e-05
0.000440809
0.000443477
0.000915175
2.279e-08
6.17385e-05
0.00095328
1.2553e-07
7.92754e-05
0.000983083
3.50672e-07
8.05125e-05
0.00099844
8.5026e-07
7.78813e-05
0.000997962
2.03764e-06
8.3323e-05
0.000994578
5.1455e-06
8.72132e-05
0.000968181
1.4257e-05
8.80584e-05
0.000909724
5.17019e-05
2.76232e-05
0.000725248
0.000569894
-2.0633e-05
0.00110142
0.000263155
0.000915131
3.67527e-08
6.17299e-05
0.000953174
2.19835e-07
7.92503e-05
0.000983058
5.9054e-07
8.03811e-05
0.000998346
1.39962e-06
7.77513e-05
0.000997607
3.31747e-06
8.3131e-05
0.00099365
8.34271e-06
8.68e-05
0.000966253
2.30908e-05
8.71477e-05
0.000903578
8.33344e-05
2.30981e-05
0.000607682
0.000968575
-6.48404e-05
0.00160442
0.000238624
0.000915053
5.40745e-08
6.17158e-05
0.000952993
3.5097e-07
7.92219e-05
0.000983167
9.1885e-07
8.00444e-05
0.000998352
2.11897e-06
7.75353e-05
0.000997143
4.92929e-06
8.28988e-05
0.000992255
1.22802e-05
8.63309e-05
0.000963163
3.39577e-05
8.61781e-05
0.000896405
0.000121781
1.98392e-05
0.000601035
0.0013688
-0.000110407
0.0021104
0.000186272
0.000914926
7.88771e-08
6.16955e-05
0.000952705
5.51694e-07
7.91886e-05
0.000983354
1.38589e-06
7.9519e-05
0.000998438
3.06599e-06
7.72029e-05
0.000996631
6.94228e-06
8.25705e-05
0.000990637
1.7086e-05
8.56937e-05
0.000959875
4.71666e-05
8.48649e-05
0.000888273
0.000165802
1.73906e-05
0.000584666
0.00176815
-0.000136173
0.00258376
0.000150901
0.000914724
1.27534e-07
6.16644e-05
0.000952261
8.85892e-07
7.91494e-05
0.000983659
2.06061e-06
7.87229e-05
0.000998808
4.14907e-06
7.67036e-05
0.000996398
9.22177e-06
8.21132e-05
0.00098913
2.27663e-05
8.47902e-05
0.000956021
6.32604e-05
8.30831e-05
0.000879689
0.000217529
1.51293e-05
0.000572317
0.00217692
-0.000159323
0.00303217
0.000117044
0.000914398
2.48748e-07
6.16013e-05
0.000951587
1.47753e-06
7.9093e-05
0.000984878
2.42055e-06
7.74225e-05
0.00100043
5.10298e-06
7.59572e-05
0.000997158
1.17992e-05
8.15103e-05
0.000988041
2.97013e-05
8.35816e-05
0.000952227
8.32564e-05
8.05854e-05
0.000870784
0.000277012
1.25615e-05
0.000562583
0.00259379
-0.000182507
0.00345584
9.02667e-05
0.000913821
5.14326e-07
6.14514e-05
0.00095083
2.26482e-06
7.89507e-05
0.000983872
3.20617e-06
7.66416e-05
0.000998919
6.41218e-06
7.53037e-05
0.000994913
1.48284e-05
8.05804e-05
0.000984967
3.77534e-05
8.17353e-05
0.000945145
0.000107092
7.78638e-05
0.000861854
0.00034864
9.84689e-06
0.0005549
0.00302325
-0.000208335
0.00386053
5.91945e-05
0.000912884
6.88887e-07
6.11398e-05
0.000949822
2.89844e-06
7.86744e-05
0.000982388
3.99743e-06
7.5766e-05
0.000996961
7.88862e-06
7.45994e-05
0.000992825
1.82141e-05
7.91068e-05
0.000982196
4.65013e-05
7.91877e-05
0.000941584
0.0001333
7.32512e-05
0.000854497
0.000422125
3.78534e-06
0.000542063
0.00343944
-0.000215985
0.00425544
1.99982e-05
0.000911701
6.07202e-05
8.16167e-07
0.000948616
7.83303e-05
3.30922e-06
0.000980688
7.47397e-05
4.52921e-06
0.000995076
7.37575e-05
9.08527e-06
0.000991884
7.73014e-05
2.08484e-05
0.000983556
7.60125e-05
5.25895e-05
0.000949789
6.74501e-05
0.000151796
0.000857323
-8.11885e-06
0.000496585
0.000506202
-0.000277399
0.00391559
-3.61413e-06
0.00461232
0.00088791
2.85193e-09
1.35041e-05
0.000923011
3.88234e-08
4.41529e-05
0.00096022
1.33991e-07
4.31782e-05
0.000986125
3.49361e-07
5.16902e-05
0.00102118
9.24904e-07
4.74753e-05
0.00105853
2.52e-06
4.76457e-05
0.00108755
7.33745e-06
5.24154e-05
0.00106289
2.86147e-05
2.75912e-05
0.000814509
0.000299347
-3.68148e-05
0.000879756
0.000376083
0.000887895
4.98279e-09
1.35152e-05
0.000922968
9.41166e-08
4.41471e-05
0.000960297
2.49312e-07
4.30659e-05
0.000986215
6.99462e-07
5.16042e-05
0.00102113
1.91652e-06
4.73962e-05
0.001058
5.28477e-06
4.75305e-05
0.00108591
1.54998e-05
5.19008e-05
0.00105618
6.04808e-05
2.53273e-05
0.000624284
0.000763203
-5.53493e-05
0.00153947
0.000225655
0.000887856
6.63327e-09
1.35461e-05
0.000922894
1.7527e-07
4.41309e-05
0.000960222
3.88103e-07
4.29135e-05
0.000986111
1.11392e-06
5.14401e-05
0.00102082
3.08465e-06
4.7235e-05
0.00105697
8.53489e-06
4.73482e-05
0.00108326
2.51614e-05
5.11083e-05
0.00104361
0.00010035
2.27171e-05
0.000542406
0.00127503
-7.81177e-05
0.00215358
0.000164921
0.00088778
8.83278e-09
1.36083e-05
0.000922783
2.94403e-07
4.40971e-05
0.000959851
6.18641e-07
4.27458e-05
0.000985642
1.67352e-06
5.11763e-05
0.00102013
4.539e-06
4.69365e-05
0.00105545
1.24791e-05
4.70157e-05
0.00107955
3.68797e-05
5.02797e-05
0.00103119
0.000147806
2.05755e-05
0.000538813
0.0017449
-9.04686e-05
0.00273785
0.000138878
0.00088765
1.34996e-08
1.37157e-05
0.000922602
4.87469e-07
4.40397e-05
0.000959309
9.49447e-07
4.24796e-05
0.000985022
2.38524e-06
5.07697e-05
0.00101934
6.29454e-06
4.64761e-05
0.00105378
1.7168e-05
4.65127e-05
0.00107532
5.07733e-05
4.93561e-05
0.0010195
0.000202328
1.85169e-05
0.000513705
0.00221446
-0.000102465
0.00328206
0.000118474
0.000887434
2.7915e-08
1.38907e-05
0.000922316
8.04809e-07
4.39458e-05
0.000958575
1.36163e-06
4.20486e-05
0.000984341
3.12867e-06
5.01838e-05
0.00101866
8.20613e-06
4.58559e-05
0.00105198
2.26185e-05
4.59711e-05
0.0010696
6.75588e-05
4.86041e-05
0.00100606
0.000263947
1.67865e-05
0.000495966
0.00268594
-0.000123197
0.00378933
0.000103861
0.00088708
6.47386e-08
1.41594e-05
0.000921898
1.30181e-06
4.37702e-05
0.000957665
1.53399e-06
4.14803e-05
0.000983743
3.61829e-06
4.93785e-05
0.00101833
1.01169e-05
4.49893e-05
0.00105027
2.893e-05
4.52717e-05
0.0010629
8.77992e-05
4.76441e-05
0.000991276
0.000332976
1.4848e-05
0.000471863
0.00316074
-0.000140384
0.00425975
8.96505e-05
0.000886498
1.40431e-07
1.4554e-05
0.000921464
1.85897e-06
4.34145e-05
0.000956826
1.86897e-06
4.09442e-05
0.000982929
4.28769e-06
4.85212e-05
0.00101709
1.24015e-05
4.41127e-05
0.001047
3.63062e-05
4.43854e-05
0.00105475
0.000111549
4.62812e-05
0.000976831
0.000408221
1.21603e-05
0.000445884
0.003625
-0.000144337
0.00469343
6.95937e-05
0.000885665
1.95836e-07
1.50971e-05
0.000920965
2.31359e-06
4.29019e-05
0.000955998
2.20803e-06
4.0396e-05
0.00098257
5.13719e-06
4.7168e-05
0.00101582
1.5126e-05
4.31034e-05
0.00104348
4.46154e-05
4.31469e-05
0.0010464
0.00013792
4.38526e-05
0.000964659
0.00048603
7.29232e-06
0.000467266
0.00405792
-0.000153875
0.00510413
7.41977e-05
0.00088463
1.57393e-05
2.26425e-07
0.000920416
4.22562e-05
2.58045e-06
0.000955125
3.97946e-05
2.44711e-06
0.000982318
4.56007e-05
6.08978e-06
0.00101494
4.19643e-05
1.78073e-05
0.00104201
4.17577e-05
5.17167e-05
0.00104464
4.11474e-05
0.000161464
0.000958229
5.83634e-07
0.000563236
0.00028222
-0.000242866
0.00469641
8.51307e-05
0.00529517
0.000853359
5.27319e-09
-9.4535e-11
0.000897475
3.59205e-08
5.06851e-10
0.000940581
7.33422e-08
2.76781e-10
0.000992017
2.46686e-07
-1.3232e-09
0.00103869
7.86282e-07
-5.33528e-09
0.00108392
2.37395e-06
-1.25621e-08
0.00112902
7.24834e-06
-2.68286e-08
0.0011276
2.8877e-05
-4.97534e-08
0.000766506
0.000321279
-1.19891e-07
0.00114155
-1.18187e-06
0.000853367
1.34823e-08
-1.49572e-10
0.000897458
9.1146e-08
4.18627e-10
0.000940478
1.20081e-07
1.10588e-10
0.000991853
4.70754e-07
-1.56674e-09
0.00103841
1.60732e-06
-5.70181e-09
0.0010833
4.97639e-06
-1.29897e-08
0.00112697
1.54215e-05
-2.74038e-08
0.00111766
6.33796e-05
-5.20467e-08
0.000507863
0.000873183
-5.15515e-07
0.0018744
-1.49977e-06
0.000853393
2.61696e-08
-2.29133e-10
0.000897437
1.76417e-07
3.88172e-10
0.000940297
1.77659e-07
3.72034e-11
0.000991483
7.20458e-07
-1.38686e-09
0.00103777
2.53936e-06
-5.28679e-09
0.0010821
7.95738e-06
-1.14912e-08
0.00112346
2.51016e-05
-2.31159e-08
0.00110186
0.000107559
-4.67066e-08
0.000455043
0.00143967
-7.79456e-07
0.00249407
-1.82748e-06
0.00085345
4.53913e-08
-2.8363e-10
0.000897414
3.05988e-07
4.28594e-10
0.000940041
3.00378e-07
-2.68845e-10
0.000990872
1.06265e-06
-9.36354e-10
0.00103665
3.68117e-06
-3.69107e-09
0.00108004
1.15397e-05
-6.46943e-09
0.0011186
3.67608e-05
-1.26305e-08
0.0010872
0.000159384
-4.20846e-08
0.00048657
0.00194777
-8.36095e-07
0.00311905
-1.60564e-06
0.000853546
7.65526e-08
-2.95922e-10
0.00089737
5.1702e-07
4.76525e-10
0.000939691
4.63316e-07
-6.86086e-10
0.000990064
1.45522e-06
-1.57459e-10
0.0010352
5.00241e-06
-1.15231e-09
0.00107743
1.57784e-05
2.33256e-10
0.00111283
5.06406e-05
2.78535e-09
0.00107325
0.000217314
-4.43034e-08
0.000459969
0.0024564
-6.92771e-07
0.00369733
-1.89534e-06
0.000853704
1.24567e-07
-2.05568e-10
0.000897322
8.38851e-07
5.33082e-10
0.000939223
6.159e-07
-9.90821e-10
0.000989052
1.80386e-06
1.04241e-09
0.00103348
6.4104e-06
2.07189e-09
0.00107449
2.06825e-05
7.48385e-09
0.00110647
6.71791e-05
1.3363e-08
0.00105748
0.000282986
-1.3007e-07
0.000433545
0.00295569
-1.4398e-06
0.00423443
-1.72377e-06
0.000853958
1.8885e-07
6.47832e-11
0.000897293
1.26535e-06
4.44194e-10
0.000938704
6.90206e-07
-4.54459e-10
0.000987846
2.03408e-06
2.03562e-09
0.00103136
7.86037e-06
3.46452e-09
0.00107092
2.63331e-05
8.9743e-09
0.00109884
8.68257e-05
3.96382e-09
0.00104096
0.000355732
-2.79393e-07
0.000390047
0.00346449
-1.13849e-06
0.00471297
-9.24008e-07
0.000854354
2.54178e-07
4.30109e-10
0.000897322
1.69875e-06
7.52215e-10
0.000938239
7.23773e-07
-1.20411e-10
0.000986522
2.27118e-06
-1.70091e-09
0.00102892
9.55348e-06
-2.59277e-09
0.00106668
3.28996e-05
-2.3712e-09
0.00109044
0.000109307
-4.00983e-08
0.00102549
0.000433209
-7.17274e-07
0.000420008
0.00392806
-5.58766e-06
0.00516464
3.57614e-05
0.00085491
3.08047e-07
9.17305e-10
0.000897444
2.0518e-06
1.12712e-10
0.000937848
7.24328e-07
2.40649e-10
0.000984667
2.618e-06
-1.37599e-09
0.00102563
1.16724e-05
-1.70453e-09
0.00106097
4.06314e-05
3.90125e-09
0.00107875
0.000135312
-3.04886e-08
0.00100686
0.000514
-2.07896e-06
0.000458134
0.00440376
-8.3515e-05
0.00556462
0.000129356
0.000855575
1.11565e-09
3.42029e-07
0.000897671
-4.02284e-10
2.19361e-06
0.0009375
-9.87686e-11
7.01841e-07
0.000982399
-1.95868e-09
3.31851e-06
0.00102175
-3.0088e-09
1.42626e-05
0.00105582
-2.4202e-10
4.82417e-05
0.0010701
-3.19914e-08
0.000162095
0.000994859
-8.15216e-07
0.000590089
-2.25012e-05
-1.06554e-05
0.00518552
5.48755e-07
0.00562429
0.000853358
5.24294e-09
-1.35033e-05
0.000897476
3.56991e-08
-4.41537e-05
0.000940584
7.27715e-08
-4.31794e-05
0.000992021
2.45507e-07
-5.16919e-05
0.0010387
7.83912e-07
-4.74921e-05
0.00108393
2.36892e-06
-4.76623e-05
0.00112904
7.23668e-06
-5.24674e-05
0.0011277
2.88455e-05
-2.77422e-05
0.000766944
0.000320842
3.66963e-05
0.00114115
-0.00037757
0.000853366
1.34152e-08
-1.35144e-05
0.000897459
9.06362e-08
-4.41482e-05
0.000940482
1.18995e-07
-4.30677e-05
0.000991857
4.68626e-07
-5.16069e-05
0.00103842
1.60353e-06
-4.74151e-05
0.00108331
4.96977e-06
-4.75508e-05
0.00112699
1.54108e-05
-5.19695e-05
0.00111776
6.33686e-05
-2.55345e-05
0.00050859
0.000873029
5.34343e-05
0.00187432
-0.000228223
0.000853392
2.60568e-08
-1.3545e-05
0.000897438
1.7557e-07
-4.41325e-05
0.0009403
1.75609e-07
-4.2915e-05
0.000991488
7.17119e-07
-5.14428e-05
0.00103779
2.53456e-06
-4.72557e-05
0.00108211
7.95138e-06
-4.73685e-05
0.00112348
2.50983e-05
-5.11742e-05
0.00110195
0.000107584
-2.29154e-05
0.000455807
0.0014395
7.59203e-05
0.00249338
-0.000167183
0.000853448
4.52186e-08
-1.36069e-05
0.000897416
3.04722e-07
-4.40996e-05
0.000940046
2.97462e-07
-4.2748e-05
0.000990876
1.05822e-06
-5.11774e-05
0.00103667
3.67564e-06
-4.69571e-05
0.00108006
1.15348e-05
-4.70302e-05
0.00111863
3.67664e-05
-5.03215e-05
0.00108726
0.000159448
-2.07368e-05
0.000487286
0.00194727
8.84834e-05
0.00311782
-0.00014082
0.000853543
7.63106e-08
-1.37137e-05
0.000897373
5.15319e-07
-4.40435e-05
0.000939696
4.59747e-07
-4.24826e-05
0.000990067
1.45033e-06
-5.07679e-05
0.00103522
4.99714e-06
-4.64949e-05
0.00107745
1.57758e-05
-4.65158e-05
0.00111285
5.06536e-05
-4.93602e-05
0.0010733
0.000217361
-1.86168e-05
0.000461356
0.00245567
9.9934e-05
0.00369564
-0.000120402
0.000853701
1.24269e-07
-1.3888e-05
0.000897326
8.36795e-07
-4.3951e-05
0.000939228
6.1257e-07
-4.2052e-05
0.000989053
1.79949e-06
-5.01774e-05
0.0010335
6.40528e-06
-4.58703e-05
0.00107451
2.06773e-05
-4.5956e-05
0.00110649
6.71749e-05
-4.85548e-05
0.00105745
0.000282913
-1.6887e-05
0.000433879
0.00295423
0.00012072
0.0042322
-0.000106427
0.000853955
1.88572e-07
-1.4156e-05
0.000897298
1.26335e-06
-4.37771e-05
0.000938709
6.88313e-07
-4.14832e-05
0.000987844
2.03059e-06
-4.9368e-05
0.00103138
7.85429e-06
-4.49991e-05
0.00107093
2.6319e-05
-4.52422e-05
0.00109882
8.67778e-05
-4.75619e-05
0.00104095
0.000355335
-1.50905e-05
0.000400112
0.00345514
0.000135853
0.00472356
-9.42234e-05
0.000854349
2.53974e-07
-1.45486e-05
0.000897327
1.69757e-06
-4.34228e-05
0.000938245
7.22494e-07
-4.09458e-05
0.000986533
2.26878e-06
-4.85314e-05
0.00102893
9.54774e-06
-4.41154e-05
0.00106667
3.2885e-05
-4.4367e-05
0.0010903
0.00010925
-4.62243e-05
0.00102477
0.000432255
-1.25067e-05
0.00043225
0.00389615
0.00014277
0.00530278
-0.000113333
0.000854907
3.08022e-07
-1.50924e-05
0.000897449
2.05179e-06
-4.29105e-05
0.000937853
7.24039e-07
-4.03969e-05
0.000984681
2.6174e-06
-4.71799e-05
0.00102564
1.1671e-05
-4.31116e-05
0.00106098
4.06276e-05
-4.31376e-05
0.00107867
0.000135298
-4.38668e-05
0.00100085
0.000514677
-7.15793e-06
-1.96274e-05
0.00444589
0.000384316
0.00562383
-0.000214152
0.000855573
-1.57356e-05
3.42168e-07
0.000897676
-4.22642e-05
2.19458e-06
0.000937506
-3.97964e-05
7.02662e-07
0.000982412
-4.56138e-05
3.32039e-06
0.00102176
-4.19754e-05
1.42672e-05
0.00105581
-4.17529e-05
4.82538e-05
0.00106997
-4.11373e-05
0.000162127
0.000992932
-3.19338e-07
0.000590674
-1.28729e-05
0.000254114
0.00518352
-8.52843e-05
0.00569406
0.000887911
2.81252e-09
-6.17432e-05
0.000923015
3.83133e-08
-7.92954e-05
0.000960227
1.32609e-07
-8.0527e-05
0.000986139
3.46469e-07
-7.79603e-05
0.00102119
9.18785e-07
-8.34819e-05
0.00105856
2.50624e-06
-8.75846e-05
0.00108758
7.30376e-06
-8.88763e-05
0.00106307
2.85253e-05
-3.19276e-05
0.000817173
0.000298345
-1.85154e-05
0.00088107
-0.000443528
0.000887897
4.83026e-09
-6.17391e-05
0.000922972
9.26641e-08
-7.9278e-05
0.000960304
2.46277e-07
-8.05165e-05
0.00098623
6.93439e-07
-7.78893e-05
0.00102114
1.90524e-06
-8.33321e-05
0.00105802
5.2631e-06
-8.72349e-05
0.00108594
1.54584e-05
-8.81238e-05
0.00105641
6.04267e-05
-2.80746e-05
0.000625385
0.000763014
1.70743e-05
0.00154169
-0.000265474
0.000887858
6.27621e-09
-6.17307e-05
0.000922898
1.72645e-07
-7.92533e-05
0.000960233
3.82285e-07
-8.03868e-05
0.000986133
1.10408e-06
-7.77615e-05
0.00102083
3.0688e-06
-8.31429e-05
0.001057
8.50935e-06
-8.68284e-05
0.00108331
2.51265e-05
-8.72346e-05
0.00104378
0.000100393
-2.35136e-05
0.000543033
0.0012741
6.29304e-05
0.00215383
-0.000238241
0.000887783
8.20559e-09
-6.17171e-05
0.000922789
2.90392e-07
-7.92262e-05
0.000959864
6.10201e-07
-8.00509e-05
0.000985671
1.6601e-06
-7.75483e-05
0.00102015
4.51943e-06
-8.29135e-05
0.0010555
1.24525e-05
-8.63636e-05
0.00107963
3.68596e-05
-8.62619e-05
0.00103129
0.000147949
-2.01286e-05
0.000539541
0.00174382
0.000107935
0.00273724
-0.00018661
0.000887654
1.25038e-08
-6.16977e-05
0.000922611
4.81955e-07
-7.91948e-05
0.000959325
9.38741e-07
-7.95265e-05
0.000985058
2.36963e-06
-7.72195e-05
0.00101937
6.27426e-06
-8.25882e-05
0.00105385
1.71463e-05
-8.57295e-05
0.00107543
5.07785e-05
-8.49402e-05
0.0010195
0.000202518
-1.74313e-05
0.000514317
0.00221285
0.000133518
0.00328049
-0.000151227
0.000887441
2.64847e-08
-6.16679e-05
0.000922327
7.98057e-07
-7.91583e-05
0.000958593
1.35038e-06
-7.87317e-05
0.000984385
3.11395e-06
-7.6724e-05
0.00101871
8.18853e-06
-8.2132e-05
0.00105207
2.26001e-05
-8.48199e-05
0.00106977
6.75518e-05
-8.31033e-05
0.00100594
0.000263925
-1.47408e-05
0.000496616
0.00268306
0.000157293
0.00378617
-0.000117358
0.000887089
6.32609e-08
-6.16068e-05
0.000921913
1.29463e-06
-7.91047e-05
0.000957684
1.52722e-06
-7.74342e-05
0.000983788
3.61062e-06
-7.59796e-05
0.00101837
1.01054e-05
-8.15255e-05
0.00105036
2.89042e-05
-8.35884e-05
0.00106308
8.77166e-05
-8.05119e-05
0.000990972
0.000332343
-1.17257e-05
0.000474774
0.00315114
0.000181403
0.00425449
-8.98354e-05
0.000886509
1.39202e-07
-6.14577e-05
0.00092148
1.85554e-06
-7.89671e-05
0.000956844
1.86478e-06
-7.66466e-05
0.000982937
4.28017e-06
-7.53039e-05
0.00101709
1.23849e-05
-8.05776e-05
0.00104707
3.62619e-05
-8.17556e-05
0.00105469
0.000111376
-7.75903e-05
0.000975905
0.000406883
-8.6227e-06
0.00047388
0.00358511
0.000208098
0.00466879
-5.55753e-05
0.000885677
1.95608e-07
-6.11486e-05
0.000920982
2.31396e-06
-7.86903e-05
0.000956016
2.20807e-06
-7.57719e-05
0.000982575
5.13717e-06
-7.46051e-05
0.00101581
1.51258e-05
-7.91225e-05
0.00104346
4.46146e-05
-7.92004e-05
0.00104598
0.000137915
-7.30313e-05
0.00096048
0.000486855
-2.03408e-06
0.000589708
0.00408874
0.000248655
0.00505275
-1.0552e-05
0.000884642
-6.07293e-05
2.26906e-07
0.000920432
-7.83449e-05
2.58387e-06
0.000955143
-7.47462e-05
2.45109e-06
0.000982324
-7.37644e-05
6.09712e-06
0.00101494
-7.732e-05
1.78234e-05
0.001042
-7.60396e-05
5.17576e-05
0.00104444
-6.737e-05
0.000161593
0.000958498
8.55356e-06
0.000563444
0.000317801
0.000281375
0.00469895
6.97449e-08
0.00528298
0.000915196
1.08666e-08
-0.000137518
0.000953334
5.50726e-08
-0.000117488
0.00098317
1.62117e-07
-0.000110529
0.000998561
4.01756e-07
-9.37645e-05
0.00099818
9.71577e-07
-8.40958e-05
0.000995019
2.46553e-06
-8.69376e-05
0.000969469
6.88276e-06
-7.02963e-05
0.000913773
2.59819e-05
-2.41106e-06
0.000855175
0.00027554
-0.000237355
0.000453018
-4.30713e-05
0.000915177
2.23333e-08
-0.000137495
0.000953285
1.23408e-07
-0.000117455
0.000983089
3.46017e-07
-0.000110508
0.000998451
8.41131e-07
-9.3702e-05
0.000997988
2.01954e-06
-8.39403e-05
0.000994627
5.10664e-06
-8.65635e-05
0.000968198
1.41695e-05
-6.90671e-05
0.000909889
5.15803e-05
4.44056e-06
0.000723144
0.000568493
-9.10854e-05
0.00110482
-0.000195784
0.000915134
3.55446e-08
-0.000137444
0.000953181
2.15407e-07
-0.000117394
0.000983066
5.81618e-07
-0.000110511
0.00099836
1.38332e-06
-9.36084e-05
0.000997639
3.28703e-06
-8.37133e-05
0.000993715
8.28054e-06
-8.61265e-05
0.000966281
2.2964e-05
-6.86784e-05
0.000903743
8.33109e-05
7.09638e-06
0.0006078
0.000966347
-4.09371e-05
0.00160673
-0.000134007
0.000915057
5.20649e-08
-0.000137357
0.000953002
3.44042e-07
-0.000117302
0.000983178
9.05539e-07
-0.000110556
0.000998373
2.09585e-06
-9.34667e-05
0.000997193
4.88837e-06
-8.33589e-05
0.000992365
1.22006e-05
-8.55038e-05
0.000963344
3.38084e-05
-6.81692e-05
0.000896475
0.000121843
8.00911e-06
0.000601121
0.00136755
1.62399e-07
0.00211149
-9.17752e-05
0.000914933
7.58643e-08
-0.000137221
0.000952718
5.41988e-07
-0.000117181
0.00098337
1.36835e-06
-0.000110647
0.000998468
3.03755e-06
-9.32713e-05
0.000996704
6.89557e-06
-8.28571e-05
0.00099081
1.70015e-05
-8.46871e-05
0.000960256
4.7031e-05
-6.76931e-05
0.00088829
0.000166111
1.00573e-05
0.000584355
0.00176665
3.64311e-05
0.0025835
-4.04227e-05
0.000914734
1.23106e-07
-0.000137015
0.000952279
8.73258e-07
-0.000117039
0.000983682
2.03977e-06
-0.000110814
0.000998848
4.12002e-06
-9.29874e-05
0.000996501
9.17929e-06
-8.20968e-05
0.000989397
2.2698e-05
-8.34669e-05
0.000956774
6.31667e-05
-6.67046e-05
0.000879667
0.000217738
1.0513e-05
0.000572116
0.00217453
5.50116e-05
0.00303021
6.5558e-06
0.000914412
2.4281e-07
-0.000136704
0.00095161
1.46327e-06
-0.0001169
0.000984897
2.40611e-06
-0.000111097
0.00100047
5.08404e-06
-9.25318e-05
0.000997273
1.17756e-05
-8.09574e-05
0.000988393
2.9677e-05
-8.17462e-05
0.000953391
8.32093e-05
-6.56504e-05
0.000870701
0.000276562
1.18975e-05
0.00056302
0.00258855
7.30387e-05
0.00345252
4.92501e-05
0.000913841
5.12187e-07
-0.000136134
0.000950859
2.25938e-06
-0.000116793
0.000983911
3.19885e-06
-0.000110498
0.000998997
6.40021e-06
-9.1724e-05
0.000995097
1.48036e-05
-7.97428e-05
0.000985125
3.76827e-05
-7.98576e-05
0.000946398
0.000106878
-6.26563e-05
0.000861321
0.000347355
5.37083e-06
0.000557935
0.00301169
8.61924e-05
0.00385654
9.67748e-05
0.000912906
6.89523e-07
-0.000134794
0.000949851
2.90049e-06
-0.000116293
0.000982427
4.00012e-06
-0.000109155
0.000997024
7.89439e-06
-9.07148e-05
0.000992936
1.82271e-05
-7.85001e-05
0.000982378
4.6531e-05
-7.75704e-05
0.000942552
0.000133354
-5.98204e-05
0.000853454
0.00042181
1.22701e-05
0.000553666
0.00344987
0.000107935
0.00425801
0.000139966
0.000911722
-0.000133138
8.1852e-07
0.000948643
-0.000115701
3.31607e-06
0.000980724
-0.000107371
4.53859e-06
0.000995132
-8.94004e-05
9.10229e-06
0.000991975
-7.68682e-05
2.08836e-05
0.0009837
-7.39988e-05
5.26717e-05
0.000950394
-5.28543e-05
0.000152009
0.000857181
2.66551e-05
0.000496502
0.000510867
0.000151015
0.00392395
0.000153967
0.00461316
0.000903292
2.53242e-08
-0.000201281
0.000858196
6.66303e-08
-7.24607e-05
0.000788201
1.6093e-07
-4.07001e-05
0.000757564
3.73432e-07
-6.3512e-05
0.000756275
8.50802e-07
-8.36773e-05
0.000782257
1.98768e-06
-0.000114946
0.00058998
5.41281e-06
0.00011648
0.000627546
1.97792e-05
-5.99252e-05
-1.81028e-05
0.000311092
9.60873e-05
0.000184632
-0.000246537
0.000903266
5.62699e-08
-0.000201238
0.000858255
1.44491e-07
-7.25243e-05
0.000788126
3.45154e-07
-4.0569e-05
0.000757453
7.91801e-07
-6.34584e-05
0.000756113
1.78238e-06
-8.35525e-05
0.000782661
4.15191e-06
-0.000115315
0.000598226
1.06309e-05
0.000110061
0.000633756
3.75721e-05
-4.90831e-05
0.000418044
0.000376837
5.74642e-05
0.000648929
-0.000242861
0.000903208
9.61605e-08
-0.000201138
0.000858388
2.43065e-07
-7.26748e-05
0.000787903
5.76076e-07
-4.0263e-05
0.00075711
1.31167e-06
-6.33477e-05
0.000755625
2.93585e-06
-8.34041e-05
0.000781683
6.83726e-06
-0.00011491
0.000596545
1.74922e-05
0.000109511
0.000631589
6.08079e-05
-5.14025e-05
0.000290683
0.000613694
6.1631e-05
0.00100593
-0.000201278
0.000903109
1.47811e-07
-0.000200963
0.000858616
3.71535e-07
-7.29399e-05
0.000787479
8.75586e-07
-3.9726e-05
0.000756494
1.97916e-06
-6.31616e-05
0.000754833
4.39351e-06
-8.31786e-05
0.000780228
1.01645e-05
-0.000114268
0.000591734
2.58803e-05
0.000111841
0.000623338
8.99029e-05
-5.29454e-05
0.000267261
0.00088112
8.72674e-05
0.00135469
-0.000174191
0.000902957
2.18664e-07
-0.000200692
0.000858943
5.49596e-07
-7.33479e-05
0.000786768
1.28548e-06
-3.88912e-05
0.000755473
2.86914e-06
-6.28815e-05
0.000753574
6.28466e-06
-8.28748e-05