/*--------------------------------*- C++ -*----------------------------------*\
  =========                 |
  \\      /  F ield         | OpenFOAM: The Open Source CFD Toolbox
   \\    /   O peration     | Website:  https://openfoam.org
    \\  /    A nd           | Version:  6.0
     \\/     M anipulation  |
\*---------------------------------------------------------------------------*/
FoamFile
{
    version     2.0;
    format      ascii;
    class       volScalarField;
    location    "3.5";
    object      p;
}
// * * * * * * * * * * * * * * * * * * * * * * * * * * * * * * * * * * * * * //

dimensions      [1 -1 -2 0 0 0 0];

internalField   nonuniform List<scalar> 
24000
(
0.704433
0.583412
0.535203
0.501508
0.477798
0.466938
0.467292
0.470083
0.48031
0.509649
0.586385
0.786427
1.36652
3.06951
3.5838
3.64054
3.75611
4.0161
4.62726
5.9686
0.704433
0.583411
0.535203
0.501502
0.477799
0.466912
0.467263
0.470048
0.480256
0.509553
0.586205
0.786139
1.36649
3.07026
3.58499
3.64154
3.75691
4.01676
4.62845
5.96918
0.704433
0.583408
0.535204
0.501491
0.477799
0.466857
0.467203
0.469972
0.480137
0.509336
0.585784
0.785373
1.36552
3.06967
3.58739
3.64348
3.75831
4.01788
4.63045
5.97072
0.704433
0.583404
0.535206
0.501474
0.477801
0.466771
0.46711
0.469852
0.479949
0.508985
0.585078
0.783989
1.36317
3.06674
3.59066
3.64629
3.76048
4.01958
4.63284
5.97371
0.704433
0.583398
0.535209
0.50145
0.477802
0.466653
0.46698
0.469687
0.479686
0.508489
0.58406
0.781897
1.35906
3.06042
3.59426
3.64951
3.7631
4.02172
4.63528
5.97825
0.704434
0.58339
0.535213
0.501419
0.477803
0.466502
0.466816
0.469475
0.479348
0.507843
0.582714
0.779043
1.35296
3.04963
3.59762
3.65269
3.76589
4.02412
4.63732
5.98416
0.704438
0.583379
0.535219
0.50138
0.477804
0.46632
0.466616
0.469218
0.478934
0.50705
0.58104
0.7754
1.34467
3.03291
3.60047
3.65545
3.76846
4.02655
4.63882
5.99074
0.704446
0.583363
0.535226
0.501334
0.477805
0.466107
0.466383
0.468917
0.47845
0.506116
0.579051
0.770958
1.33393
3.0078
3.6028
3.65772
3.7706
4.02871
4.6394
5.9971
0.704455
0.583344
0.535234
0.501281
0.477808
0.465864
0.466117
0.468573
0.477896
0.505048
0.57676
0.76569
1.32015
2.97177
3.60371
3.65936
3.77267
4.03067
4.63865
6.00162
0.704466
0.583324
0.535244
0.50122
0.477813
0.465587
0.465813
0.468181
0.477266
0.503826
0.574113
0.759502
1.30335
2.92518
3.60225
3.65966
3.77434
4.0322
4.63582
6.00269
0.704479
0.583301
0.535256
0.501151
0.477822
0.465273
0.465469
0.467738
0.476552
0.50244
0.571094
0.75237
1.28379
2.86814
3.59823
3.65897
3.77427
4.03158
4.62959
5.99886
0.704493
0.583277
0.53527
0.501074
0.477835
0.464922
0.465085
0.467242
0.475752
0.500878
0.567678
0.744243
1.26129
2.80014
3.5929
3.65692
3.77236
4.02806
4.61826
5.98566
0.704508
0.58325
0.535288
0.500989
0.477853
0.464534
0.46466
0.466691
0.474859
0.499131
0.56384
0.735056
1.23567
2.72041
3.58685
3.65352
3.76784
4.02016
4.60002
5.9555
0.704527
0.583223
0.535308
0.500899
0.477876
0.46411
0.464193
0.466085
0.473869
0.497183
0.559544
0.724702
1.20653
2.62748
3.58062
3.64932
3.76046
4.00643
4.57142
5.9056
0.704548
0.583195
0.535331
0.500803
0.477906
0.463652
0.463685
0.465416
0.472769
0.495012
0.554742
0.713006
1.17319
2.51909
3.57587
3.64466
3.74987
3.98523
4.5287
5.83223
0.704575
0.583168
0.535357
0.500705
0.477938
0.463218
0.463055
0.464634
0.471534
0.492603
0.549384
0.69975
1.1349
2.39335
3.57384
3.63899
3.7352
3.95487
4.46818
5.72904
0.704617
0.58313
0.535386
0.500602
0.477982
0.462856
0.462221
0.463685
0.470142
0.489961
0.543457
0.684745
1.09011
2.24999
3.57379
3.63051
3.71415
3.91225
4.38513
5.58569
0.704667
0.583085
0.535418
0.500494
0.478058
0.462486
0.461284
0.462627
0.468615
0.487097
0.53704
0.668391
1.04065
2.08988
3.57172
3.61634
3.68397
3.85405
4.27314
5.38652
0.704701
0.583053
0.535448
0.500392
0.478165
0.462069
0.460308
0.461513
0.466989
0.48404
0.5302
0.651015
0.988818
1.91985
3.55601
3.58932
3.63863
3.77336
4.12071
5.10203
0.704676
0.58308
0.535468
0.500309
0.478278
0.461622
0.459305
0.460361
0.465296
0.480839
0.523032
0.632747
0.931236
1.76913
3.49333
3.5434
3.5742
3.66597
3.91151
4.6679
1.04751
1.03841
1.01449
0.977649
0.951323
0.943828
0.946626
0.958907
0.995071
1.08793
1.31795
1.90338
3.44944
7.14189
7.72662
7.8065
8.00385
8.52295
9.85384
11.7914
1.0475
1.0384
1.01448
0.977638
0.951313
0.943778
0.946566
0.958814
0.994893
1.08755
1.31708
1.90128
3.44455
7.1405
7.72601
7.80572
8.00301
8.52172
9.85188
11.7835
1.0475
1.0384
1.01448
0.977614
0.951293
0.943677
0.946445
0.958625
0.99453
1.08677
1.31528
1.89681
3.43386
7.13505
7.7242
7.80362
8.00063
8.51867
9.84514
11.7712
1.0475
1.0384
1.01447
0.977578
0.951264
0.943523
0.946261
0.958336
0.993975
1.08557
1.3125
1.88978
3.41689
7.12398
7.72126
7.80023
7.9967
8.51361
9.83127
11.7589
1.04749
1.03839
1.01446
0.977529
0.951224
0.943313
0.946009
0.957944
0.99322
1.08394
1.30867
1.88006
3.39314
7.1058
7.71648
7.79505
7.99086
8.50605
9.80919
11.7474
1.04749
1.03838
1.01444
0.977465
0.951175
0.943047
0.945691
0.957448
0.992263
1.08186
1.30379
1.86758
3.36233
7.07873
7.70891
7.78744
7.98279
8.49568
9.77877
11.7358
1.04748
1.03838
1.01443
0.977385
0.951116
0.942726
0.945308
0.95685
0.991109
1.07935
1.29788
1.85246
3.32451
7.04011
7.69768
7.77665
7.97199
8.48211
9.74024
11.7229
1.04748
1.03837
1.01441
0.977292
0.951047
0.942352
0.944862
0.956156
0.989774
1.07645
1.29111
1.83521
3.28116
6.9835
7.68235
7.76242
7.95839
8.46502
9.69343
11.7058
1.04748
1.03836
1.01439
0.977184
0.95097
0.941927
0.944355
0.955372
0.988276
1.07324
1.28371
1.81692
3.23704
6.90092
7.66085
7.74391
7.94211
8.44439
9.63809
11.6819
1.04747
1.03835
1.01437
0.977063
0.950888
0.941446
0.943782
0.954485
0.986579
1.0696
1.27529
1.79603
3.18619
6.79821
7.63404
7.72122
7.92239
8.41894
9.57283
11.6467
1.04747
1.03834
1.01434
0.976927
0.950802
0.940903
0.943137
0.953485
0.984659
1.06545
1.2657
1.77223
3.12749
6.67646
7.60355
7.69536
7.89859
8.38726
9.49556
11.5938
1.04747
1.03833
1.01432
0.976778
0.950715
0.940298
0.942418
0.952366
0.982499
1.06078
1.25486
1.74532
3.06082
6.5351
7.57091
7.66663
7.87012
8.34847
9.4056
11.5141
1.04747
1.03832
1.0143
0.976615
0.950625
0.939632
0.941624
0.951125
0.980091
1.05554
1.24271
1.7152
2.98595
6.37281
7.53662
7.63481
7.83595
8.30027
9.3074
11.3918
1.04747
1.03831
1.01428
0.976443
0.950537
0.938906
0.940755
0.949759
0.977429
1.04975
1.22926
1.68192
2.90262
6.18598
7.5014
7.60077
7.79513
8.23951
9.19021
11.2274
1.04747
1.03831
1.01426
0.976264
0.950455
0.938125
0.939814
0.948265
0.97451
1.04342
1.21468
1.64597
2.81105
5.96922
7.4667
7.56508
7.74619
8.16266
9.04812
11.0153
1.04748
1.03831
1.01425
0.976088
0.950392
0.937285
0.938778
0.946609
0.971314
1.03659
1.19908
1.60768
2.71119
5.71711
7.43393
7.52596
7.68764
8.06691
8.87454
10.7436
1.0475
1.03831
1.01425
0.975926
0.950435
0.936258
0.937533
0.944729
0.967872
1.02942
1.18284
1.56783
2.60453
5.4276
7.40161
7.48063
7.61681
7.94786
8.66074
10.3983
1.04752
1.03833
1.01427
0.975777
0.950576
0.935057
0.936108
0.942661
0.964219
1.02194
1.16594
1.52638
2.49189
5.10594
7.36571
7.42403
7.52844
7.79997
8.39664
9.95007
1.04755
1.03834
1.01429
0.97566
0.950763
0.933764
0.93458
0.94047
0.960392
1.01416
1.14843
1.48347
2.37398
4.76147
7.31503
7.35111
7.41766
7.61648
8.06867
9.35884
1.04755
1.03835
1.01432
0.97559
0.950963
0.932442
0.933017
0.938224
0.956477
1.00623
1.13071
1.44031
2.25793
4.41893
7.22534
7.25577
7.28173
7.39398
7.65616
8.53737
1.0746
1.13284
1.14527
1.14295
1.137
1.13843
1.14672
1.17204
1.23652
1.39204
1.77069
2.75635
5.38527
9.96174
10.2273
10.2597
10.446
11.0511
12.6693
14.0234
1.0746
1.13284
1.14526
1.14294
1.13698
1.1384
1.14665
1.17191
1.23625
1.39145
1.76929
2.7526
5.37341
9.96016
10.2245
10.2562
10.4438
11.0499
12.6602
14.0116
1.0746
1.13284
1.14524
1.14291
1.13693
1.13832
1.14653
1.17166
1.23572
1.39025
1.7664
2.74472
5.3486
9.95426
10.2178
10.2483
10.4375
11.0455
12.6369
13.9885
1.0746
1.13284
1.14521
1.14287
1.13685
1.13821
1.14633
1.17128
1.23491
1.38843
1.76196
2.7325
5.31032
9.94252
10.2074
10.2364
10.4272
11.0371
12.5972
13.9567
1.07459
1.13284
1.14518
1.14282
1.13675
1.13807
1.14607
1.17077
1.23382
1.38594
1.75589
2.7157
5.25779
9.92382
10.1926
10.2205
10.4127
11.0234
12.5413
13.9171
1.07458
1.13284
1.14513
1.14275
1.13662
1.13788
1.14574
1.17012
1.23243
1.38278
1.74814
2.69415
5.19066
9.89662
10.1725
10.2
10.3936
11.0035
12.471
13.8691
1.07457
1.13284
1.14507
1.14267
1.13647
1.13766
1.14534
1.16933
1.23075
1.37896
1.73877
2.66805
5.10984
9.85805
10.1456
10.1745
10.3697
10.9765
12.3865
13.8126
1.07456
1.13285
1.145
1.14257
1.13629
1.1374
1.14488
1.16842
1.2288
1.37454
1.72798
2.63831
5.02123
9.79797
10.1104
10.1433
10.3408
10.9419
12.2882
13.7462
1.07455
1.13286
1.14492
1.14247
1.13608
1.1371
1.14435
1.16738
1.22661
1.3696
1.71609
2.6066
4.94078
9.70282
10.0649
10.1059
10.3068
10.899
12.1753
13.6675
1.07454
1.13286
1.14483
1.14235
1.13586
1.13677
1.14377
1.16622
1.22411
1.36395
1.70254
2.57012
4.84771
9.5871
10.0126
10.0633
10.2669
10.8464
12.0464
13.5729
1.07452
1.13288
1.14473
1.14222
1.13561
1.13642
1.14313
1.1649
1.22126
1.35748
1.68697
2.52841
4.73995
9.45149
9.95844
10.0154
10.2198
10.7843
11.8986
13.4566
1.07451
1.13289
1.14463
1.14208
1.13535
1.13604
1.14241
1.16343
1.21803
1.35012
1.66925
2.48103
4.61746
9.29683
9.90267
9.96291
10.1652
10.7133
11.7303
13.3108
1.07449
1.13291
1.14452
1.14193
1.13506
1.13562
1.14163
1.16179
1.21442
1.34185
1.64928
2.42771
4.4802
9.12279
9.84473
9.9059
10.1026
10.6279
11.5461
13.1287
1.07447
1.13293
1.1444
1.14177
1.13475
1.13517
1.14078
1.15998
1.21041
1.33265
1.62711
2.36873
4.3284
8.92556
9.78448
9.84456
10.031
10.525
11.3426
12.9012
1.07446
1.13295
1.14429
1.14161
1.13444
1.1347
1.13985
1.158
1.20602
1.32262
1.60312
2.30612
4.16394
8.69784
9.72211
9.77883
9.94953
10.4014
11.1192
12.6182
1.07445
1.13297
1.14419
1.14147
1.13414
1.1342
1.13883
1.15582
1.20127
1.31194
1.57783
2.24141
3.99326
8.42482
9.65679
9.70718
9.8559
10.255
10.8687
12.2658
1.07444
1.13298
1.14415
1.1414
1.13405
1.13321
1.13749
1.15345
1.19636
1.30102
1.55226
2.17724
3.83027
8.09419
9.58547
9.62715
9.74786
10.0807
10.5802
11.836
1.07445
1.13299
1.14415
1.14139
1.1341
1.1319
1.13589
1.15087
1.19124
1.28978
1.52602
2.11159
3.6629
7.72461
9.50774
9.53635
9.62199
9.87438
10.2442
11.2995
1.07445
1.133
1.14416
1.14141
1.13421
1.13047
1.13417
1.14814
1.18591
1.27818
1.49905
2.04428
3.48924
7.3213
9.42328
9.43326
9.47547
9.6337
9.84936
10.6207
1.07446
1.13301
1.1442
1.14146
1.13435
1.12901
1.13241
1.14535
1.18049
1.26646
1.47201
1.97734
3.31502
6.88562
9.32673
9.31718
9.30746
9.36151
9.37975
9.71862
1.04198
1.10656
1.13866
1.1572
1.16922
1.17871
1.19796
1.23953
1.33294
1.54949
2.07745
3.50201
7.60264
11.763
11.7409
11.6676
11.8262
12.4501
13.8003
14.4975
1.04198
1.10656
1.13865
1.15719
1.16919
1.17868
1.1979
1.2394
1.33265
1.54883
2.07585
3.49759
7.58812
11.7597
11.7353
11.6612
11.8234
12.4509
13.7815
14.4821
1.04198
1.10656
1.13864
1.15718
1.16915
1.17861
1.19777
1.23914
1.33207
1.54748
2.07253
3.48823
7.5568
11.7507
11.7226
11.647
11.8148
12.4476
13.7377
14.4481
1.04197
1.10657
1.13861
1.15715
1.16909
1.17851
1.19759
1.23874
1.33118
1.54541
2.0674
3.47358
7.50755
11.735
11.7031
11.6263
11.8002
12.4389
13.6697
14.396
1.04197
1.10657
1.13858
1.15711
1.16901
1.17838
1.19733
1.2382
1.32997
1.54258
2.06033
3.45327
7.43896
11.7123
11.6767
11.5995
11.7795
12.4216
13.5813
14.3271
1.04196
1.10658
1.13854
1.15707
1.1689
1.17821
1.19701
1.23752
1.32842
1.53896
2.05123
3.42699
7.35002
11.6818
11.6429
11.5664
11.7521
12.3935
13.4757
14.2426
1.04195
1.10659
1.1385
1.15702
1.16877
1.17801
1.19662
1.23668
1.32654
1.53453
2.04008
3.39472
7.24094
11.6415
11.6002
11.5272
11.7176
12.3534
13.3541
14.143
1.04194
1.1066
1.13844
1.15696
1.16862
1.17777
1.19616
1.2357
1.32432
1.52932
2.02696
3.3569
7.11471
11.5857
11.5477
11.4815
11.6756
12.3007
13.2164
14.0283
1.04193
1.10661
1.13837
1.15689
1.16845
1.1775
1.19565
1.23458
1.32178
1.52334
2.01199
3.31434
6.97854
11.5081
11.4846
11.4304
11.6262
12.2351
13.0623
13.8972
1.04192
1.10663
1.1383
1.15682
1.16825
1.17725
1.19508
1.2333
1.31884
1.51641
1.99463
3.26509
6.82169
11.4151
11.4138
11.3753
11.5686
12.1559
12.8905
13.7474
1.0419
1.10666
1.13822
1.15676
1.16802
1.17704
1.19447
1.23183
1.31544
1.50838
1.97454
3.20813
6.64065
11.307
11.3448
11.3124
11.5022
12.0641
12.6998
13.5759
1.04188
1.10669
1.13812
1.15669
1.16777
1.17683
1.19381
1.23018
1.31155
1.49917
1.9515
3.14289
6.4338
11.1872
11.2743
11.2434
11.4265
11.9591
12.4909
13.3779
1.04186
1.10672
1.13803
1.15662
1.16749
1.17662
1.19307
1.22833
1.30717
1.48874
1.92534
3.06897
6.19988
11.0573
11.201
11.1692
11.3418
11.8383
12.2634
13.151
1.04184
1.10675
1.13792
1.15655
1.1672
1.17641
1.19228
1.22627
1.30227
1.47707
1.89607
2.98652
5.93945
10.9157
11.1243
11.0892
11.247
11.7
12.0203
12.8852
1.04182
1.10679
1.13782
1.15649
1.16691
1.1762
1.19141
1.22401
1.29687
1.46425
1.8641
2.89697
5.65784
10.7553
11.0433
11.0034
11.142
11.5416
11.7614
12.572
1.04181
1.10681
1.13774
1.15644
1.16667
1.17594
1.19045
1.22153
1.29104
1.45052
1.83019
2.80376
5.37395
10.5497
10.9542
10.9103
11.0253
11.3605
11.4825
12.1972
1.04179
1.10683
1.13769
1.15641
1.16657
1.17545
1.18925
1.21882
1.28489
1.4363
1.79556
2.71077
5.13004
10.2666
10.8532
10.8092
10.8959
11.1519
11.1756
11.7544
1.04179
1.10684
1.13768
1.15641
1.16658
1.17477
1.18785
1.21586
1.27841
1.42146
1.75964
2.61428
4.87803
9.9482
10.7437
10.7031
10.7528
10.9127
10.8332
11.2193
1.04179
1.10685
1.13768
1.15642
1.16666
1.17401
1.18634
1.21274
1.27162
1.406
1.72235
2.51434
4.61496
9.59196
10.6376
10.5914
10.594
10.6445
10.4435
10.5611
1.04179
1.10685
1.1377
1.15644
1.16675
1.17325
1.1848
1.20955
1.26469
1.39028
1.68473
2.41547
4.35271
9.17339
10.5388
10.4793
10.4151
10.3573
9.99782
9.70039
1.01487
1.05594
1.09131
1.11772
1.1392
1.15347
1.17961
1.23394
1.35254
1.62441
2.29332
4.16531
9.92538
12.8088
12.6314
12.4107
12.545
13.1442
13.8817
14.248
1.01486
1.05594
1.09131
1.11771
1.13919
1.15345
1.17955
1.23382
1.35227
1.62378
2.29182
4.16109
9.91192
12.8027
12.6209
12.4031
12.5426
13.1447
13.8563
14.2313
1.01486
1.05594
1.0913
1.1177
1.13917
1.1534
1.17945
1.23358
1.35172
1.62251
2.28867
4.15201
9.88162
12.7874
12.5984
12.3852
12.5333
13.1384
13.7974
14.1915
1.01486
1.05595
1.09129
1.11769
1.13913
1.15334
1.17928
1.23321
1.35088
1.62053
2.28372
4.13755
9.83224
12.7628
12.566
12.3581
12.516
13.1216
13.712
14.1283
1.01486
1.05595
1.09127
1.11767
1.13907
1.15325
1.17906
1.2327
1.34972
1.6178
2.27681
4.11718
9.7617
12.7298
12.5247
12.3227
12.491
13.0915
13.6077
14.0446
1.01485
1.05596
1.09125
1.11764
1.139
1.15314
1.17878
1.23205
1.34822
1.61425
2.26778
4.09039
9.66813
12.6884
12.4747
12.2794
12.4574
13.0469
13.4875
13.9422
1.01485
1.05597
1.09122
1.11762
1.13892
1.15301
1.17844
1.23125
1.34637
1.60984
2.25652
4.05684
9.55048
12.638
12.4157
12.2285
12.4149
12.9871
13.3521
13.8215
1.01484
1.05598
1.09119
1.11759
1.13882
1.15286
1.17804
1.2303
1.34415
1.60453
2.24293
4.01635
9.40856
12.5774
12.3478
12.1702
12.3629
12.9123
13.2029
13.6828
1.01484
1.05599
1.09115
1.11756
1.1387
1.1527
1.17758
1.22918
1.34155
1.59829
2.22691
3.9687
9.2425
12.5058
12.2717
12.1057
12.3014
12.8229
13.0375
13.5262
1.01483
1.05601
1.0911
1.11754
1.13856
1.15255
1.17707
1.22791
1.3385
1.59096
2.20807
3.91276
9.04856
12.4253
12.1898
12.0353
12.2298
12.7193
12.8572
13.3494
1.01482
1.05603
1.09105
1.11752
1.13839
1.15244
1.17653
1.22644
1.33496
1.5824
2.18608
3.84754
8.82333
12.3376
12.1068
11.9575
12.1479
12.6022
12.6598
13.1528
1.01481
1.05605
1.09098
1.1175
1.1382
1.15234
1.17593
1.22478
1.33089
1.57251
2.16067
3.77228
8.56455
12.2447
12.0218
11.873
12.0549
12.4713
12.4485
12.9317
1.0148
1.05608
1.09091
1.1175
1.13799
1.15225
1.17527
1.2229
1.32625
1.56122
2.13161
3.68648
8.27101
12.1476
11.9348
11.7825
11.9517
12.3259
12.22
12.6862
1.01479
1.05611
1.09084
1.11749
1.13777
1.15216
1.17454
1.2208
1.32102
1.54848
2.09883
3.58993
7.9421
12.0464
11.845
11.6856
11.8376
12.1655
11.9779
12.4049
1.01477
1.05613
1.09077
1.11749
1.13756
1.15209
1.17375
1.21846
1.3152
1.53431
2.06249
3.48338
7.58134
11.937
11.7511
11.5826
11.7134
11.988
11.7194
12.0845
1.01476
1.05616
1.09071
1.1175
1.13737
1.152
1.17286
1.21588
1.30883
1.51887
2.02313
3.36891
7.19921
11.8044
11.6492
11.4736
11.5785
11.7891
11.447
11.7148
1.01476
1.05617
1.09067
1.1175
1.13727
1.15183
1.17184
1.21305
1.30194
1.50234
1.98133
3.24908
6.81482
11.6342
11.5378
11.3622
11.4342
11.5636
11.1555
11.2882
1.01475
1.05618
1.09065
1.11749
1.13723
1.1516
1.17069
1.20997
1.29454
1.48465
1.93675
3.12201
6.4105
11.4411
11.4171
11.258
11.2804
11.3144
10.8349
10.7841
1.01475
1.05618
1.09065
1.1175
1.13722
1.15135
1.16946
1.20669
1.28667
1.46588
1.88959
2.98786
5.98522
11.2223
11.3089
11.1562
11.1159
11.0445
10.4749
10.169
1.01475
1.05618
1.09064
1.11751
1.13722
1.15111
1.16821
1.20329
1.27848
1.44639
1.84078
2.85156
5.56522
10.9421
11.2159
11.0593
10.9405
10.762
10.0724
9.36704
1.00391
1.0202
1.04432
1.06748
1.09046
1.10673
1.13727
1.20058
1.33798
1.65347
2.44132
4.72076
11.9927
13.4113
13.0961
12.7328
12.8406
13.3347
13.5646
13.7348
1.00391
1.0202
1.04432
1.06748
1.09045
1.10672
1.13723
1.20049
1.33776
1.65295
2.44007
4.71715
11.982
13.4004
13.0804
12.7244
12.8391
13.3326
13.5377
13.7201
1.00391
1.0202
1.04432
1.06747
1.09044
1.10669
1.13714
1.20028
1.3373
1.65186
2.43738
4.70926
11.9562
13.3752
13.0474
12.7028
12.8292
13.3189
13.4742
13.6807
1.00391
1.02021
1.04431
1.06747
1.09042
1.10665
1.13702
1.19997
1.33658
1.65016
2.4331
4.69642
11.9119
13.3372
13.0013
12.6693
12.8086
13.2897
13.3849
13.6157
1.00391
1.02021
1.04431
1.06746
1.09039
1.1066
1.13684
1.19955
1.33557
1.64777
2.42701
4.67796
11.8467
13.288
12.9446
12.6262
12.7782
13.2449
13.2792
13.5306
1.00391
1.02021
1.0443
1.06745
1.09035
1.10654
1.13662
1.19899
1.33425
1.64462
2.41891
4.6532
11.7585
13.2286
12.8782
12.5739
12.7377
13.1843
13.1605
13.4267
1.00391
1.02021
1.04428
1.06744
1.0903
1.10647
1.13635
1.19829
1.33259
1.64064
2.40862
4.62155
11.6456
13.1596
12.8029
12.5132
12.687
13.1079
13.0277
13.3053
1.00391
1.02021
1.04427
1.06743
1.09024
1.10639
1.13603
1.19744
1.33057
1.63576
2.39593
4.58243
11.5064
13.0817
12.7197
12.4444
12.6255
13.017
12.8825
13.1653
1.00391
1.02022
1.04425
1.06742
1.09017
1.10631
1.13565
1.19644
1.32815
1.62988
2.38062
4.53518
11.3391
12.9963
12.6303
12.3687
12.5531
12.9125
12.723
13.0088
1.00391
1.02022
1.04423
1.06742
1.09008
1.10622
1.13522
1.19526
1.32528
1.62291
2.36239
4.47898
11.142
12.9046
12.5361
12.2858
12.4695
12.7952
12.5526
12.8331
1.00392
1.02023
1.0442
1.06742
1.08998
1.10615
1.13474
1.1939
1.32193
1.61471
2.34094
4.41302
10.9125
12.8084
12.4394
12.196
12.3746
12.6653
12.3681
12.6405
1.00392
1.02023
1.04416
1.06743
1.08986
1.10609
1.1342
1.19234
1.31804
1.60518
2.31598
4.3365
10.6482
12.7089
12.3404
12.0993
12.2682
12.5225
12.1741
12.4263
1.00392
1.02024
1.04412
1.06744
1.08972
1.10603
1.13359
1.19055
1.31358
1.59421
2.28725
4.24877
10.3472
12.6075
12.2404
11.9963
12.1512
12.3666
11.9657
12.1917
1.00392
1.02025
1.04408
1.06746
1.08958
1.10598
1.13291
1.18852
1.3085
1.58171
2.25454
4.14926
10.0076
12.5058
12.1392
11.8872
12.0237
12.198
11.7452
11.9271
1.00392
1.02026
1.04404
1.06748
1.08943
1.10594
1.13215
1.18624
1.30277
1.56762
2.21772
4.03779
9.62863
12.4038
12.0367
11.7729
11.8866
12.015
11.508
11.6308
1.00392
1.02026
1.044
1.0675
1.0893
1.10588
1.1313
1.18369
1.29638
1.55192
2.17681
3.91462
9.21085
12.299
11.9308
11.6551
11.7408
11.8141
11.2575
11.2926
1.00392
1.02026
1.04397
1.06751
1.08919
1.10582
1.13036
1.18086
1.28931
1.5346
2.13183
3.78001
8.75567
12.1905
11.8221
11.538
11.5875
11.5901
10.9889
10.9037
1.00392
1.02026
1.04395
1.06751
1.08911
1.10575
1.12932
1.17775
1.28154
1.5156
2.08256
3.63335
8.25871
12.08
11.7132
11.4287
11.4272
11.3494
10.6913
10.4406
1.00392
1.02026
1.04394
1.06751
1.08902
1.10569
1.12821
1.17439
1.27311
1.49494
2.02908
3.4748
7.72087
11.965
11.6139
11.3287
11.2617
11.0893
10.3549
9.86906
1.00392
1.02026
1.04392
1.06752
1.08892
1.10569
1.12707
1.17083
1.26411
1.47288
1.97218
3.30714
7.15858
11.8182
11.5258
11.2387
11.0907
10.8161
9.97994
9.11283
1.00094
1.00523
1.01466
1.02947
1.04786
1.06414
1.09671
1.16464
1.31335
1.65843
2.53479
5.14467
13.5888
13.837
13.2672
12.7891
12.8697
13.2077
13.1481
13.2432
1.00094
1.00523
1.01466
1.02947
1.04786
1.06413
1.09668
1.16456
1.31317
1.65802
2.53379
5.1417
13.5796
13.8208
13.2476
12.7794
12.868
13.2033
13.1259
13.2327
1.00094
1.00523
1.01466
1.02947
1.04785
1.06411
1.09662
1.16441
1.3128
1.65716
2.53163
5.13512
13.556
13.7856
13.2055
12.7533
12.8547
13.1843
13.0696
13.2006
1.00094
1.00523
1.01466
1.02946
1.04784
1.06407
1.09651
1.16416
1.31223
1.65578
2.52813
5.12416
13.5145
13.7345
13.1475
12.7129
12.8272
13.1469
12.9898
13.1431
1.00094
1.00522
1.01466
1.02946
1.04783
1.06403
1.09638
1.16381
1.31141
1.65381
2.52306
5.10808
13.4529
13.6691
13.0773
12.6622
12.7887
13.0936
12.8969
13.0682
1.00094
1.00522
1.01465
1.02946
1.04781
1.06398
1.0962
1.16336
1.31032
1.65118
2.51621
5.08614
13.3692
13.5909
12.9966
12.602
12.7395
13.0254
12.7937
12.9769
1.00094
1.00522
1.01465
1.02945
1.04778
1.06393
1.09598
1.16278
1.30892
1.64781
2.50735
5.05765
13.2621
13.5007
12.9068
12.5332
12.6797
12.9424
12.6782
12.8705
1.00094
1.00522
1.01464
1.02944
1.04775
1.06386
1.0957
1.16206
1.30719
1.64359
2.49626
5.02189
13.1299
13.3998
12.8093
12.4563
12.6089
12.8464
12.5525
12.7471
1.00094
1.00522
1.01464
1.02944
1.04771
1.06378
1.09538
1.16119
1.30508
1.63846
2.48267
4.9781
12.9713
13.2891
12.7064
12.3721
12.5269
12.7382
12.4147
12.6095
1.00094
1.00522
1.01463
1.02943
1.04766
1.0637
1.09499
1.16015
1.30257
1.63229
2.46631
4.92562
12.7851
13.1697
12.5992
12.2809
12.4339
12.6189
12.2679
12.4548
1.00094
1.00521
1.01462
1.02943
1.0476
1.0636
1.09454
1.15893
1.29959
1.62498
2.44693
4.86376
12.5697
13.0429
12.4893
12.1831
12.3299
12.4876
12.1098
12.2856
1.00094
1.00521
1.0146
1.02943
1.04752
1.0635
1.09402
1.15751
1.29611
1.61643
2.42424
4.79178
12.3233
12.9099
12.3774
12.079
12.2157
12.3439
11.944
12.0976
1.00094
1.00521
1.01459
1.02943
1.04744
1.06339
1.09342
1.15587
1.29208
1.60651
2.39792
4.70886
12.0442
12.7723
12.2657
11.969
12.0916
12.1865
11.7661
11.8917
1.00094
1.0052
1.01457
1.02943
1.04735
1.06326
1.09274
1.15399
1.28744
1.59508
2.36767
4.61419
11.7301
12.6318
12.1551
11.854
11.9587
12.018
11.575
11.6606
1.00094
1.0052
1.01455
1.02943
1.04726
1.06312
1.09196
1.15183
1.28213
1.58201
2.33312
4.50676
11.3772
12.4936
12.0476
11.7353
11.8172
11.8374
11.3644
11.4018
1.00094
1.00519
1.01453
1.02943
1.04716
1.06296
1.09107
1.14938
1.2761
1.56717
2.2939
4.38542
10.9801
12.3656
11.9408
11.6157
11.6686
11.6439
11.1341
11.1037
1.00094
1.00519
1.01451
1.02941
1.04705
1.06278
1.09008
1.14662
1.26928
1.55039
2.24961
4.24898
10.5325
12.2552
11.8344
11.4995
11.514
11.4336
10.8777
10.7527
1.00094
1.00518
1.01449
1.02939
1.04694
1.06259
1.08897
1.14352
1.26163
1.53154
2.19987
4.09665
10.03
12.1579
11.7371
11.3921
11.3557
11.2052
10.5891
10.3234
1.00093
1.00517
1.01447
1.02937
1.04681
1.06241
1.08776
1.14011
1.25312
1.51053
2.14447
3.92761
9.46739
12.0748
11.6528
11.2945
11.1937
10.9571
10.261
9.77863
1.00093
1.00516
1.01445
1.02934
1.04665
1.06234
1.08653
1.13638
1.24375
1.48737
2.08346
3.74188
8.83347
11.9968
11.5792
11.205
11.025
10.6927
9.88974
9.04049
1.00019
1.00108
1.00348
1.00915
1.02073
1.03642
1.06863
1.1375
1.29112
1.65289
2.58632
5.43454
14.6875
14.2201
13.2403
12.7017
12.7524
12.9259
12.8076
12.879
1.00019
1.00108
1.00348
1.00915
1.02073
1.03641
1.0686
1.13744
1.29098
1.65256
2.58553
5.43205
14.6775
14.2018
13.2176
12.6897
12.7483
12.9221
12.7923
12.8744
1.00019
1.00108
1.00348
1.00915
1.02072
1.03639
1.06855
1.13731
1.29069
1.65188
2.58381
5.42645
14.6525
14.1628
13.1679
12.6579
12.728
12.9013
12.7501
12.8537
1.00019
1.00108
1.00348
1.00914
1.02072
1.03635
1.06846
1.13711
1.29023
1.65077
2.58098
5.41698
14.6094
14.1058
13.0997
12.6104
12.6908
12.8605
12.6878
12.8121
1.00019
1.00108
1.00347
1.00914
1.0207
1.03631
1.06835
1.13683
1.28956
1.64918
2.57683
5.40287
14.5465
14.032
13.0184
12.5526
12.6428
12.8048
12.6153
12.7558
1.00019
1.00108
1.00347
1.00913
1.02069
1.03625
1.06819
1.13646
1.28867
1.64702
2.57114
5.3834
14.4625
13.9427
12.9258
12.4856
12.5845
12.7354
12.534
12.6863
1.00019
1.00107
1.00347
1.00912
1.02067
1.03618
1.06799
1.13597
1.28752
1.64422
2.56369
5.3579
14.3564
13.8386
12.8238
12.4104
12.5156
12.6529
12.4429
12.6042
1.00019
1.00107
1.00346
1.00911
1.02064
1.03608
1.06774
1.13536
1.28607
1.64067
2.55426
5.32568
14.2274
13.7203
12.714
12.3273
12.4365
12.5587
12.3422
12.5078
1.00019
1.00107
1.00346
1.00909
1.02061
1.03597
1.06744
1.13462
1.28429
1.63631
2.5426
5.28606
14.0746
13.5876
12.5994
12.2375
12.3475
12.4535
12.2314
12.3984
1.00019
1.00107
1.00345
1.00908
1.02057
1.03583
1.06707
1.13372
1.28213
1.63103
2.52847
5.23845
13.8974
13.4409
12.4812
12.141
12.2491
12.3381
12.111
12.2739
1.00019
1.00106
1.00344
1.00905
1.02052
1.03566
1.06663
1.13265
1.27957
1.62473
2.51161
5.18225
13.6951
13.2808
12.3612
12.0386
12.1416
12.2119
11.9801
12.1351
1.00019
1.00106
1.00343
1.00903
1.02046
1.03546
1.06612
1.13138
1.27654
1.6173
2.49173
5.11674
13.4667
13.108
12.2404
11.931
12.0261
12.0747
11.839
11.9786
1.00019
1.00105
1.00341
1.009
1.02039
1.03524
1.06551
1.12991
1.273
1.60862
2.46852
5.04108
13.2108
12.9236
12.1218
11.8187
11.9027
11.9257
11.6846
11.8031
1.00018
1.00105
1.0034
1.00897
1.02031
1.03497
1.06481
1.12819
1.26888
1.59851
2.44158
4.95428
12.9261
12.7278
12.0076
11.7032
11.7722
11.7676
11.5128
11.6033
1.00018
1.00104
1.00338
1.00893
1.02022
1.03466
1.064
1.1262
1.26411
1.58681
2.41043
4.85488
12.6085
12.5281
11.9013
11.586
11.6342
11.6019
11.3168
11.375
1.00018
1.00103
1.00336
1.00888
1.02011
1.03431
1.06306
1.1239
1.2586
1.5733
2.37447
4.74101
12.2507
12.3421
11.7968
11.4708
11.4909
11.4243
11.0936
11.1064
1.00018
1.00102
1.00334
1.00882
1.01999
1.0339
1.06198
1.12126
1.25226
1.55773
2.33307
4.61079
11.8453
12.1852
11.6923
11.3628
11.3443
11.2285
10.8381
10.7807
1.00018
1.00101
1.00331
1.00876
1.01985
1.03343
1.06075
1.11825
1.24501
1.53989
2.28561
4.46253
11.3863
12.0438
11.6075
11.2649
11.1948
11.0113
10.5473
10.3697
1.00018
1.001
1.00328
1.00868
1.01968
1.03291
1.05939
1.11485
1.23677
1.51953
2.23143
4.29397
10.8604
11.9277
11.548
11.1741
11.0384
10.7744
10.2176
9.83114
1.00017
1.00099
1.00324
1.0086
1.01948
1.03257
1.05795
1.11101
1.2274
1.49646
2.1699
4.10217
10.226
11.8616
11.4986
11.0868
10.8706
10.5166
9.83753
9.08368
1.00006
1.00032
1.0011
1.00341
1.00943
1.02311
1.05342
1.12108
1.27564
1.64504
2.60949
5.60881
15.3592
14.5082
13.1747
12.5671
12.581
12.6447
12.58
12.6549
1.00006
1.00032
1.0011
1.00341
1.00943
1.0231
1.0534
1.12102
1.27553
1.64477
2.60885
5.6066
15.3481
14.4889
13.1499
12.5518
12.5742
12.6414
12.5725
12.6576
1.00006
1.00032
1.0011
1.00341
1.00942
1.02308
1.05335
1.12092
1.27529
1.64421
2.60743
5.60158
15.321
14.4478
13.0956
12.5139
12.5472
12.6205
12.5453
12.6496
1.00006
1.00032
1.0011
1.0034
1.00941
1.02305
1.05328
1.12075
1.2749
1.64329
2.60508
5.593
15.2751
14.3879
13.0208
12.4596
12.5017
12.5797
12.5005
12.6277
1.00006
1.00032
1.00109
1.00339
1.00939
1.02301
1.05318
1.12051
1.27434
1.64196
2.6016
5.58015
15.2093
14.3105
12.9315
12.3957
12.4461
12.5263
12.4464
12.592
1.00006
1.00032
1.00109
1.00338
1.00937
1.02295
1.05304
1.12019
1.27359
1.64013
2.59679
5.56232
15.1228
14.2163
12.8302
12.3232
12.3813
12.4611
12.3837
12.5452
1.00006
1.00031
1.00108
1.00337
1.00933
1.02287
1.05285
1.11976
1.2726
1.63774
2.59043
5.53888
15.0147
14.1059
12.7186
12.2432
12.3074
12.3849
12.3118
12.4865
1.00005
1.00031
1.00108
1.00335
1.00929
1.02277
1.05262
1.11923
1.27135
1.63469
2.58234
5.50925
14.8849
13.9794
12.5986
12.156
12.2244
12.2981
12.23
12.4152
1.00005
1.00031
1.00107
1.00333
1.00924
1.02265
1.05233
1.11856
1.26979
1.63092
2.57227
5.47281
14.7327
13.8367
12.4727
12.063
12.1335
12.2017
12.1386
12.3304
1.00005
1.0003
1.00106
1.0033
1.00918
1.0225
1.05199
1.11776
1.26791
1.62632
2.56001
5.42902
14.558
13.6777
12.3419
11.9643
12.0348
12.0956
12.0365
12.2307
1.00005
1.0003
1.00104
1.00327
1.00911
1.02232
1.05157
1.11679
1.26564
1.62081
2.54527
5.37733
14.3605
13.5022
12.2088
11.8607
11.9293
11.9799
11.9234
12.1151
1.00005
1.00029
1.00103
1.00323
1.00902
1.02211
1.05107
1.11564
1.26296
1.61427
2.52775
5.31706
14.1397
13.3105
12.0745
11.7532
11.8176
11.854
11.7975
11.9815
1.00005
1.00029
1.00101
1.00319
1.00891
1.02186
1.05048
1.11428
1.25979
1.60657
2.50716
5.24735
13.8947
13.1037
11.942
11.6426
11.7001
11.7184
11.6566
11.8267
1.00005
1.00028
1.00099
1.00314
1.00879
1.02156
1.04979
1.11268
1.25607
1.59754
2.48308
5.16717
13.6247
12.8827
11.8131
11.5305
11.577
11.5737
11.4953
11.6465
1.00005
1.00027
1.00096
1.00307
1.00864
1.02121
1.04898
1.11082
1.25172
1.58697
2.45492
5.07504
13.3274
12.6527
11.6915
11.4191
11.4481
11.4223
11.3067
11.4352
1.00004
1.00026
1.00093
1.003
1.00847
1.0208
1.04803
1.10864
1.24663
1.57463
2.42209
4.96905
12.9991
12.4216
11.5781
11.3126
11.3149
11.2579
11.0851
11.1821
1.00004
1.00025
1.0009
1.00292
1.00827
1.02033
1.04693
1.10609
1.2407
1.56022
2.38384
4.84699
12.6346
12.1976
11.4798
11.2175
11.1805
11.0709
10.8261
10.8694
1.00004
1.00023
1.00086
1.00282
1.00804
1.01978
1.04565
1.10315
1.23381
1.54346
2.3393
4.70622
12.2254
11.9789
11.4153
11.1319
11.0401
10.8606
10.5302
10.4667
1.00004
1.00022
1.00081
1.00271
1.00778
1.01916
1.04419
1.09976
1.22584
1.52401
2.28749
4.54318
11.7532
11.783
11.3972
11.0507
10.8874
10.6305
10.1982
9.92399
1.00003
1.0002
1.00076
1.00258
1.00749
1.01848
1.04257
1.09591
1.21668
1.50153
2.22727
4.3524
11.1558
11.6903
11.3826
10.969
10.722
10.3755
9.80822
9.15771
1.00006
1.00032
1.00097
1.00273
1.0074
1.01927
1.04768
1.11376
1.26783
1.63982
2.61705
5.68914
15.6765
14.659
13.1322
12.4772
12.4633
12.479
12.4664
12.5546
1.00006
1.00031
1.00097
1.00273
1.0074
1.01926
1.04766
1.11372
1.26772
1.63959
2.61648
5.68709
15.6647
14.6393
13.1067
12.4587
12.4552
12.4756
12.4636
12.5626
1.00006
1.00031
1.00097
1.00272
1.00739
1.01924
1.04762
1.11362
1.26751
1.63908
2.61522
5.68236
15.6362
14.5975
13.0504
12.416
12.4244
12.4548
12.4451
12.5627
1.00006
1.00031
1.00096
1.00272
1.00738