/*--------------------------------*- C++ -*----------------------------------*\
  =========                 |
  \\      /  F ield         | OpenFOAM: The Open Source CFD Toolbox
   \\    /   O peration     | Website:  https://openfoam.org
    \\  /    A nd           | Version:  6.0
     \\/     M anipulation  |
\*---------------------------------------------------------------------------*/
FoamFile
{
    version     2.0;
    format      ascii;
    class       surfaceScalarField;
    location    "3.5";
    object      phi;
}
// * * * * * * * * * * * * * * * * * * * * * * * * * * * * * * * * * * * * * //

dimensions      [1 0 -1 0 0 0 0];

internalField   nonuniform List<scalar> 
69200
(
0.000164329
1.03601e-11
4.67641e-05
0.000147716
1.79126e-10
1.66143e-05
0.000140584
8.78559e-11
7.13103e-06
0.000135239
8.1145e-10
5.34714e-06
0.000131717
7.52557e-10
3.51845e-06
0.000130078
4.42934e-09
1.64598e-06
0.000127887
8.58213e-09
2.19391e-06
0.000125303
1.38961e-08
2.58567e-06
0.000122748
2.23373e-08
2.55415e-06
0.000120856
3.83734e-08
1.8915e-06
0.000120165
7.12408e-08
6.86102e-07
0.000115934
1.32e-07
4.21122e-06
0.000115451
1.36615e-07
5.99077e-07
0.00018707
1.13211e-06
-7.21204e-05
0.000185541
1.10799e-06
5.72423e-07
0.000180601
8.48228e-07
4.20883e-06
0.000168688
6.55128e-07
1.13255e-05
0.00014435
4.93977e-07
2.38337e-05
0.000139503
4.2516e-08
4.70164e-06
-3.68693e-07
0.000139799
0.000164329
2.38672e-11
4.67644e-05
0.000147716
3.77898e-10
1.6614e-05
0.000140583
1.87653e-10
7.13131e-06
0.000135239
1.71786e-09
5.34688e-06
0.000131716
1.56516e-09
3.51947e-06
0.000130076
9.38756e-09
1.6463e-06
0.000127886
1.80841e-08
2.19233e-06
0.000125302
2.93792e-08
2.58384e-06
0.000122743
4.77304e-08
2.55492e-06
0.000120835
8.36853e-08
1.90088e-06
0.000120094
1.61348e-07
7.1665e-07
0.000115776
3.25644e-07
4.23293e-06
0.00011534
5.82533e-07
2.27455e-07
0.000186407
3.16302e-06
-7.24844e-05
0.000184771
2.99512e-06
-1.20293e-07
0.000179731
2.5115e-06
3.48402e-06
0.000167733
2.17089e-06
1.0553e-05
0.000143142
1.91067e-06
2.31747e-05
0.000138668
1.18109e-06
3.24224e-06
6.62684e-07
0.000137534
0.000164329
3.23675e-11
4.67648e-05
0.000147716
5.8238e-10
1.66136e-05
0.000140583
2.90168e-10
7.13192e-06
0.000135238
2.67716e-09
5.34644e-06
0.000131713
2.43654e-09
3.52176e-06
0.000130072
1.46512e-08
1.64704e-06
0.000127884
2.82664e-08
2.18993e-06
0.000125301
4.60775e-08
2.58171e-06
0.000122736
7.54013e-08
2.55917e-06
0.000120798
1.34015e-07
1.92486e-06
0.000119965
2.64822e-07
7.95249e-07
0.000115515
5.63196e-07
4.32137e-06
0.000115126
1.19319e-06
9.5944e-09
0.000185763
5.85678e-06
-7.27156e-05
0.000184003
5.7499e-06
-8.70179e-07
0.000178775
5.00809e-06
2.83731e-06
0.000166684
4.47584e-06
9.86772e-06
0.000141857
4.13722e-06
2.26223e-05
0.00013796
3.37246e-06
1.6227e-06
2.85188e-06
0.000135687
0.000164328
1.82785e-11
4.67655e-05
0.000147716
7.63276e-10
1.66128e-05
0.000140582
3.63368e-10
7.13293e-06
0.000135238
3.6716e-09
5.34579e-06
0.000131709
3.36861e-09
3.52537e-06
0.000130067
2.01627e-08
1.64799e-06
0.000127881
3.89086e-08
2.18648e-06
0.0001253
6.3605e-08
2.57865e-06
0.000122727
1.04642e-07
2.56564e-06
0.000120751
1.87681e-07
1.96034e-06
0.000119792
3.76747e-07
9.11899e-07
0.000115169
8.27533e-07
4.46555e-06
0.000114779
1.88683e-06
-6.59406e-08
0.00018512
8.995e-06
-7.28459e-05
0.0001833
9.20876e-06
-1.51222e-06
0.000177877
8.28495e-06
2.24473e-06
0.000165597
7.58053e-06
9.2526e-06
0.000140545
7.16109e-06
2.20603e-05
0.000136937
6.49532e-06
4.18745e-07
6.212e-06
0.000133494
0.000164327
-7.01875e-11
4.67664e-05
0.000147716
9.15875e-10
1.66118e-05
0.00014058
3.68017e-10
7.13442e-06
0.000135238
4.69804e-09
5.34485e-06
0.000131703
4.37518e-09
3.53054e-06
0.000130061
2.57964e-08
1.64875e-06
0.000127879
4.97707e-08
2.18218e-06
0.0001253
8.15039e-08
2.57455e-06
0.000122718
1.34569e-07
2.57374e-06
0.000120694
2.42852e-07
2.00576e-06
0.000119581
4.92752e-07
1.06194e-06
0.000114752
1.10608e-06
4.65761e-06
0.000114285
2.65e-06
-6.42751e-08
0.000184367
1.25651e-05
-7.29939e-05
0.000182572
1.33042e-05
-2.15659e-06
0.000177041
1.22776e-05
1.64389e-06
0.000164577
1.14502e-05
8.66772e-06
0.00013939
1.09841e-05
2.13912e-05
0.000135549
1.05067e-05
-2.25044e-07
1.07942e-05
0.000130905
0.000164325
-3.77937e-10
4.67679e-05
0.000147717
1.14113e-09
1.66099e-05
0.000140578
3.40115e-10
7.13681e-06
0.000135238
5.78286e-09
5.34309e-06
0.000131696
5.38878e-09
3.53765e-06
0.000130053
3.13988e-08
1.6492e-06
0.000127876
6.05429e-08
2.17696e-06
0.000125303
9.92413e-08
2.56939e-06
0.000122711
1.64209e-07
2.58333e-06
0.000120632
2.97531e-07
2.06017e-06
0.000119337
6.0841e-07
1.24151e-06
0.00011428
1.3893e-06
4.88082e-06
0.000113684
3.45799e-06
1.01066e-08
0.000183525
1.66256e-05
-7.32201e-05
0.000181798
1.80338e-05
-2.83839e-06
0.000176243
1.69424e-05
1.0135e-06
0.000163682
1.60506e-05
8.03344e-06
0.00013854
1.55813e-05
2.05628e-05
0.00013375
1.53599e-05
-1.24146e-07
1.67748e-05
0.000127735
0.000164321
-8.64107e-10
4.6771e-05
0.000147719
1.43596e-09
1.66056e-05
0.000140575
3.51518e-10
7.14108e-06
0.000135238
6.84185e-09
5.34013e-06
0.000131687
6.38945e-09
3.5465e-06
0.000130044
3.67627e-08
1.64959e-06
0.000127873
7.09162e-08
2.17068e-06
0.000125306
1.16335e-07
2.56295e-06
0.000122704
1.92709e-07
2.59371e-06
0.000120566
3.4993e-07
2.12124e-06
0.000119074
7.19648e-07
1.44176e-06
0.000113779
1.6696e-06
5.11812e-06
0.000113059
4.31255e-06
8.24272e-08
0.000182615
2.13703e-05
-7.36067e-05
0.000180988
2.34711e-05
-3.63235e-06
0.000175417
2.23036e-05
3.52692e-07
0.000162866
2.13585e-05
7.33686e-06
0.000138031
2.09198e-05
1.95195e-05
0.000131654
2.10484e-05
6.07964e-07
2.42242e-05
0.000124187
0.000164315
-1.119e-09
4.67766e-05
0.000147719
1.54009e-09
1.65984e-05
0.000140571
3.1766e-10
7.14658e-06
0.000135238
7.80897e-09
5.33668e-06
0.000131676
7.25464e-09
3.55676e-06
0.000130033
4.19101e-08
1.64976e-06
0.00012787
8.0996e-08
2.16326e-06
0.000125311
1.3293e-07
2.55493e-06
0.0001227
2.2019e-07
2.60344e-06
0.0001205
4.0006e-07
2.18321e-06
0.000118812
8.26377e-07
1.6413e-06
0.000113308
1.95055e-06
5.32222e-06
0.000112543
5.27365e-06
2.42663e-08
0.000181802
2.68229e-05
-7.40044e-05
0.000180164
2.98332e-05
-4.57655e-06
0.000174452
2.8513e-05
-3.54456e-07
0.000161949
2.73511e-05
6.6131e-06
0.000137817
2.69213e-05
1.81671e-05
0.000129301
2.757e-05
1.90315e-06
3.34085e-05
0.00012011
0.000164308
-1.3163e-09
4.67833e-05
0.000147721
1.64704e-09
1.65902e-05
0.000140565
1.91833e-10
7.15284e-06
0.000135236
8.7824e-09
5.33254e-06
0.000131664
7.88907e-09
3.56844e-06
0.00013002
4.72066e-08
1.64961e-06
0.000127865
9.14871e-08
2.15454e-06
0.000125315
1.50233e-07
2.54478e-06
0.000122696
2.48961e-07
2.61006e-06
0.000120439
4.53115e-07
2.23629e-06
0.000118583
9.40819e-07
1.79943e-06
0.000113001
2.25093e-06
5.37657e-06
0.000112193
6.29014e-06
-1.29985e-08
0.000181364
3.23457e-05
-7.39588e-05
0.000179547
3.70592e-05
-5.32942e-06
0.000173822
3.56267e-05
-1.2722e-06
0.000161345
3.41652e-05
5.72409e-06
0.000137741
3.36896e-05
1.68459e-05
0.000126714
3.49844e-05
3.50392e-06
4.45084e-05
0.00011561
0.0001643
-1.47508e-09
4.67909e-05
0.000147722
1.7341e-09
1.65807e-05
0.00014056
-2.26055e-11
7.16002e-06
0.000135236
9.7097e-09
5.32801e-06
0.000131651
8.25923e-09
3.58151e-06
0.000130006
5.2798e-08
1.64974e-06
0.000127859
1.02641e-07
2.14483e-06
0.00012532
1.68577e-07
2.53246e-06
0.000122694
2.79292e-07
2.6141e-06
0.000120384
5.08754e-07
2.28589e-06
0.000118372
1.05971e-06
1.94845e-06
0.000112794
2.55523e-06
5.36406e-06
0.000112114
7.23779e-06
-9.94562e-08
0.000181148
3.7674e-05
-7.35905e-05
0.000179345
4.44708e-05
-5.52366e-06
0.000173955
4.31257e-05
-2.06616e-06
0.000161656
4.17943e-05
4.70534e-06
0.000138313
4.16045e-05
1.54108e-05
0.000124209
4.35187e-05
5.43465e-06
5.80044e-05
0.000110666
0.000164292
-1.65853e-09
4.6799e-05
0.000147724
1.805e-09
1.65705e-05
0.000140555
-2.99947e-10
7.1679e-06
0.000135235
1.05531e-08
5.32296e-06
0.000131635
8.47805e-09
3.59587e-06
0.000129989
5.81958e-08
1.65122e-06
0.000127852
1.13822e-07
2.13503e-06
0.000125327
1.87381e-07
2.51802e-06
0.000122697
3.1095e-07
2.61572e-06
0.000120334
5.67499e-07
2.33501e-06
0.000118165
1.18549e-06
2.09673e-06
0.000112598
2.87496e-06
5.33304e-06
0.000112253
8.21687e-06
-4.6721e-07
0.000181166
4.28624e-05
-7.32846e-05
0.000179592
5.17453e-05
-5.6129e-06
0.000173958
5.07598e-05
-2.02728e-06
0.000162138
4.99336e-05
3.67891e-06
0.000139373
5.04099e-05
1.39124e-05
0.000122064
5.3371e-05
7.30511e-06
7.4457e-05
0.000105545
0.000164283
-1.89451e-09
4.68078e-05
0.000147727
1.85288e-09
1.65593e-05
0.000140548
-6.62413e-10
7.17664e-06
0.000135234
1.1254e-08
5.31727e-06
0.000131619
8.46133e-09
3.6118e-06
0.000129971
6.33811e-08
1.65317e-06
0.000127844
1.24849e-07
2.12447e-06
0.000125335
2.06254e-07
2.5017e-06
0.000122704
3.43362e-07
2.61613e-06
0.000120287
6.28728e-07
2.38567e-06
0.000117961
1.31788e-06
2.24661e-06
0.000112433
3.21203e-06
5.27382e-06
0.000112617
9.24632e-06
-1.03086e-06
0.000181391
4.80347e-05
-7.31373e-05
0.000180004
5.91736e-05
-5.94814e-06
0.000174104
5.84592e-05
-1.83754e-06
0.000162945
5.81184e-05
2.94825e-06
0.00014075
5.96383e-05
1.288e-05
0.000120335
6.45454e-05
9.01994e-06
9.44318e-05
0.000100257
0.000164274
-2.16036e-09
4.68176e-05
0.000147729
1.77035e-09
1.65468e-05
0.000140541
-1.15915e-09
7.18643e-06
0.000135234
1.17056e-08
5.31089e-06
0.000131602
8.06883e-09
3.62934e-06
0.000129951
6.81886e-08
1.65542e-06
0.000127837
1.35434e-07
2.1129e-06
0.000125346
2.24936e-07
2.48335e-06
0.000122715
3.76498e-07
2.61527e-06
0.000120243
6.9294e-07
2.4373e-06
0.00011776
1.45883e-06
2.3954e-06
0.000112309
3.57592e-06
5.16866e-06
0.000113231
1.03768e-05
-1.8591e-06
0.000181901
5.32776e-05
-7.30861e-05
0.000180568
6.69524e-05
-6.37962e-06
0.000174401
6.63e-05
-1.67878e-06
0.000163688
6.6465e-05
2.31352e-06
0.000141936
6.95084e-05
1.17944e-05
0.000119728
7.73403e-05
9.22039e-06
0.000116776
9.72262e-05
0.000164263
-2.52737e-09
4.68281e-05
0.000147733
1.46093e-09
1.65331e-05
0.000140534
-1.83164e-09
7.1973e-06
0.000135234
1.177e-08
5.30365e-06
0.000131583
7.24754e-09
3.6485e-06
0.000129931
7.22172e-08
1.65786e-06
0.000127831
1.4416e-07
2.10013e-06
0.00012536
2.4458e-07
2.46231e-06
0.000122729
4.13065e-07
2.6116e-06
0.000120203
7.63523e-07
2.48588e-06
0.000117573
1.6126e-06
2.53001e-06
0.000112255
3.98153e-06
4.99731e-06
0.000114165
1.16805e-05
-3.02564e-06
0.000182745
5.86428e-05
-7.30697e-05
0.000181355
7.51054e-05
-6.74337e-06
0.000174874
7.43528e-05
-1.59105e-06
0.000164214
7.51633e-05
1.91149e-06
0.000142735
8.01276e-05
1.07704e-05
0.000119043
9.17063e-05
9.14451e-06
0.000142241
9.33844e-05
0.000164251
-3.13699e-09
4.68398e-05
0.000147737
7.67589e-10
1.65177e-05
0.000140526
-2.54276e-09
7.20928e-06
0.000135235
1.13686e-08
5.29531e-06
0.000131563
6.58179e-09
3.66869e-06
0.000129914
6.93807e-08
1.66142e-06
0.000127825
1.56206e-07
2.0856e-06
0.000125372
2.72986e-07
2.43675e-06
0.000122739
4.61247e-07
2.60194e-06
0.000120165
8.47763e-07
2.52005e-06
0.000117443
1.78726e-06
2.60442e-06
0.000112313
4.44354e-06
4.75431e-06
0.000115542
1.31565e-05
-4.51014e-06
0.000184212
6.39195e-05
-7.30338e-05
0.000182529
8.37858e-05
-7.04417e-06
0.000175572
8.29512e-05
-1.69814e-06
0.00016448
8.43811e-05
1.81282e-06
0.000143028
9.15174e-05
9.97804e-06
0.000117929
0.000107612
9.02331e-06
0.000170959
8.90322e-05
0.000164239
-4.86267e-09
4.68527e-05
0.000147742
8.71892e-10
1.65e-05
0.000140517
-3.21351e-09
7.22262e-06
0.000135236
1.13642e-08
5.2853e-06
0.000131548
5.19504e-09
3.68625e-06
0.000129878
5.61812e-08
1.69023e-06
0.000127825
1.79016e-07
2.04065e-06
0.000125406
3.12993e-07
2.39281e-06
0.000122783
5.19959e-07
2.58312e-06
0.000120182
9.40659e-07
2.53938e-06
0.000117434
1.97332e-06
2.61879e-06
0.000112552
4.94969e-06
4.46235e-06
0.000117322
1.48655e-05
-6.28949e-06
0.000186713
6.84271e-05
-7.29362e-05
0.000184375
9.31611e-05
-7.1667e-06
0.000176662
9.24799e-05
-1.92644e-06
0.000164671
9.46463e-05
1.63301e-06
0.000142936
0.000104179
8.9888e-06
0.000116265
0.000125324
8.83056e-06
0.000203488
8.35656e-05
0.000164216
-5.99716e-09
4.68737e-05
0.000147749
1.38226e-09
1.64701e-05
0.000140503
-3.67917e-09
7.2434e-06
0.000135237
1.18705e-08
5.2707e-06
0.000131539
8.98399e-10
3.69727e-06
0.000129778
5.33463e-08
1.7706e-06
0.000127843
1.89335e-07
1.93701e-06
0.000125508
3.41583e-07
2.32014e-06
0.000122929
5.69969e-07
2.54819e-06
0.000120346
1.02478e-06
2.53032e-06
0.000117685
2.13588e-06
2.55484e-06
0.000113289
5.35633e-06
4.07502e-06
0.000119204
1.61251e-05
-7.02655e-06
0.000190514
7.13386e-05
-7.32107e-05
0.000187108
0.000103521
-7.1623e-06
0.000178375
0.000103225
-2.17866e-06
0.000165018
0.000106414
1.4313e-06
0.000142687
0.000118588
7.7763e-06
0.000114551
0.000145387
7.92058e-06
0.000240795
7.70648e-05
0.000164186
-4.41092e-09
4.69003e-05
0.000147758
1.80057e-09
1.64316e-05
0.000140485
-4.08437e-09
7.26936e-06
0.000135239
1.09912e-08
5.25213e-06
0.000131535
-4.50008e-09
3.70496e-06
0.000129671
5.52761e-08
1.86867e-06
0.000127854
1.95364e-07
1.82276e-06
0.000125609
3.57916e-07
2.2429e-06
0.000123093
6.02579e-07
2.50214e-06
0.000120575
1.08722e-06
2.48725e-06
0.000118104
2.26296e-06
2.40061e-06
0.000114422
5.65513e-06
3.47027e-06
0.000121828
1.68129e-05
-7.95375e-06
0.000195828
7.14759e-05
-7.31251e-05
0.000190731
0.000115774
-7.45674e-06
0.000180581
0.000116095
-2.94095e-06
0.00016558
0.000120652
6.18391e-07
0.000142551
0.000135686
5.82936e-06
0.000113101
0.000168565
6.16455e-06
0.000285073
6.86143e-05
0.000164164
2.71595e-09
4.69215e-05
0.000147762
-2.2903e-09
1.64028e-05
0.000140476
-3.4124e-09
7.28754e-06
0.000135239
8.39273e-09
5.23887e-06
0.000131537
-7.90169e-09
3.70397e-06
0.000129562
5.65942e-08
1.97662e-06
0.000127869
1.98919e-07
1.70333e-06
0.000125708
3.68702e-07
2.16488e-06
0.000123254
6.25176e-07
2.45016e-06
0.000120818
1.13328e-06
2.42094e-06
0.000118604
2.35975e-06
2.17438e-06
0.000115703
5.87762e-06
2.75765e-06
0.000124785
1.80044e-05
-1.00442e-05
0.000202358
6.68802e-05
-7.20043e-05
0.000194989
0.000132625
-9.72208e-06
0.000183209
0.000132193
-4.5173e-06
0.000167137
0.000138654
-2.16506e-06
0.000143364
0.00015674
2.51725e-06
0.000112374
0.000196987
2.43089e-06
0.000340778
5.64411e-05
0.000164189
4.69031e-05
4.74196e-09
0.000147762
1.64231e-05
-1.32656e-09
0.000140483
7.27972e-06
-2.55992e-09
0.000135243
5.24118e-06
6.72928e-09
0.000131549
3.69316e-06
-8.21988e-09
0.000129461
2.09193e-06
5.46076e-08
0.000127892
1.57782e-06
2.02522e-07
0.000125814
2.0839e-06
3.76946e-07
0.000123424
2.39186e-06
6.40939e-07
0.000121096
2.32987e-06
1.1603e-06
0.000119211
1.89592e-06
2.39317e-06
0.000118024
1.42346e-06
5.80127e-06
0.000125161
-7.77884e-06
1.77633e-05
0.000196986
-6.52816e-05
6.08088e-05
0.000195092
-2.30458e-05
0.000157694
0.000183096
-1.09573e-05
0.000155064
0.000168155
-9.14075e-06
0.000162569
0.000144968
-5.40535e-06
0.00018515
0.000113208
-7.35263e-06
0.000235955
3.70085e-05
0.000416731
0.000231029
1.52479e-10
2.55963e-05
0.000226543
3.75284e-10
2.10992e-05
0.000216684
7.75501e-10
1.69903e-05
0.000211878
2.42298e-09
1.01537e-05
0.000208926
3.81164e-09
6.46687e-06
0.000205059
1.10236e-08
5.51626e-06
0.000201464
1.99744e-08
5.78532e-06
0.000198622
3.43235e-08
5.41568e-06
0.000196853
6.2946e-08
4.29952e-06
0.000196663
1.28554e-07
2.02768e-06
0.000200517
2.97383e-07
-3.34795e-06
0.00022245
7.78624e-07
-1.83608e-05
0.000262669
2.43844e-06
-4.15007e-05
0.000288676
5.78467e-06
-0.000103192
0.0002716
6.48414e-06
1.11899e-05
0.000248744
6.69008e-06
2.03683e-05
0.000213881
6.7991e-06
3.93263e-05
0.000170485
6.89017e-06
6.01812e-05
0.000118981
8.49117e-06
4.73887e-05
8.87925e-06
0.000249754
0.000231029
3.08437e-10
2.55962e-05
0.000226544
7.55331e-10
2.10989e-05
0.000216683
1.55219e-09
1.69917e-05
0.000211877
4.92073e-09
1.01536e-05
0.000208923
7.67346e-09
6.46976e-06
0.000205064
2.24382e-08
5.50901e-06
0.00020147
4.06453e-08
5.781e-06
0.000198628
6.98356e-08
5.41379e-06
0.000196857
1.2826e-07
4.29976e-06
0.000196666
2.62994e-07
2.03162e-06
0.000200516
6.13342e-07
-3.32953e-06
0.000222267
1.62799e-06
-1.82598e-05
0.000261295
5.07758e-06
-4.08501e-05
0.000287473
1.2642e-05
-0.000104801
0.000270371
1.39062e-05
9.57768e-06
0.000247524
1.42916e-05
1.87147e-05
0.000212809
1.45821e-05
3.74215e-05
0.000170097
1.47682e-05
5.7845e-05
0.000117384
1.95459e-05
4.45833e-05
1.76926e-05
0.000245932
0.00023103
4.59292e-10
2.55961e-05
0.000226544
1.12573e-09
2.10983e-05
0.000216682
2.30761e-09
1.69945e-05
0.000211876
7.4648e-09
1.01534e-05
0.000208918
1.16008e-08
6.47595e-06
0.000205072
3.42665e-08
5.49484e-06
0.000201484
6.217e-08
5.77338e-06
0.000198639
1.06918e-07
5.41207e-06
0.000196865
1.96688e-07
4.30432e-06
0.000196673
4.04552e-07
2.04863e-06
0.000200519
9.47977e-07
-3.26518e-06
0.000221977
2.53381e-06
-1.79484e-05
0.000258924
7.87887e-06
-3.91284e-05
0.000286394
2.04086e-05
-0.00010722
0.000269436
2.23224e-05
7.68349e-06
0.000246594
2.29092e-05
1.7035e-05
0.000212069
2.34113e-05
3.54985e-05
0.000170308
2.38338e-05
5.51669e-05
0.00011636
3.30627e-05
4.17342e-05
2.71799e-05
0.000242395
0.000231031
5.85884e-10
2.55959e-05
0.000226545
1.45565e-09
2.10974e-05
0.00021668
3.00064e-09
1.69989e-05
0.000211873
1.0046e-08
1.01531e-05
0.000208909
1.55646e-08
6.48557e-06
0.000205086
4.64623e-08
5.47335e-06
0.000201504
8.44335e-08
5.76221e-06
0.000198656
1.45382e-07
5.41027e-06
0.000196877
2.67915e-07
4.31276e-06
0.000196684
5.52491e-07
2.07766e-06
0.000200523
1.29896e-06
-3.15757e-06
0.00022156
3.4887e-06
-1.74378e-05
0.000255597
1.08179e-05
-3.64332e-05
0.000285323
2.90166e-05
-0.000110419
0.000268649
3.17973e-05
5.70351e-06
0.000245858
3.26241e-05
1.52844e-05
0.000211608
3.33542e-05
3.3481e-05
0.000171074
3.41487e-05
5.21435e-05
0.000117062
4.82432e-05
3.89248e-05
3.82436e-05
0.000239321
0.000231032
6.39069e-10
2.55957e-05
0.000226547
1.68589e-09
2.10962e-05
0.000216677
3.55757e-09
1.70049e-05
0.00021187
1.27192e-08
1.01526e-05
0.000208898
1.95506e-08
6.49884e-06
0.000205104
5.88309e-08
5.44414e-06
0.000201532
1.07036e-07
5.74729e-06
0.000198682
1.84461e-07
5.40837e-06
0.000196896
3.4032e-07
4.32507e-06
0.000196704
7.03022e-07
2.11868e-06
0.000200533
1.65644e-06
-3.0058e-06
0.000221028
4.4647e-06
-1.67269e-05
0.000251411
1.37701e-05
-3.28051e-05
0.000284262
3.83849e-05
-0.000114431
0.000267969
4.2338e-05
3.63027e-06
0.000245306
4.34815e-05
1.34189e-05
0.000211476
4.44539e-05
3.13042e-05
0.000172319
4.57346e-05
4.88186e-05
0.000119265
6.44376e-05
3.63061e-05
5.15534e-05
0.000236684
0.000231034
5.45076e-10
2.55955e-05
0.000226548
1.77004e-09
2.10948e-05
0.000216673
3.9819e-09
1.70125e-05
0.000211865
1.54289e-08
1.01517e-05
0.000208883
2.35961e-08
6.51599e-06
0.000205127
7.10454e-08
5.40711e-06
0.000201568
1.29341e-07
5.72861e-06
0.000198715
2.22978e-07
5.4064e-06
0.000196923
4.11433e-07
4.34133e-06
0.000196734
8.5006e-07
2.17172e-06
0.000200556
2.0033e-06
-2.81039e-06
0.000220391
5.40777e-06
-1.58113e-05
0.000246496
1.65683e-05
-2.833e-05
0.000283276
4.84718e-05
-0.000119285
0.000267403
5.39779e-05
1.45601e-06
0.00024499
5.54923e-05
1.14079e-05
0.000211714
5.67367e-05
2.89385e-05
0.00017412
5.85744e-05
4.51586e-05
0.00012282
8.12822e-05
3.3974e-05
6.74271e-05
0.000234497
0.000231037
3.39472e-10
2.55955e-05
0.000226549
1.74566e-09
2.10933e-05
0.000216668
4.42163e-09
1.70219e-05
0.000211859
1.7927e-08
1.01501e-05
0.000208865
2.75313e-08
6.53687e-06
0.000205154
8.27886e-08
5.3626e-06
0.000201612
1.50763e-07
5.70633e-06
0.000198755
2.5974e-07
5.40437e-06
0.000196956
4.78432e-07
4.36146e-06
0.000196774
9.85747e-07
2.23645e-06
0.000200592
2.31415e-06
-2.57341e-06
0.000219693
6.22577e-06
-1.47135e-05
0.000241238
1.8848e-05
-2.32293e-05
0.000282392
5.94761e-05
-0.000124932
0.000266943
6.67455e-05
-8.47883e-07
0.000244927
6.86728e-05
9.21027e-06
0.000212438
7.01669e-05
2.63098e-05
0.000176306
7.26629e-05
4.13747e-05
0.000127077
9.87051e-05
3.20278e-05
8.61923e-05
0.000232308
0.000231042
2.28549e-10
2.55955e-05
0.000226548
1.69843e-09
2.10917e-05
0.000216662
4.67949e-09
1.70326e-05
0.000211852
2.02506e-08
1.0148e-05
0.000208844
3.10816e-08
6.56121e-06
0.000205185
9.39079e-08
5.31095e-06
0.000201662
1.71272e-07
5.6806e-06
0.0001988
2.94676e-07
5.40222e-06
0.000196991
5.40757e-07
4.3851e-06
0.000196807
1.1069e-06
2.31133e-06
0.000200606
2.57123e-06
-2.30476e-06
0.000218947
6.81187e-06
-1.35234e-05
0.000236515
2.00416e-05
-1.83532e-05
0.000281691
7.16856e-05
-0.000130375
0.000266351
8.08088e-05
-3.1976e-06
0.000244794
8.30755e-05
6.83455e-06
0.00021354
8.46106e-05
2.33686e-05
0.000178724
8.7916e-05
3.75309e-05
0.000131745
0.000116636
3.05094e-05
0.000107986
0.000229837
0.000231048
1.53006e-10
2.55956e-05
0.000226548
1.67501e-09
2.109e-05
0.000216656
4.80869e-09
1.70448e-05
0.000211845
2.24062e-08
1.01454e-05
0.000208821
3.39957e-08
6.58889e-06
0.00020522
1.04946e-07
5.25228e-06
0.000201716
1.92053e-07
5.65138e-06
0.000198845
3.30658e-07
5.39965e-06
0.00019701
6.06753e-07
4.41164e-06
0.000196781
1.2408e-06
2.39393e-06
0.000200405
2.87357e-06
-2.01976e-06
0.000217561
7.58102e-06
-1.24363e-05
0.000233563
2.19785e-05
-1.74156e-05
0.000281188
8.30979e-05
-0.000131734
0.000266331
9.53407e-05
-4.82309e-06
0.000245507
9.82388e-05
4.42621e-06
0.000215468
0.000100045
2.02259e-05
0.000182124
0.000104258
3.35743e-05
0.000136739
0.000135541
2.95182e-05
0.000133298
0.000226774
0.000231055
7.79844e-11
2.55959e-05
0.000226548
1.61579e-09
2.10879e-05
0.00021665
4.806e-09
1.70584e-05
0.000211837
2.445e-08
1.01424e-05
0.000208796
3.63493e-08
6.61968e-06
0.000205259
1.16255e-07
5.18757e-06
0.000201778
2.13644e-07
5.61745e-06
0.000198895
3.68613e-07
5.39525e-06
0.000197029
6.78117e-07
4.44087e-06
0.00019674
1.38991e-06
2.48515e-06
0.000200165
3.21969e-06
-1.7194e-06
0.000216004
8.47955e-06
-1.12523e-05
0.000230629
2.45177e-05
-1.67622e-05
0.000279781
9.44752e-05
-0.000132784
0.000266074
0.000109803
-6.02607e-06
0.000246733
0.000113414
2.20235e-06
0.000218336
0.000116096
1.70025e-05
0.000186169
0.000121795
2.97857e-05
0.000141874
0.0001557
2.90674e-05
0.00016276
0.000222752
0.000231063
-2.85369e-11
2.55964e-05
0.000226548
1.49812e-09
2.10856e-05
0.000216643
4.69447e-09
1.70734e-05
0.000211828
2.63462e-08
1.01388e-05
0.000208768
3.85257e-08
6.65329e-06
0.000205301
1.27344e-07
5.1189e-06
0.00020185
2.3558e-07
5.57735e-06
0.000198958
4.08151e-07
5.38758e-06
0.000197055
7.53897e-07
4.47387e-06
0.000196695
1.55054e-06
2.59208e-06
0.000199892
3.59609e-06
-1.37477e-06
0.000214335
9.4614e-06
-9.96728e-06
0.000227636
2.72609e-05
-1.60299e-05
0.000278079
0.000106122
-0.000134033
0.000265524
0.000124335
-7.315e-06
0.000248236
0.000128618
1.9866e-07
0.000221354
0.000132502
1.41546e-05
0.000190714
0.000140186
2.59622e-05
0.000146972
0.000176712
2.95405e-05
0.000197629
0.00021729
0.000231071
-2.14161e-10
2.5597e-05
0.000226548
1.25077e-09
2.1083e-05
0.000216635
4.38736e-09
1.70897e-05
0.000211819
2.79063e-08
1.01346e-05
0.000208738
4.02588e-08
6.69069e-06
0.000205349
1.37965e-07
5.04298e-06
0.000201933
2.57186e-07
5.53201e-06
0.000199034
4.47977e-07
5.37831e-06
0.000197091
8.31681e-07
4.51153e-06
0.000196651
1.71716e-06
2.71604e-06
0.000199583
3.98648e-06
-9.73985e-07
0.000212505
1.04767e-05
-8.53776e-06
0.000224423
3.00587e-05
-1.52612e-05
0.000276439
0.00011794
-0.000135603
0.000264588
0.000139314
-8.83818e-06
0.00024933
0.000144109
-1.93374e-06
0.000223703
0.000149338
1.17624e-05
0.000195337
0.000159666
2.16219e-05
0.000151131
0.00019748
3.20077e-05
0.000238974
0.000209663
0.00023108
-5.0603e-10
2.55979e-05
0.000226547
7.74764e-10
2.10803e-05
0.000216627
3.70312e-09
1.71074e-05
0.00021181
2.87689e-08
1.01299e-05
0.000208706
4.08982e-08
6.73226e-06
0.000205404
1.47308e-07
4.95908e-06
0.000202028
2.77422e-07
5.48142e-06
0.000199122
4.8676e-07
5.36769e-06
0.000197136
9.09363e-07
4.55398e-06
0.000196607
1.88468e-06
2.85653e-06
0.000199236
4.37481e-06
-5.19544e-07
0.000210479
1.14691e-05
-6.93769e-06
0.000220992
3.28129e-05
-1.4633e-05
0.000274774
0.000130066
-0.000137608
0.000263445
0.000155
-1.05407e-05
0.000249902
0.000159848
-3.75185e-06
0.000225293
0.000166586
9.71683e-06
0.000198125
0.000180452
1.80984e-05
0.000145525
0.000222378
3.65723e-05
0.000282831
0.000198501
0.00023109
-1.00707e-09
2.5599e-05
0.000226546
-9.75979e-11
2.10778e-05
0.000216618
2.37826e-09
1.71263e-05
0.000211801
2.8334e-08
1.01245e-05
0.000208672
3.9556e-08
6.77826e-06
0.000205467
1.54007e-07
4.86675e-06
0.000202136
2.95302e-07
5.4253e-06
0.000199223
5.24507e-07
5.35561e-06
0.000197186
9.8711e-07
4.60084e-06
0.000196555
2.0481e-06
3.01174e-06
0.000198847
4.73334e-06
-1.71552e-08
0.000208325
1.23489e-05
-5.22882e-06
0.000217533
3.53346e-05
-1.42599e-05
0.000273273
0.00014256
-0.000139878
0.000262234
0.000171488
-1.20666e-05
0.000249768
0.000175888
-5.09468e-06
0.000226045
0.000184447
7.81113e-06
0.000199381
0.000202636
1.52207e-05
0.000140977
0.000249809
3.98003e-05
0.000330972
0.000185851
0.000231101
-1.88779e-09
2.56003e-05
0.000226544
-1.65573e-09
2.10758e-05
0.00021661
-3.10666e-11
1.71458e-05
0.000211792
2.57461e-08
1.01181e-05
0.000208636
3.44486e-08
6.82887e-06
0.000205542
1.55627e-07
4.76458e-06
0.000202257
3.14451e-07
5.36345e-06
0.000199323
5.69918e-07
5.34287e-06
0.000197217
1.07466e-06
4.6516e-06
0.00019645
2.21299e-06
3.17934e-06
0.000198374
5.06549e-06
4.56739e-07
0.000206274
1.31103e-05
-3.76269e-06
0.000214328
3.75187e-05
-1.42361e-05
0.000272596
0.000154869
-0.000142138
0.000261395
0.000188854
-1.31975e-05
0.000248262
0.000193014
-5.69487e-06
0.000225466
0.000203132
5.93161e-06
0.000199312
0.00022606
1.27188e-05
0.0001374
0.000280159
4.03536e-05
0.000384226
0.000172876
0.000231113
-3.57888e-09
2.56018e-05
0.00022654
-3.9881e-09
2.10753e-05
0.000216602
-4.04327e-09
1.71641e-05
0.000211786
2.04806e-08
1.01091e-05
0.000208603
1.57669e-08
6.88702e-06
0.000205648
1.65231e-07
4.64526e-06
0.000202362
3.49336e-07
5.30441e-06
0.000199379
6.32956e-07
5.3314e-06
0.000197199
1.17186e-06
4.69772e-06
0.000196312
2.36362e-06
3.33146e-06
0.0001979
5.32662e-06
8.72078e-07
0.000204599
1.36606e-05
-2.6442e-06
0.000211982
3.91323e-05
-1.48186e-05
0.000273243
0.000165402
-0.000143153
0.000261332
0.000207067
-1.35976e-05
0.000247246
0.000211384
-6.29576e-06
0.000224581
0.000223214
4.15511e-06
0.000197861
0.00025141
1.03265e-05
0.000134659
0.000313456
3.85484e-05
0.000442642
0.000159546
0.000231131
-4.71427e-09
2.56037e-05
0.000226524
-5.66553e-09
2.10789e-05
0.000216595
-7.49855e-09
1.71743e-05
0.000211791
1.52162e-08
1.00832e-05
0.000208577
-4.57664e-09
6.92782e-06
0.000205758
1.73617e-07
4.59288e-06
0.000202397
3.82223e-07
5.2792e-06
0.000199378
6.92607e-07
5.29977e-06
0.000197172
1.26366e-06
4.69379e-06
0.00019621
2.50502e-06
3.40649e-06
0.000197507
5.57041e-06
1.11533e-06
0.00020347
1.418e-05
-2.25216e-06
0.00021135
4.05183e-05
-1.58915e-05
0.000275542
0.000172452
-0.000142759
0.000262282
0.000225851
-1.2889e-05
0.000246733
0.000231342
-6.78144e-06
0.00022381
0.000245242
2.24547e-06
0.000196366
0.000278897
7.71822e-06
0.000132199
0.000350333
3.5068e-05
0.000507821
0.00014386
0.000231153
-3.79558e-09
2.56061e-05
0.000226497
-4.92668e-09
2.10862e-05
0.000216589
-7.96778e-09
1.71769e-05
0.000211806
1.01286e-08
1.0043e-05
0.000208557
-1.74239e-08
6.96153e-06
0.000205852
1.74039e-07
4.58571e-06
0.000202398
3.99437e-07
5.27416e-06
0.000199366
7.30622e-07
5.25757e-06
0.000197175
1.32963e-06
4.6583e-06
0.000196178
2.61544e-06
3.42868e-06
0.000197229
5.76756e-06
1.25353e-06
0.000202717
1.46002e-05
-2.27269e-06
0.000212184
4.1658e-05
-1.82001e-05
0.000279512
0.000175118
-0.000141393
0.000264363
0.000245116
-1.18039e-05
0.000247063
0.000253074
-7.53058e-06
0.000223365
0.000269633
-2.355e-07
0.000194428
0.000309046
4.55651e-06
0.000131242
0.000390243
2.93193e-05
0.000581627
0.000125829
0.000231169
3.81175e-10
2.56083e-05
0.000226477
-1.88784e-09
2.1092e-05
0.000216586
-6.91504e-09
1.71769e-05
0.000211828
4.36554e-09
1.00028e-05
0.00020854
-2.39188e-08
6.99328e-06
0.000205945
1.71117e-07
4.58669e-06
0.000202387
4.02049e-07
5.27316e-06
0.000199344
7.44492e-07
5.21401e-06
0.000197182
1.35927e-06
4.61316e-06
0.000196179
2.66824e-06
3.42442e-06
0.000197049
5.8502e-06
1.32041e-06
0.00020241
1.47236e-05
-2.56649e-06
0.000214045
4.15179e-05
-2.12123e-05
0.000285333
0.000172071
-0.000138595
0.000266903
0.00026592
-1.23252e-05
0.00024763
0.000277038
-9.34337e-06
0.000223301
0.000296051
-4.40008e-06
0.000193543
0.000340967
2.69826e-07
0.000131158
0.000433628
2.13131e-05
0.000665857
0.000103128
0.000231154
2.5609e-05
1.96418e-09
0.000226481
2.1093e-05
4.88584e-10
0.000216582
1.71766e-05
-4.47791e-09
0.000211854
9.97139e-06
2.88035e-09
0.000208523
7.02098e-06
-2.4996e-08
0.000206043
4.58925e-06
1.65042e-07
0.000202372
5.27102e-06
3.93776e-07
0.000199311
5.16751e-06
7.41339e-07
0.000197173
4.56046e-06
1.3582e-06
0.000196162
3.39842e-06
2.66099e-06
0.00019686
1.33215e-06
5.80362e-06
0.00020152
-2.8795e-06
1.45431e-05
0.000216951
-2.25099e-05
4.10468e-05
0.0002942
-0.000131668
0.000162407
0.000269641
-1.8218e-05
0.000285486
0.000248345
-1.31973e-05
0.000300434
0.000224268
-1.03006e-05
0.00032116
0.000195221
-7.10637e-06
0.000371621
0.000134971
9.60309e-06
0.000476807
7.45701e-05
0.000762985
0.000224143
2.25919e-10
1.1234e-05
0.000230646
2.63097e-10
1.45966e-05
0.000235128
1.70147e-09
1.25079e-05
0.00023406
3.65504e-09
1.12211e-05
0.000230845
7.29538e-09
9.67944e-06
0.000227273
1.2785e-08
9.0836e-06
0.000225545
2.27342e-08
7.50571e-06
0.000224922
4.2708e-08
6.02233e-06
0.000224902
8.66796e-08
4.28283e-06
0.000225689
1.93278e-07
1.14117e-06
0.000229525
4.84016e-07
-7.50288e-06
0.000246795
1.32018e-06
-3.67506e-05
0.000354781
5.65104e-06
-0.000153556
0.000267933
1.0262e-05
-2.64212e-05
0.000235418
1.16795e-05
3.17827e-05
0.000196209
1.29679e-05
4.62974e-05
0.000163126
1.3273e-05
5.88635e-05
0.000140255
1.28723e-05
6.98806e-05
2.32658e-05
2.05879e-05
0.000143422
1.73277e-05
0.00025558
0.000224143
4.5429e-10
1.1234e-05
0.000230645
5.18576e-10
1.45964e-05
0.00023513
3.40311e-09
1.25067e-05
0.000234064
7.32781e-09
1.12199e-05
0.000230854
1.46387e-08
9.6768e-06
0.000227274
2.5684e-08
9.08473e-06
0.000225542
4.57001e-08
7.50457e-06
0.00022492
8.58946e-08
6.01912e-06
0.000224904
1.74527e-07
4.27739e-06
0.000225701