/*--------------------------------*- C++ -*----------------------------------*\
  =========                 |
  \\      /  F ield         | OpenFOAM: The Open Source CFD Toolbox
   \\    /   O peration     | Website:  https://openfoam.org
    \\  /    A nd           | Version:  6.0
     \\/     M anipulation  |
\*---------------------------------------------------------------------------*/
FoamFile
{
    version     2.0;
    format      ascii;
    class       volScalarField;
    location    "3.5";
    object      T;
}
// * * * * * * * * * * * * * * * * * * * * * * * * * * * * * * * * * * * * * //

dimensions      [0 0 0 1 0 0 0];

internalField   nonuniform List<scalar> 
24000
(
0.884713
0.840574
0.819008
0.801879
0.791264
0.786467
0.786472
0.788328
0.796475
0.821428
0.889861
1.0728
1.64658
2.15828
2.21144
2.22172
2.24684
2.29389
2.52136
2.3154
0.884712
0.840574
0.819007
0.801879
0.791258
0.786453
0.786457
0.788308
0.796442
0.821363
0.889745
1.07273
1.64937
2.16071
2.21487
2.2256
2.25154
2.29932
2.52758
2.33001
0.884709
0.840576
0.819003
0.801878
0.791246
0.786425
0.786424
0.788263
0.796363
0.821202
0.889418
1.07234
1.65142
2.16276
2.21817
2.22914
2.25562
2.30402
2.53353
2.34306
0.884705
0.840578
0.818998
0.801876
0.791226
0.786383
0.786369
0.788192
0.796235
0.820934
0.888842
1.07146
1.65259
2.16454
2.22123
2.23248
2.25952
2.30873
2.53894
2.35483
0.884699
0.840582
0.818988
0.801876
0.79119
0.786333
0.786289
0.788087
0.796053
0.820551
0.887993
1.06997
1.6527
2.16639
2.22446
2.23585
2.26319
2.31343
2.54429
2.36512
0.884691
0.840591
0.81897
0.801888
0.791134
0.786274
0.786186
0.787951
0.795812
0.820043
0.886854
1.06785
1.65142
2.16801
2.22784
2.23935
2.2668
2.31822
2.54914
2.37469
0.884671
0.84062
0.818932
0.801912
0.791066
0.7862
0.786061
0.787785
0.795517
0.819414
0.88542
1.06502
1.6485
2.16904
2.23144
2.24306
2.27041
2.32294
2.5535
2.38322
0.884633
0.840665
0.818893
0.801939
0.790987
0.786118
0.785917
0.787592
0.79517
0.818671
0.883711
1.06143
1.64391
2.16811
2.23488
2.24715
2.27432
2.32812
2.55711
2.39189
0.884588
0.84071
0.818844
0.801975
0.790902
0.786027
0.785755
0.787374
0.794779
0.817828
0.881757
1.05702
1.63668
2.16403
2.2365
2.25093
2.27843
2.33335
2.56018
2.40012
0.884538
0.840763
0.81879
0.802009
0.790801
0.785921
0.785572
0.78713
0.794338
0.816872
0.879511
1.05174
1.62537
2.15883
2.23541
2.25339
2.28179
2.33766
2.56135
2.40798
0.884483
0.84082
0.81873
0.802047
0.790693
0.785799
0.78536
0.786848
0.793836
0.815787
0.876957
1.04556
1.61192
2.15141
2.23325
2.25222
2.28332
2.34055
2.56155
2.41584
0.884424
0.840882
0.818665
0.802091
0.79057
0.785663
0.785124
0.786534
0.793273
0.814566
0.87407
1.03842
1.59624
2.14134
2.2319
2.24954
2.28254
2.34025
2.55881
2.42482
0.884359
0.840951
0.818593
0.80214
0.790436
0.785514
0.784862
0.786184
0.792645
0.813198
0.870833
1.03025
1.57841
2.12921
2.23017
2.24658
2.28053
2.33854
2.55497
2.42738
0.884288
0.841029
0.818514
0.802196
0.790289
0.785351
0.784573
0.785797
0.791948
0.811676
0.867221
1.02096
1.55773
2.11526
2.22715
2.24339
2.27697
2.33464
2.5491
2.431
0.884209
0.841116
0.818426
0.802261
0.790129
0.785177
0.784255
0.785369
0.791175
0.809989
0.863212
1.01035
1.5328
2.09831
2.22294
2.23919
2.27231
2.32846
2.54009
2.43009
0.884122
0.841215
0.818323
0.802348
0.789946
0.785017
0.783857
0.784884
0.790325
0.808124
0.858736
0.998007
1.50347
2.07662
2.21625
2.23263
2.26579
2.32021
2.52814
2.42654
0.883974
0.841398
0.818155
0.80251
0.789728
0.784912
0.783302
0.784306
0.789396
0.80609
0.853717
0.983491
1.46402
2.04931
2.20585
2.22208
2.25489
2.30716
2.51082
2.41774
0.88378
0.841629
0.81795
0.80272
0.789483
0.784826
0.78267
0.783661
0.788383
0.803901
0.848289
0.967557
1.41637
2.01601
2.18995
2.20823
2.24171
2.29076
2.4898
2.40002
0.883615
0.841778
0.817854
0.802794
0.789409
0.784529
0.782128
0.783021
0.787314
0.801566
0.84257
0.950292
1.37189
1.9767
2.16755
2.1844
2.22194
2.2653
2.45445
2.37271
0.883757
0.841599
0.817976
0.802617
0.789474
0.784019
0.781602
0.782356
0.78618
0.79913
0.836316
0.935291
1.26699
1.93617
2.15392
2.17143
2.20807
2.24265
2.41261
2.30458
0.997262
0.990331
0.981681
0.972342
0.965999
0.965827
0.967254
0.973803
0.992842
1.0417
1.16592
1.49801
2.174
2.47969
2.50911
2.52079
2.55176
2.64072
2.80627
2.71288
0.997263
0.990328
0.98168
0.972338
0.965991
0.96581
0.967231
0.973763
0.992758
1.04151
1.16543
1.49689
2.17305
2.4811
2.51058
2.52257
2.55363
2.64411
2.80517
2.71891
0.997265
0.990325
0.981678
0.972329
0.965975
0.965775
0.967184
0.973681
0.992584
1.04111
1.1644
1.49386
2.17029
2.48171
2.51146
2.5238
2.55497
2.64652
2.80298
2.72312
0.997268
0.99032
0.981676
0.972316
0.965949
0.965722
0.967111
0.973553
0.992314
1.04049
1.16281
1.489
2.16567
2.48179
2.51187
2.52446
2.55583
2.64766
2.80101
2.72769
0.997272
0.990312
0.981673
0.9723
0.965916
0.96565
0.967013
0.97338
0.991946
1.03965
1.16061
1.48227
2.15864
2.48141
2.51192
2.52463
2.55616
2.64705
2.79929
2.73223
0.997277
0.990301
0.981669
0.97228
0.965875
0.965561
0.966889
0.97316
0.991478
1.03856
1.15779
1.47357
2.14917
2.48002
2.51151
2.52432
2.55586
2.645
2.79707
2.73653
0.997283
0.99029
0.981665
0.972255
0.965823
0.965454
0.96674
0.972896
0.990913
1.03725
1.15437
1.46305
2.13637
2.47745
2.51048
2.52336
2.55495
2.64097
2.795
2.74093
0.997286
0.990276
0.981657
0.972226
0.965763
0.965328
0.966567
0.972589
0.990261
1.03575
1.15047
1.45115
2.1209
2.4727
2.50962
2.5227
2.55427
2.63446
2.7923
2.74463
0.997289
0.99026
0.981647
0.972192
0.965695
0.965185
0.96637
0.972244
0.989535
1.03409
1.14631
1.43912
2.1081
2.46669
2.5071
2.5205
2.55262
2.6299
2.78833
2.74821
0.997292
0.990242
0.981636
0.972152
0.965616
0.965022
0.966147
0.971854
0.988719
1.03225
1.1417
1.42614
2.09415
2.46125
2.50556
2.51845
2.55018
2.62421
2.78271
2.7503
0.997296
0.990223
0.981623
0.972109
0.965529
0.964837
0.965894
0.971413
0.987796
1.03016
1.1365
1.41179
2.07696
2.4552
2.50469
2.51687
2.54789
2.61808
2.7749
2.74951
0.997301
0.990201
0.981609
0.972063
0.965433
0.964632
0.965612
0.970919
0.986757
1.0278
1.13064
1.39574
2.05763
2.44719
2.50359
2.51625
2.54627
2.61268
2.76638
2.74775
0.997306
0.990179
0.981595
0.972013
0.965328
0.964405
0.965299
0.970368
0.985598
1.02517
1.12409
1.37792
2.03568
2.4382
2.50224
2.51542
2.54415
2.60686
2.75733
2.74148
0.997312
0.990155
0.98158
0.97196
0.965215
0.964157
0.964956
0.969762
0.984317
1.02226
1.11687
1.35844
2.01086
2.42738
2.50121
2.51428
2.54177
2.60016
2.74833
2.73282
0.99732
0.99013
0.981566
0.971906
0.965096
0.963888
0.964581
0.969098
0.982923
1.01908
1.10948
1.33809
1.98436
2.41178
2.49834
2.51163
2.53839
2.5929
2.7366
2.72058
0.997331
0.990106
0.981554
0.971854
0.964972
0.963586
0.964176
0.968383
0.981428
1.01569
1.10169
1.31704
1.95287
2.39368
2.49372
2.50655
2.53177
2.5817
2.72467
2.70313
0.997334
0.990083
0.981544
0.971813
0.96484
0.963202
0.963724
0.967633
0.979885
1.0122
1.09356
1.29592
1.91375
2.37334
2.48684
2.50028
2.52487
2.56872
2.70309
2.68541
0.997319
0.990071
0.981526
0.971795
0.964684
0.962755
0.963214
0.966823
0.978266
1.00858
1.08507
1.27435
1.8685
2.34984
2.47796
2.48897
2.51322
2.55196
2.68159
2.65059
0.997296
0.990067
0.981497
0.97179
0.964517
0.962272
0.962667
0.965964
0.976575
1.00484
1.07625
1.25224
1.81565
2.32287
2.46796
2.47714
2.49895
2.52839
2.64464
2.61433
0.997332
0.990064
0.981513
0.971793
0.964378
0.961767
0.962127
0.965097
0.974856
1.00104
1.0673
1.23059
1.76056
2.28688
2.45111
2.46165
2.48401
2.50471
2.59943
2.53826
1.02471
1.031
1.0275
1.02383
1.02204
1.02212
1.02489
1.03528
1.06311
1.13265
1.30127
1.86336
2.47262
2.6385
2.64451
2.64695
2.66007
2.74023
2.81259
2.75606
1.02471
1.031
1.0275
1.02383
1.02203
1.02211
1.02487
1.03523
1.063
1.13239
1.30065
1.86162
2.47096
2.63909
2.64507
2.64816
2.66249
2.7437
2.81169
2.76065
1.0247
1.031
1.02749
1.02382
1.02201
1.02208
1.02482
1.03513
1.06278
1.13186
1.29934
1.85768
2.46767
2.63885
2.64502
2.64873
2.66413
2.74592
2.80997
2.76371
1.0247
1.031
1.02747
1.02381
1.02197
1.02205
1.02476
1.03499
1.06244
1.13105
1.29732
1.85138
2.46253
2.6376
2.64448
2.64905
2.66536
2.74541
2.80816
2.76702
1.0247
1.031
1.02745
1.0238
1.02192
1.022
1.02466
1.03478
1.06198
1.12993
1.29451
1.84261
2.45532
2.63512
2.64292
2.6487
2.66614
2.744
2.80438
2.77034
1.02469
1.03099
1.02742
1.02378
1.02186
1.02194
1.02455
1.03453
1.06139
1.1285
1.29093
1.83073
2.44613
2.63099
2.64047
2.6476
2.66631
2.74042
2.8023
2.77345
1.02469
1.03099
1.02738
1.02376
1.02179
1.02187
1.02441
1.03422
1.06068
1.12676
1.28657
1.81582
2.43456
2.62536
2.6364
2.64552
2.66597
2.73551
2.79788
2.77597
1.02468
1.03099
1.02734
1.02374
1.02171
1.02179
1.02425
1.03386
1.05985
1.12475
1.28152
1.79881
2.41978
2.61789
2.63041
2.64177
2.66456
2.72881
2.79407
2.77842
1.02468
1.03099
1.02729
1.02371
1.02161
1.0217
1.02406
1.03345
1.05892
1.1225
1.27622
1.77774
2.41022
2.61055
2.62354
2.6376
2.66227
2.72086
2.78903
2.77952
1.02467
1.03098
1.02724
1.02368
1.0215
1.0216
1.02385
1.03299
1.05787
1.11994
1.2706
1.74953
2.39771
2.60519
2.61908
2.6328
2.65923
2.71339
2.78354
2.77916
1.02466
1.03098
1.02719
1.02365
1.02139
1.02148
1.02362
1.03247
1.05667
1.11703
1.26405
1.71963
2.37891
2.60026
2.61341
2.62802
2.657
2.70373
2.7776
2.77744
1.02465
1.03098
1.02712
1.02361
1.02126
1.02136
1.02336
1.03188
1.05531
1.11372
1.25654
1.68653
2.35638
2.59322
2.61073
2.6223
2.65538
2.69252
2.77005
2.77379
1.02464
1.03097
1.02706
1.02358
1.02112
1.02122
1.02307
1.03121
1.05377
1.10998
1.24817
1.64792
2.33109
2.58462
2.60931
2.61761
2.65198
2.68539
2.75851
2.76834
1.02464
1.03097
1.02699
1.02354
1.02097
1.02107
1.02275
1.03048
1.05207
1.10582
1.23891
1.60448
2.30135
2.5734
2.60743
2.61398
2.64611
2.67578
2.74824
2.75693
1.02463
1.03097
1.02691
1.0235
1.02081
1.02091
1.02241
1.02968
1.0502
1.10136
1.22813
1.56657
2.26481
2.55556
2.60261
2.60993
2.6417
2.66821
2.73262
2.74577
1.02462
1.03097
1.02683
1.02348
1.02064
1.02075
1.02203
1.02881
1.04821
1.09671
1.21637
1.53364
2.22419
2.53843
2.59449
2.60268
2.63248
2.65693
2.72123
2.72227
1.02461
1.03098
1.02675
1.02352
1.02043
1.02049
1.02157
1.02788
1.04614
1.09197
1.20487
1.50121
2.1884
2.52118
2.58791
2.59686
2.62334
2.64332
2.70014
2.70221
1.02459
1.03099
1.02664
1.02362
1.0202
1.02014
1.02103
1.02687
1.04399
1.08708
1.19313
1.46807
2.15077
2.50278
2.57873
2.58701
2.61222
2.62848
2.68051
2.66213
1.02459
1.031
1.02663
1.02365
1.02003
1.01972
1.02042
1.02579
1.04175
1.08204
1.18106
1.4345
2.10269
2.48512
2.57201
2.57748
2.59723
2.60875
2.64951
2.62138
1.02459
1.031
1.02663
1.02369
1.01987
1.01929
1.0198
1.0247
1.03949
1.07698
1.16905
1.40143
2.05292
2.45741
2.56213
2.56706
2.58337
2.58729
2.61718
2.54722
1.02125
1.03467
1.04081
1.04348
1.04524
1.04764
1.05431
1.07057
1.10895
1.20164
1.4277
2.18467
2.66249
2.76396
2.74525
2.73986
2.74271
2.78032
2.81314
2.75352
1.02125
1.03467
1.04081
1.04347
1.04523
1.04762
1.05428
1.07052
1.10883
1.20137
1.42706
2.18265
2.66191
2.76364
2.74608
2.74099
2.74519
2.78165
2.81278
2.7578
1.02125
1.03467
1.0408
1.04346
1.04522
1.0476
1.05423
1.07042
1.10859
1.20081
1.42568
2.17846
2.66049
2.76275
2.74677
2.74147
2.74714
2.78115
2.81152
2.76039
1.02125
1.03467
1.0408
1.04345
1.0452
1.04756
1.05416
1.07025
1.10822
1.19993
1.4235
2.1718
2.65811
2.76138
2.74691
2.74143
2.7489
2.77995
2.80994
2.76249
1.02125
1.03466
1.04079
1.04344
1.04517
1.04751
1.05405
1.07003
1.10772
1.19872
1.42046
2.16233
2.65457
2.75948
2.74645
2.74117
2.75026
2.7794
2.80745
2.76442
1.02125
1.03466
1.04078
1.04342
1.04514
1.04745
1.05392
1.06975
1.10707
1.19716
1.41649
2.14983
2.64967
2.75688
2.74525
2.74041
2.75107
2.77821
2.80442
2.76586
1.02125
1.03465
1.04076
1.04339
1.04509
1.04737
1.05376
1.0694
1.10628
1.19524
1.41158
2.13418
2.64323
2.75341
2.74298
2.73893
2.75112
2.77632
2.80166
2.76685
1.02125
1.03465
1.04075
1.04336
1.04505
1.04728
1.05358
1.06899
1.10534
1.19296
1.40577
2.11544
2.63519
2.74854
2.74016
2.73716
2.75133
2.77224
2.79732
2.76754
1.02125
1.03464
1.04073
1.04333
1.04499
1.04717
1.05336
1.06852
1.10426
1.19035
1.39918
2.09392
2.62571
2.74245
2.73558
2.73458
2.751
2.76917
2.79178
2.76729
1.02125
1.03463
1.04071
1.04329
1.04493
1.04706
1.05312
1.06798
1.10301
1.18733
1.3915
2.07034
2.61328
2.73502
2.73074
2.73155
2.75037
2.76279
2.78442
2.76618
1.02124
1.03463
1.04068
1.04326
1.04487
1.04696
1.05286
1.06737
1.10159
1.18387
1.38268
2.04274
2.59844
2.72571
2.72508
2.7275
2.74892
2.75903
2.77597
2.7638
1.02124
1.03463
1.04065
1.04322
1.0448
1.04686
1.05257
1.06667
1.09996
1.17992
1.37257
2.01099
2.57916
2.7159
2.71813
2.72204
2.74534
2.7515
2.76827
2.75848
1.02123
1.03463
1.04062
1.04319
1.04473
1.04674
1.05225
1.06589
1.09812
1.17542
1.36095
1.97618
2.55507
2.7034
2.70918
2.71717
2.74208
2.7458
2.75572
2.75252
1.02122
1.03463
1.04059
1.04315
1.04466
1.04662
1.0519
1.06502
1.09606
1.17038
1.34783
1.93784
2.52554
2.69039
2.69876
2.70853
2.73551
2.73706
2.74604
2.73925
1.02121
1.03463
1.04056
1.04311
1.04459
1.04649
1.05151
1.06407
1.09379
1.16484
1.33365
1.89279
2.49184
2.67698
2.68798
2.70206
2.72811
2.72815
2.73038
2.72821
1.02121
1.03463
1.04053
1.04307
1.04452
1.04635
1.05108
1.06303
1.09134
1.15898
1.31821
1.85231
2.44706
2.65954
2.6739
2.68864
2.71924
2.71666
2.71862
2.70398
1.02121
1.03462
1.04052
1.04305
1.04445
1.04614
1.0506
1.06192
1.08879
1.15287
1.30359
1.7985
2.41914
2.64234
2.66559
2.67881
2.70673
2.70347
2.69989
2.68294
1.0212
1.03462
1.04051
1.04305
1.04436
1.04588
1.05007
1.06074
1.08613
1.14643
1.28915
1.73142
2.39088
2.62395
2.65272
2.66566
2.69464
2.68818
2.68233
2.64369
1.02121
1.03462
1.04052
1.04305
1.04427
1.0456
1.04949
1.05951
1.08335
1.13971
1.27437
1.65857
2.35329
2.60953
2.64535
2.65321
2.67674
2.6701
2.65649
2.60116
1.02121
1.03462
1.04053
1.04306
1.04419
1.04531
1.04891
1.05824
1.08051
1.13294
1.25897
1.59543
2.30382
2.58189
2.63504
2.64222
2.66037
2.65021
2.62866
2.5325
1.0103
1.02131
1.03021
1.03709
1.04206
1.0475
1.05789
1.07988
1.12887
1.24469
1.53201
2.46795
2.74272
2.77831
2.76841
2.76102
2.77712
2.7857
2.80118
2.76227
1.0103
1.02131
1.03021
1.03709
1.04205
1.04749
1.05786
1.07983
1.12876
1.24444
1.5314
2.4667
2.74235
2.77805
2.76843
2.76122
2.77905
2.78505
2.80028
2.76649
1.0103
1.02131
1.03021
1.03708
1.04204
1.04747
1.05782
1.07973
1.12853
1.24392
1.53009
2.46376
2.74148
2.77739
2.76799
2.76092
2.78043
2.7836
2.79842
2.76958
1.0103
1.0213
1.03021
1.03708
1.04203
1.04744
1.05775
1.07957
1.12818
1.2431
1.52801
2.45865
2.74011
2.77633
2.76689
2.76032
2.78012
2.78192
2.79555
2.77164
1.0103
1.0213
1.0302
1.03707
1.04201
1.0474
1.05765
1.07936
1.12769
1.24195
1.52506
2.45116
2.738
2.77511
2.7656
2.75902
2.77913
2.78063
2.79226
2.77322
1.0103
1.0213
1.03019
1.03705
1.04198
1.04734
1.05753
1.07908
1.12705
1.24045
1.52115
2.44106
2.73504
2.77351
2.76402
2.75743
2.77698
2.77796
2.78818
2.77395
1.0103
1.0213
1.03018
1.03704
1.04195
1.04728
1.05738
1.07874
1.12626
1.23856
1.51621
2.42812
2.73118
2.77153
2.76175
2.756
2.77405
2.776
2.7831
2.77342
1.0103
1.0213
1.03018
1.03702
1.04192
1.0472
1.0572
1.07833
1.12531
1.23628
1.5102
2.41221
2.72629
2.76907
2.75913
2.75329
2.77028
2.77184
2.77873
2.77173
1.0103
1.02129
1.03016
1.037
1.04188
1.04712
1.05699
1.07785
1.12419
1.23358
1.50311
2.39278
2.7207
2.76609
2.75616
2.75124
2.76654
2.76857
2.77196
2.7693
1.0103
1.02129
1.03015
1.03698
1.04183
1.04703
1.05675
1.07729
1.12289
1.23041
1.4948
2.36963
2.71365
2.76303
2.75246
2.74757
2.76161
2.76158
2.767
2.76428
1.0103
1.02129
1.03014
1.03696
1.04179
1.04694
1.05649
1.07665
1.12137
1.22672
1.48516
2.34209
2.70513
2.75955
2.74969
2.74454
2.75672
2.75705
2.75675
2.76006
1.01029
1.02129
1.03012
1.03693
1.04174
1.04685
1.05619
1.07591
1.11962
1.22247
1.47403
2.30985
2.69444
2.75573
2.74513
2.73959
2.75019
2.74791
2.75013
2.75128
1.01029
1.02128
1.03011
1.0369
1.0417
1.04674
1.05586
1.07507
1.11763
1.21759
1.46123
2.27313
2.68077
2.75142
2.74208
2.73605
2.74492
2.7421
2.73622
2.74444
1.01029
1.02128
1.03009
1.03687
1.04165
1.04664
1.05549
1.07414
1.11537
1.21207
1.4468
2.23
2.66541
2.74502
2.73602
2.72965
2.73644
2.73083
2.72751
2.73051
1.01029
1.02128
1.03008
1.03684
1.04161
1.04652
1.05508
1.07309
1.11286
1.20593
1.4307
2.18182
2.64679
2.7381
2.73176
2.72433
2.72991
2.7228
2.70975
2.71659
1.01029
1.02127
1.03007
1.03682
1.04157
1.04639
1.05463
1.07194
1.11012
1.19922
1.41345
2.12536
2.62727
2.72696
2.72311
2.7175
2.72032
2.70854
2.69806
2.69506
1.01029
1.02127
1.03007
1.0368
1.04153
1.04624
1.05413
1.0707
1.10718
1.19206
1.3951
2.06714
2.60178
2.71619
2.71607
2.70951
2.71236
2.69691
2.67664
2.66923
1.01029
1.02126
1.03006
1.03679
1.04149
1.04606
1.05358
1.06936
1.10402
1.18441
1.37526
2.00627
2.57141
2.69795
2.70426
2.70251
2.70089
2.67848
2.66096
2.6348
1.0103
1.02126
1.03006
1.03679
1.04146
1.04586
1.05299
1.06793
1.10067
1.17624
1.35469
1.93295
2.53551
2.68142
2.69132
2.69431
2.69206
2.6624
2.6343
2.58804
1.0103
1.02126
1.03007
1.03679
1.04142
1.04566
1.05239
1.06644
1.09716
1.16786
1.33172
1.88039
2.47483
2.65765
2.67765
2.68633
2.67912
2.64153
2.61243
2.52483
1.00367
1.00928
1.01631
1.02295
1.02873
1.03522
1.04798
1.07454
1.13277
1.26946
1.61812
2.67286
2.77333
2.77326
2.76901
2.75809
2.77701
2.78053
2.81093
2.76248
1.00367
1.00928
1.01631
1.02295
1.02873
1.03521
1.04796
1.0745
1.13268
1.26926
1.61762
2.67213
2.77292
2.77294
2.76845
2.75772
2.77757
2.78028
2.80991
2.76607
1.00367
1.00928
1.01631
1.02295
1.02873
1.03519
1.04792
1.07441
1.13248
1.26881
1.61652
2.67001
2.77225
2.77221
2.76715
2.75681
2.77754
2.77953
2.80827
2.76874
1.00367
1.00928
1.01631
1.02295
1.02872
1.03517
1.04786
1.07428
1.13217
1.26811
1.61473
2.66615
2.77122
2.77121
2.76531
2.75563
2.77659
2.77781
2.80565
2.76941
1.00367
1.00928
1.01631
1.02294
1.0287
1.03514
1.04778
1.07409
1.13174
1.2671
1.61212
2.66058
2.76956
2.76991
2.76301
2.75426
2.77499
2.77519
2.80114
2.76921
1.00366
1.00928
1.0163
1.02294
1.02869
1.0351
1.04767
1.07384
1.13117
1.26577
1.60857
2.65315
2.76724
2.76818
2.7609
2.75196
2.7718
2.77229
2.7976
2.76821
1.00366
1.00928
1.0163
1.02293
1.02867
1.03505
1.04754
1.07353
1.13045
1.26407
1.60398
2.64368
2.76425
2.7661
2.75802
2.75034
2.76911
2.76802
2.79042
2.76649
1.00366
1.00928
1.01629
1.02292
1.02865
1.035
1.04738
1.07315
1.12956
1.26198
1.59827
2.63196
2.76056
2.76373
2.75488
2.74694
2.76426
2.76383
2.78584
2.76274
1.00366
1.00928
1.01629
1.02291
1.02863
1.03493
1.0472
1.0727
1.1285
1.25945
1.59131
2.6177
2.75611
2.76089
2.75201
2.74481
2.76031
2.75779
2.77644
2.75945
1.00366
1.00928
1.01628
1.0229
1.0286
1.03486
1.04698
1.07217
1.12724
1.25643
1.58303
2.6
2.75113
2.75792
2.74781
2.74065
2.75447
2.7521
2.77076
2.75201
1.00366
1.00928
1.01628
1.02289
1.02857
1.03478
1.04673
1.07155
1.12577
1.25288
1.57334
2.57823
2.74533
2.75496
2.74526
2.73711
2.74919
2.74498
2.75882
2.74628
1.00366
1.00928
1.01627
1.02287
1.02855
1.0347
1.04645
1.07083
1.12405
1.24873
1.56206
2.5526
2.73808
2.75128
2.74028
2.73261
2.74161
2.73655
2.75166
2.73412
1.00366
1.00927
1.01627
1.02286
1.02852
1.03461
1.04613
1.07001
1.12208
1.24395
1.54905
2.52287
2.7294
2.74841
2.7377
2.72766
2.73554
2.72816
2.73648
2.72442
1.00366
1.00927
1.01626
1.02284
1.02849
1.03451
1.04577
1.06907
1.11983
1.23848
1.5342
2.48805
2.72003
2.74368
2.73234
2.72249
2.72641
2.7173
2.72751
2.70758
1.00367
1.00927
1.01626
1.02282
1.02846
1.0344
1.04536
1.06802
1.11729
1.2323
1.51751
2.44691
2.70896
2.73989
2.72923
2.71604
2.7192
2.70651
2.70864
2.69157
1.00367
1.00926
1.01625
1.02281
1.02843
1.03428
1.04491
1.06685
1.11446
1.22539
1.49887
2.40012
2.69619
2.73368
2.72306
2.71083
2.70904
2.69328
2.69771
2.66786
1.00367
1.00926
1.01625
1.02279
1.02841
1.03415
1.04441
1.06555
1.11133
1.21775
1.47849
2.34464
2.68129
2.72891
2.71861
2.70356
2.70093
2.67852
2.67529
2.64287
1.00367
1.00926
1.01625
1.02278
1.02838
1.034
1.04385
1.06411
1.1079
1.20934
1.456
2.2824
2.66147
2.72088
2.71227
2.69827
2.68961
2.66169
2.66117
2.60675
1.00367
1.00925
1.01624
1.02277
1.02836
1.03384
1.04325
1.06256
1.10415
1.20014
1.43155
2.21019
2.6386
2.71389
2.70689
2.69097
2.68106
2.64282
2.63265
2.56387
1.00366
1.00926
1.01624
1.02276
1.02835
1.03369
1.04263
1.0609
1.10015
1.19026
1.4058
2.124
2.61124
2.7
2.7006
2.68652
2.66889
2.62405
2.61225
2.49969
1.00079
1.00307
1.00638
1.01118
1.01625
1.02318
1.0371
1.06648
1.1317
1.28582
1.69193
2.80145
2.78398
2.75354
2.76054
2.75351
2.77086
2.77853
2.81038
2.75826
1.00079
1.00307
1.00638
1.01118
1.01625
1.02318
1.03708
1.06644
1.13163
1.28566
1.69152
2.80094
2.78356
2.75274
2.75951
2.75273
2.77013
2.77907
2.80925
2.75933
1.00079
1.00307
1.00638
1.01118
1.01625
1.02316
1.03705
1.06637
1.13146
1.2853
1.69061
2.79955
2.78318
2.7509
2.75737
2.75114
2.76852
2.77877
2.80732
2.76182
1.00079
1.00307
1.00638
1.01118
1.01624
1.02314
1.037
1.06626
1.13121
1.28472
1.68906
2.7972
2.78246
2.7485
2.75448
2.74867
2.76516
2.77755
2.80485
2.76089
1.00079
1.00307
1.00638
1.01118
1.01623
1.02312
1.03694
1.0661
1.13084
1.28387
1.68672
2.79389
2.78111
2.74589
2.75142
2.74584
2.76139
2.77457
2.79939
2.75909
1.00079
1.00307
1.00638
1.01117
1.01623
1.02308
1.03685
1.06589
1.13035
1.28275
1.6835
2.78947
2.77919
2.74298
2.74812
2.74246
2.75592
2.77182
2.7958
2.755
1.0008
1.00306
1.00638
1.01116
1.01622
1.02304
1.03674
1.06563
1.12973
1.28129
1.67929
2.78382
2.7767
2.73949
2.7447
2.73919
2.75117
2.76605
2.78786
2.75167
1.0008
1.00306
1.00638
1.01115
1.01621
1.02299
1.0366
1.0653
1.12895
1.27947
1.67395
2.77681
2.77368
2.73539
2.7404
2.73507
2.74528
2.76214
2.78297
2.74444
1.0008
1.00305
1.00638
1.01114
1.01619
1.02293
1.03643
1.0649
1.128
1.27724
1.66735
2.76846
2.76919
2.73143
2.73656
2.73119
2.73931
2.75399
2.77251
2.73947
1.00081
1.00305
1.00638
1.01113
1.01618
1.02286
1.03624
1.06442
1.12687
1.27453
1.65954
2.75589
2.76506
2.72645
2.73096
2.7264
2.73308
2.74876
2.76647
2.72944
1.00081
1.00304
1.00639
1.01112
1.01616
1.02278
1.03601
1.06385
1.12552
1.2713
1.65034
2.74025
2.76028
2.72176
2.72636
2.72181
2.72663
2.73818
2.75372
2.72143
1.00082
1.00303
1.00639
1.0111
1.01614
1.02269
1.03574
1.0632
1.12395
1.26751
1.63959
2.72159
2.75546
2.71659
2.72007
2.71611
2.71949
2.73112
2.7465
2.70882
1.00082
1.00303
1.00638
1.01109
1.01611
1.02259
1.03544
1.06244
1.12212
1.2631
1.62723
2.69838
2.75041
2.71335
2.71467
2.71043
2.7122
2.71786
2.73143
2.69749
1.00082
1.00302
1.00638
1.01108
1.01608
1.02248
1.03509
1.06156
1.12002
1.258
1.61307
2.67085
2.74516
2.71047
2.70861
2.70497
2.70507
2.70815
2.72261
2.68113
1.00081
1.00302
1.00637
1.01107
1.01604
1.02236
1.03469
1.06056
1.11761
1.25216
1.59685
2.63935
2.73764
2.71116
2.70107
2.69688
2.69633
2.69255
2.70441
2.66551
1.00081
1.00302
1.00637
1.01106
1.016
1.02222
1.03424
1.05942
1.11487
1.2455
1.57829
2.60384
2.72823
2.71187
2.69588
2.69144
2.68824
2.67992
2.69317
2.64353
1.00081
1.00301
1.00636
1.01104
1.01596
1.02206
1.03373
1.05814
1.11177
1.23793
1.5574
2.5591
2.71743
2.71206
2.69025
2.6841
2.67937
2.66049
2.67044
2.62035
1.00081
1.00301
1.00635
1.01103
1.01592
1.02189
1.03316
1.05669
1.10827
1.22938
1.5336
2.50962
2.70217
2.71049
2.6869
2.67793
2.66995
2.64633
2.65383
2.58697
1.0008
1.00301
1.00634
1.01101
1.01587
1.0217
1.03254
1.05508
1.10437
1.21977
1.50724
2.4459
2.6855
2.70727
2.68535
2.67132
2.66001
2.62391
2.62386
2.54624
1.0008
1.00301
1.00633
1.01099
1.01584
1.02152
1.03186
1.05332
1.10007
1.20918
1.47766
2.3743
2.66325
2.70055
2.684
2.66695
2.64938
2.60793
2.59902
2.48513
1.00018
1.00068
1.00187
1.00436
1.0082
1.01499
1.02922
1.06011
1.13015
1.29741
1.75343
2.86615
2.76601
2.78772
2.76254
2.7476
2.76506
2.77167
2.79676
2.74679
1.00018
1.00068
1.00187
1.00436
1.0082
1.01499
1.0292
1.06008
1.13008
1.29727
1.7531
2.86555
2.76563
2.7878
2.76115
2.74614
2.76306
2.77151
2.79549
2.75023
1.00018
1.00068
1.00187
1.00436
1.00819
1.01498
1.02918
1.06003
1.12995
1.29698
1.75233
2.86431
2.76486
2.7875
2.7588
2.74504
2.76178
2.77028
2.7926
2.75476
1.00018
1.00068
1.00187
1.00435
1.00819
1.01496
1.02914
1.05994
1.12974
1.29651
1.75098
2.86232
2.7639
2.78667
2.75616
2.74281
2.75878
2.76756
2.78799
2.75451
1.00018
1.00068
1.00187
1.00435
1.00818
1.01494
1.02908
1.05981
1.12944
1.29582
1.74893
2.85945
2.76289
2.78532
2.7527
2.74068
2.75688
2.76252
2.78216
2.75285
1.00018
1.00068
1.00187
1.00435
1.00817
1.01491
1.02901
1.05963
1.12903
1.29487
1.74606
2.85566
2.76174
2.7836
2.74926
2.73758
2.75307
2.75856
2.77438
2.74854
1.00018
1.00068
1.00187
1.00434
1.00816
1.01487
1.02891
1.0594
1.12849
1.29363
1.74227
2.85068
2.76122
2.78017
2.74599
2.73523
2.74943
2.75126
2.76697
2.74499
1.00018
1.00068
1.00187
1.00434
1.00814
1.01482
1.02879
1.05912
1.12781
1.29205
1.73744
2.84449
2.76087
2.7759
2.74222
2.73123
2.7445
2.74565
2.75754
2.73722
1.00018
1.00068
1.00186
1.00433
1.00812
1.01476
1.02864
1.05876
1.12698
1.29009
1.73144
2.83702
2.76047
2.77026
2.73943
2.72865
2.73947
2.73724
2.7486
2.73201
1.00018
1.00068
1.00186
1.00432
1.00809
1.01469
1.02846
1.05834
1.12597
1.28771
1.72418
2.82819
2.76006
2.76387
2.73539
2.7242
2.73364
2.73009
2.73896
2.72129
1.00018
1.00068
1.00185
1.00431
1.00806
1.01461
1.02825
1.05783
1.12476
1.28486
1.71553
2.81801
2.7594
2.75517
2.7325
2.71976
2.72668
2.72025
2.72825
2.71394
1.00018
1.00067
1.00185
1.00429
1.00803
1.01451
1.028
1.05724
1.12334
1.28149
1.7054
2.80594
2.75924
2.74662
2.72721
2.71574
2.72071
2.71214
2.71831
2.70108
1.00018
1.00067
1.00184
1.00428
1.00799
1.01439
1.02771
1.05654
1.12168
1.27754
1.69366
2.79205
2.75874
2.73775
2.72185
2.70982
2.71205
2.70124
2.70594
2.69143
1.00018
1.00067
1.00184
1.00426
1.00794
1.01426
1.02737
1.05572
1.11975
1.27293
1.68011
2.77598
2.75778
2.72193
2.71449
2.70463
2.70551
2.69148
2.69418
2.67553
1.00018
1.00066
1.00183
1.00423
1.00789
1.0141
1.02697
1.05478
1.11751
1.26759
1.66447
2.75778
2.75312
2.71406
2.71134
2.69796
2.69576
2.67881
2.67932
2.66195
1.00018
1.00066
1.00182
1.00421
1.00783
1.01392
1.02652
1.05369
1.11492
1.26139
1.64645
2.73541
2.74387
2.6989
2.70594
2.69477
2.68904
2.66681
2.66423
2.64079
1.00017
1.00065
1.00181
1.00418
1.00775
1.01371
1.02599
1.05244
1.11193
1.25418
1.62598
2.70354
2.73465
2.69227
2.69839
2.68827
2.67944
2.65215
2.64451
2.6191
1.00017
1.00065
1.0018
1.00414
1.00767
1.01348
1.0254
1.05101
1.10849
1.24586
1.60227
2.66687
2.72221
2.6831
2.69366
2.68445
2.67151
2.63866
2.62455
2.58576
1.00017
1.00064
1.00178
1.0041
1.00758
1.01321
1.02472
1.04937
1.10457
1.23626
1.57524
2.61774
2.70818
2.68345
2.68399
2.67769
2.66116
2.62111
2.59769
2.54488
1.00017
1.00064
1.00176
1.00407
1.00749
1.01297
1.02399
1.04755
1.10017
1.22543
1.54398
2.55887
2.68968
2.68556
2.6812
2.67234
2.65322
2.60554
2.56939
2.48224
1.00006
1.00021
1.00068
1.00193
1.00478
1.01111
1.02516
1.05673
1.12974
1.30646
1.79162
2.8997
2.75302
2.7906
2.77296
2.74985
2.76363
2.76019
2.76034
2.76023
1.00006
1.00021
1.00068
1.00193
1.00478
1.01111
1.02515
1.05671
1.12969
1.30634
1.79141
2.8991
2.75295
2.79094
2.77138
2.74822
2.76145
2.75822
2.75743
2.75866
1.00006
1.00021
1.00068
1.00193
1.00478
1.0111
1.02513
1.05666
1.12958
1.30609
1.79085
2.89796
2.75269
2.79089
2.7682
2.74663
2.76006
2.7574
2.75485
2.75515
1.00006
1.00021
1.00068
1.00193
1.00477
1.01108
1.02509
1.05658
1.1294
1.30568
1.78984
2.89623
2.7523
2.79059
2.76483
2.74371
2.75684
2.75445
2.75213
2.75326
1.00006
1.00021
1.00068
1.00192
1.00476
1.01106
1.02504
1.05647
1.12914
1.30507
1.78832
2.8938
2.75196
2.78992
2.76045
2.74085
2.75379
2.75183
2.74873
2.74891
1.00006
1.00021
1.00068
1.00192
1.00475
1.01103
1.02498
1.05631
1.12879
1.30423
1.78619
2.89064
2.75163
2.78882
2.7563
2.73685
2.74931
2.74638
2.74473
2.74603
1.00006
1.00021
1.00067
1.00191
1.00473
1.01099
1.02489
1.05611
1.12832
1.30311
1.78339
2.88667
2.75123
2.78725
2.75146
2.73379
2.74521
2.74269
2.74096
2.74024
1.00006
1.00021
1.00067
1.0019
1.00471
1.01094
1.02478
1.05586
1.12774
1.30167
1.77986
2.88183
2.75067
2.78517
2.74623
2.72872
2.74018
2.73603
2.73522
2.73538
1.00005
1.0002
1.00066
1.00189
1.00469
1.01088
1.02464
1.05555
1.12701
1.29988
1.77552
2.87602
2.74996
2.7825
2.74183
2.72526
2.73453
2.73135
2.73075
2.72935
1.00005
1.0002
1.00066
1.00188
1.00465
1.01081
1.02448
1.05517
1.12612
1.29768
1.7703
2.86921
2.7491
2.77837
2.73518
2.71973
2.72864
2.72317
2.72352
2.72231
1.00005
1.0002
1.00065
1.00187
1.00462
1.01072
1.02428
1.05471
1.12505
1.29506
1.7637
2.86118
2.74897
2.77255
2.73235
2.7153
2.72165
2.71771
2.71739
2.7141
1.00005
1.0002
1.00064
1.00185
1.00457
1.01062
1.02404
1.05416
1.12378
1.29206
1.75435
2.85145
2.74925
2.76356
2.72662
2.71031
2.71518
2.7078
2.70847
2.70472
1.00005
1.00019
1.00064
1.00183
1.00452
1.0105
1.02376
1.05352
1.12227
1.28852
1.74343
2.84017
2.74859
2.75526
2.72412
2.7057
2.70746
2.70168
2.70005
2.69468
1.00005
1.00019
1.00062
1.0018
1.00446
1.01035
1.02343
1.05277
1.12051
1.28436
1.73081
2.82697
2.74795
2.74327
2.71822
2.70038
2.6998
2.68973
2.68897
2.6814
1.00005
1.00018
1.00061
1.00177
1.00439
1.01019
1.02305
1.05189
1.11844
1.27948
1.71618
2.81186
2.74637
2.73522
2.71314
2.69614
2.69226
2.68249
2.67681
2.66797
1.00005
1.00018
1.0006
1.00174
1.0043
1.00999
1.0226
1.05086
1.11603
1.27374
1.69925
2.79401
2.74438
2.7245
2.70501
2.69095
2.68429
2.66799
2.66131
2.64836
1.00004
1.00017
1.00058
1.0017
1.0042
1.00976
1.02207
1.04966
1.11321
1.26703
1.67952
2.77325
2.74093
2.71231
2.69841
2.68655
2.67663
2.65913
2.64418
2.62675
1.00004
1.00016
1.00056
1.00165
1.00409
1.00949
1.02146
1.04827
1.10992
1.25915
1.65645
2.74891
2.7336
2.70371
2.69446
2.68131
2.6678
2.6404
2.62323
2.59456
1.00004
1.00016
1.00054
1.00159
1.00396
1.00919
1.02076
1.04665
1.10609
1.24991
1.62941
2.71736
2.72245
2.68807
2.69198
2.67719
2.65941
2.62949
2.59838
2.55298
1.00004
1.00014
1.00051
1.00153
1.00382
1.00886
1.01997
1.04478
1.10164
1.2391
1.5974
2.67332
2.70407
2.68717
2.68878
2.67405
2.64873
2.60648
2.56902
2.49048
1.00006
1.00019
1.00055
1.0015
1.00396
1.00987
1.02364
1.05543
1.12998
1.3121
1.80825
2.91312
2.74458
2.79103
2.77854
2.75319
2.75805
2.75788
2.75946
2.75269
1.00006
1.00019
1.00055
1.0015
1.00395
1.00986
1.02363
1.05541
1.12993
1.312
1.80805
2.91247
2.74461
2.79156
2.77671
2.7507
2.75599
2.75491
2.75654
2.75092
1.00006
1.00019
1.00055
1.0015
1.00395
1.00986
1.02361
1.05537
1.12983
1.31178
1.80752
2.91135
2.74454
2.7918
2.77354
2.74808
2.75414
2.75326
2.75553
2.74878
1.00006
1.00019
1.00054
1.0015