/*--------------------------------*- C++ -*----------------------------------*\
  =========                 |
  \\      /  F ield         | OpenFOAM: The Open Source CFD Toolbox
   \\    /   O peration     | Website:  https://openfoam.org
    \\  /    A nd           | Version:  6.0
     \\/     M anipulation  |
\*---------------------------------------------------------------------------*/
FoamFile
{
    version     2.0;
    format      ascii;
    class       volVectorField;
    location    "3.5";
    object      U;
}
// * * * * * * * * * * * * * * * * * * * * * * * * * * * * * * * * * * * * * //

dimensions      [0 1 -1 0 0 0 0];

internalField   nonuniform List<vector> 
24000
(
(3.08434 3.09804e-08 -0.13955)
(3.11009 6.10723e-07 -0.149999)
(3.12395 2.99958e-07 -0.152931)
(3.13415 3.07054e-06 -0.152603)
(3.14053 2.87317e-06 -0.152763)
(3.1425 1.76627e-05 -0.15351)
(3.14187 3.38134e-05 -0.153932)
(3.13928 5.43504e-05 -0.155312)
(3.1313 8.61445e-05 -0.15902)
(3.1095 0.000143223 -0.168085)
(3.05177 0.000248308 -0.189837)
(2.88828 0.000405536 -0.243102)
(2.39353 0.000319002 -0.388598)
(1.67626 0.00163294 -0.482457)
(1.60219 0.00114476 -0.472534)
(1.58121 0.000765715 -0.473452)
(1.53181 0.000462834 -0.477889)
(1.40612 0.000175785 -0.489139)
(1.07239 -0.000469654 -0.543296)
(0.838463 -0.000927706 -0.47974)
(3.08434 1.02352e-07 -0.139549)
(3.11009 1.90734e-06 -0.149999)
(3.12395 9.6985e-07 -0.152931)
(3.13415 9.60116e-06 -0.152602)
(3.14054 8.98899e-06 -0.15276)
(3.14251 5.52729e-05 -0.153507)
(3.14188 0.000105961 -0.153927)
(3.1393 0.000170978 -0.155304)
(3.13133 0.000273378 -0.159003)
(3.10956 0.000462004 -0.168048)
(3.05185 0.000825825 -0.189757)
(2.88819 0.00144809 -0.242947)
(2.39188 0.00193996 -0.388833)
(1.67235 0.00674769 -0.48262)
(1.59768 0.00527077 -0.473031)
(1.57664 0.0041424 -0.474114)
(1.52707 0.00331798 -0.478769)
(1.4007 0.00258034 -0.490205)
(1.06437 0.000879674 -0.544581)
(0.829361 -0.000620112 -0.482551)
(3.08434 1.68161e-07 -0.139549)
(3.11009 3.30623e-06 -0.149999)
(3.12395 1.73454e-06 -0.152929)
(3.13416 1.67344e-05 -0.152601)
(3.14055 1.56792e-05 -0.152756)
(3.14254 9.6311e-05 -0.153501)
(3.14191 0.000185192 -0.153919)
(3.13934 0.000300141 -0.155288)
(3.1314 0.000484085 -0.15897)
(3.10968 0.000831518 -0.167974)
(3.05206 0.00153119 -0.18959)
(2.88832 0.00286363 -0.242602)
(2.39017 0.00500944 -0.38856)
(1.66885 0.0147885 -0.48254)
(1.59237 0.0124185 -0.473163)
(1.57167 0.0104331 -0.474466)
(1.52228 0.00895878 -0.479308)
(1.39547 0.0077309 -0.490906)
(1.05686 0.00541708 -0.54543)
(0.82176 0.00254181 -0.484776)
(3.08434 1.51447e-07 -0.139548)
(3.11009 4.67085e-06 -0.15)
(3.12395 2.40766e-06 -0.152927)
(3.13416 2.42506e-05 -0.1526)
(3.14056 2.28217e-05 -0.152749)
(3.14257 0.000139503 -0.153493)
(3.14195 0.00026883 -0.153906)
(3.1394 0.000437262 -0.155265)
(3.1315 0.000709673 -0.15892)
(3.10989 0.00123248 -0.167862)
(3.05247 0.00231412 -0.189332)
(2.88883 0.004507 -0.242041)
(2.38932 0.00880592 -0.387805)
(1.66561 0.024611 -0.482303)
(1.58704 0.0216514 -0.473021)
(1.56655 0.0188969 -0.474533)
(1.51718 0.0166879 -0.47958)
(1.38971 0.0148488 -0.491388)
(1.04839 0.0122705 -0.545725)
(0.812591 0.00771079 -0.48655)
(3.08434 -1.55231e-07 -0.139547)
(3.11009 5.93863e-06 -0.150001)
(3.12395 2.65073e-06 -0.152924)
(3.13416 3.19853e-05 -0.152599)
(3.14058 3.04891e-05 -0.152738)
(3.14262 0.000184279 -0.153484)
(3.14201 0.000355309 -0.153889)
(3.13948 0.00057937 -0.155234)
(3.13165 0.000944586 -0.158853)
(3.11019 0.00165288 -0.16771)
(3.05308 0.00314396 -0.188979)
(2.8898 0.00628675 -0.241252)
(2.38948 0.0130678 -0.386604)
(1.66241 0.0359944 -0.482034)
(1.58126 0.0327989 -0.47273)
(1.56106 0.0295539 -0.474399)
(1.51184 0.0267384 -0.479575)
(1.38386 0.0242731 -0.491623)
(1.03975 0.0216342 -0.545513)
(0.802179 0.0152749 -0.487888)
(3.08434 -1.34006e-06 -0.139545)
(3.11009 7.3743e-06 -0.150003)
(3.12396 2.53021e-06 -0.152919)
(3.13417 3.99044e-05 -0.1526)
(3.14061 3.84308e-05 -0.152723)
(3.14268 0.000229472 -0.153473)
(3.14208 0.000442502 -0.153867)
(3.13958 0.000722612 -0.155195)
(3.13185 0.00118153 -0.158768)
(3.1106 0.00207819 -0.167517)
(3.05391 0.00399009 -0.188527)
(2.8913 0.00813628 -0.240229)
(2.39095 0.0176798 -0.384899)
(1.65962 0.0489895 -0.481676)
(1.57512 0.0457315 -0.472295)
(1.55514 0.0422048 -0.474101)
(1.50609 0.0389401 -0.479345)
(1.37787 0.0358794 -0.491625)
(1.03163 0.0332482 -0.544789)
(0.790922 0.0252981 -0.488932)
(3.08434 -3.71406e-06 -0.139542)
(3.11009 8.91743e-06 -0.150008)
(3.12396 2.60237e-06 -0.15291)
(3.13417 4.80751e-05 -0.152603)
(3.14065 4.64722e-05 -0.152705)
(3.14275 0.000273696 -0.15346)
(3.14216 0.000527684 -0.153841)
(3.13971 0.000862536 -0.155148)
(3.13209 0.00141278 -0.158666)
(3.11109 0.00249314 -0.167285)
(3.05498 0.00482083 -0.187981)
(2.89339 0.00999968 -0.238973)
(2.39392 0.0225962 -0.382642)
(1.65772 0.0641066 -0.481142)
(1.56884 0.0605703 -0.471702)
(1.549 0.0567127 -0.473666)
(1.50005 0.0531255 -0.47893)
(1.37173 0.0496136 -0.491371)
(1.02399 0.0471643 -0.543537)
(0.779286 0.038101 -0.489588)
(3.08435 -5.92971e-06 -0.139535)
(3.11009 1e-05 -0.150018)
(3.12397 2.53687e-06 -0.1529)
(3.13418 5.59266e-05 -0.152606)
(3.14068 5.39048e-05 -0.152683)
(3.14283 0.00031626 -0.153445)
(3.14227 0.000609719 -0.153811)
(3.13987 0.000997055 -0.155094)
(3.13237 0.00163419 -0.158549)
(3.11169 0.00288865 -0.167019)
(3.05628 0.00561631 -0.187357)
(2.89616 0.011854 -0.23752)
(2.39879 0.0280089 -0.379984)
(1.6579 0.0820598 -0.480053)
(1.56278 0.0781217 -0.470831)
(1.54242 0.0735413 -0.473067)
(1.49356 0.0692078 -0.478418)
(1.36525 0.0651703 -0.491005)
(1.01671 0.0631482 -0.541712)
(0.767348 0.0539452 -0.490056)
(3.08435 -7.28128e-06 -0.139528)
(3.11009 1.08088e-05 -0.150027)
(3.12398 1.88091e-06 -0.152889)
(3.13419 6.33557e-05 -0.152611)
(3.14073 5.97566e-05 -0.152659)
(3.14293 0.000358469 -0.15343)
(3.14238 0.000691915 -0.153778)
(3.14004 0.00113171 -0.155034)
(3.13269 0.00185568 -0.15842)
(3.11237 0.00328594 -0.166727)
(3.05782 0.00642472 -0.186681)
(2.89975 0.0137839 -0.235954)
(2.40685 0.0339885 -0.377182)
(1.66203 0.101867 -0.478089)
(1.55892 0.0984442 -0.469317)
(1.53601 0.09341 -0.472072)
(1.48676 0.0878313 -0.477715)
(1.35849 0.0828132 -0.490401)
(1.00943 0.0812945 -0.539424)
(0.755051 0.0731868 -0.490197)
(3.08435 -8.34528e-06 -0.139519)
(3.1101 1.15863e-05 -0.150038)
(3.12399 6.53818e-07 -0.152876)
(3.1342 7.05919e-05 -0.152615)
(3.14078 6.37548e-05 -0.152632)
(3.14304 0.000402323 -0.153412)
(3.14252 0.000779246 -0.153741)
(3.14024 0.00127511 -0.154967)
(3.13306 0.00209105 -0.158275)
(3.11316 0.00370848 -0.166397)
(3.05963 0.00728587 -0.185913)
(2.90425 0.0158131 -0.234143)
(2.41873 0.0399934 -0.373446)
(1.66957 0.122117 -0.47597)
(1.55818 0.120062 -0.467167)
(1.53207 0.115161 -0.470603)
(1.48171 0.109011 -0.476547)
(1.35343 0.103294 -0.489238)
(1.00448 0.102394 -0.536325)
(0.743908 0.0960212 -0.489943)
(3.08435 -9.36768e-06 -0.13951)
(3.1101 1.21888e-05 -0.15005)
(3.124 -1.13488e-06 -0.152861)
(3.13421 7.73379e-05 -0.15262)
(3.14084 6.61531e-05 -0.152603)
(3.14316 0.000446694 -0.153392)
(3.14267 0.000869849 -0.153699)
(3.14046 0.00142568 -0.154892)
(3.13347 0.00234003 -0.15811)
(3.11405 0.00415698 -0.166021)
(3.06169 0.00819707 -0.185039)
(2.90954 0.0179278 -0.232054)
(2.43295 0.045998 -0.369047)
(1.67992 0.142716 -0.473501)
(1.55972 0.141836 -0.464829)
(1.53162 0.13737 -0.468372)
(1.47976 0.131671 -0.474903)
(1.35132 0.126358 -0.487541)
(1.00342 0.126904 -0.532614)
(0.735913 0.123783 -0.489186)
(3.08435 -1.06206e-05 -0.139501)
(3.1101 1.26191e-05 -0.150063)
(3.12401 -3.38419e-06 -0.152845)
(3.13423 8.32909e-05 -0.152626)
(3.1409 6.70674e-05 -0.15257)
(3.1433 0.000489706 -0.153369)
(3.14283 0.000959786 -0.153652)
(3.14071 0.00157798 -0.154807)
(3.13394 0.00259716 -0.157925)
(3.11505 0.00462874 -0.165597)
(3.06404 0.00916517 -0.184048)
(2.91567 0.0201752 -0.229668)
(2.44962 0.0523607 -0.363978)
(1.69259 0.164137 -0.470605)
(1.56228 0.163714 -0.462631)
(1.53319 0.159825 -0.465823)
(1.48035 0.15514 -0.472681)
(1.3523 0.1514 -0.485008)
(1.00676 0.154835 -0.528009)
(0.732598 0.15902 -0.488056)
(3.08435 -1.21196e-05 -0.13949)
(3.1101 1.25348e-05 -0.150078)
(3.12402 -6.36572e-06 -0.152828)
(3.13424 8.78019e-05 -0.152633)
(3.14097 6.5691e-05 -0.152534)
(3.14346 0.000530478 -0.153345)
(3.14302 0.00104788 -0.153601)
(3.14099 0.00173041 -0.154713)
(3.13445 0.00286064 -0.157718)
(3.11617 0.00512273 -0.165122)
(3.06669 0.010195 -0.182938)
(2.92266 0.0225934 -0.226971)
(2.46886 0.0593272 -0.35825)
(1.70762 0.187055 -0.467394)
(1.56583 0.186209 -0.460289)
(1.53622 0.182507 -0.463172)
(1.48301 0.179266 -0.470174)
(1.356 0.178378 -0.482115)
(1.0144 0.18677 -0.523217)
(0.735763 0.201441 -0.484906)
(3.08435 -1.40097e-05 -0.139478)
(3.11011 1.13312e-05 -0.150095)
(3.12404 -1.05064e-05 -0.152809)
(3.13425 8.98338e-05 -0.152641)
(3.14104 6.11793e-05 -0.152494)
(3.14363 0.00056627 -0.153319)
(3.14322 0.00113129 -0.153545)
(3.1413 0.00188239 -0.15461)
(3.13503 0.00313426 -0.157489)
(3.11741 0.00564888 -0.164596)
(3.06966 0.0113087 -0.18171)
(2.93064 0.0252695 -0.223963)
(2.49089 0.0673422 -0.351735)
(1.72539 0.212333 -0.46388)
(1.57059 0.20978 -0.457609)
(1.54071 0.205622 -0.460413)
(1.48785 0.203962 -0.467283)
(1.3626 0.207165 -0.478692)
(1.02603 0.223235 -0.517894)
(0.743971 0.250156 -0.481532)
(3.08435 -1.69269e-05 -0.139465)
(3.11011 8.61315e-06 -0.150113)
(3.12405 -1.59488e-05 -0.152788)
(3.13426 8.83091e-05 -0.152651)
(3.14112 5.47111e-05 -0.152452)
(3.14381 0.000571426 -0.153291)
(3.14345 0.00122718 -0.153483)
(3.14164 0.00207096 -0.154497)
(3.13566 0.0034572 -0.15724)
(3.11881 0.0062411 -0.164025)
(3.07301 0.0125485 -0.180385)
(2.9398 0.0283161 -0.220678)
(2.51665 0.0766834 -0.344259)
(1.74707 0.240386 -0.459777)
(1.57738 0.234684 -0.454507)
(1.54711 0.229792 -0.457348)
(1.49524 0.229757 -0.464036)
(1.3726 0.238021 -0.474693)
(1.04176 0.264421 -0.511875)
(0.756326 0.306016 -0.476829)
(3.08435 -2.39026e-05 -0.139451)
(3.11011 6.13305e-06 -0.150134)
(3.12406 -2.14387e-05 -0.152765)
(3.13428 8.63317e-05 -0.152666)
(3.1412 4.54243e-05 -0.152408)
(3.14401 0.0005095 -0.153256)
(3.14371 0.00135315 -0.153422)
(3.14202 0.00235713 -0.154376)
(3.13637 0.00391068 -0.156969)
(3.12035 0.00697347 -0.163408)
(3.07679 0.0139711 -0.178964)
(2.95043 0.0318157 -0.217089)
(2.54681 0.0878968 -0.335928)
(1.77379 0.270622 -0.454716)
(1.58755 0.261217 -0.450667)
(1.55668 0.255919 -0.45363)
(1.50616 0.25787 -0.460256)
(1.38698 0.272111 -0.470148)
(1.06264 0.311178 -0.505172)
(0.772805 0.371159 -0.471093)
(3.08435 -3.244e-05 -0.139428)
(3.11012 5.59285e-06 -0.150171)
(3.12408 -2.51198e-05 -0.152732)
(3.13429 8.81108e-05 -0.152696)
(3.14126 2.42968e-05 -0.152366)
(3.14424 0.000446005 -0.153196)
(3.14405 0.0014711 -0.153355)
(3.14246 0.00264563 -0.154243)
(3.13716 0.00438211 -0.156678)
(3.12208 0.00772772 -0.162756)
(3.08112 0.0153879 -0.177461)
(2.96309 0.0352097 -0.213206)
(2.5862 0.0985661 -0.326194)
(1.80654 0.300793 -0.448542)
(1.60253 0.289519 -0.44581)
(1.57096 0.284909 -0.448928)
(1.52194 0.289654 -0.455447)
(1.40704 0.310953 -0.464503)
(1.09049 0.365238 -0.497249)
(0.794675 0.448784 -0.463809)
(3.08435 -3.10728e-05 -0.139398)
(3.11012 4.6461e-06 -0.150219)
(3.1241 -2.65534e-05 -0.152693)
(3.1343 8.7326e-05 -0.152737)
(3.14132 -1.06797e-05 -0.152325)
(3.14449 0.000439956 -0.15312)
(3.14444 0.00154979 -0.153276)
(3.14296 0.0028285 -0.1541)
(3.13802 0.00471565 -0.156376)
(3.12395 0.00832755 -0.162082)
(3.08586 0.0165738 -0.175901)
(2.97725 0.0379363 -0.209131)
(2.63153 0.106306 -0.315113)
(1.8479 0.326295 -0.441593)
(1.62448 0.319413 -0.439673)
(1.59092 0.318285 -0.443307)
(1.54351 0.327231 -0.449952)
(1.43398 0.356966 -0.457966)
(1.12763 0.429739 -0.488313)
(0.8238 0.544538 -0.454036)
(3.08435 -5.05819e-06 -0.139373)
(3.11013 -2.47085e-06 -0.150251)
(3.12411 -2.81607e-05 -0.152673)
(3.13431 7.25414e-05 -0.152757)
(3.14139 -4.80811e-05 -0.152312)
(3.14476 0.000447394 -0.153005)
(3.14484 0.00159857 -0.15321)
(3.14349 0.00293607 -0.153956)
(3.13894 0.00492813 -0.156066)
(3.12595 0.00875371 -0.16139)
(3.09091 0.0174804 -0.174305)
(2.99226 0.0400535 -0.204851)
(2.67793 0.113357 -0.304527)
(1.89843 0.33845 -0.434065)
(1.65371 0.352056 -0.432222)
(1.6163 0.35781 -0.435764)
(1.56789 0.37302 -0.442884)
(1.46693 0.412148 -0.449532)
(1.17678 0.508376 -0.476476)
(0.862752 0.669568 -0.441532)
(3.08435 2.22651e-05 -0.139395)
(3.11012 -5.41128e-06 -0.150217)
(3.12412 -2.34995e-05 -0.152694)
(3.1343 5.58103e-05 -0.152733)
(3.14145 -6.42478e-05 -0.152323)
(3.14504 0.00043668 -0.152854)
(3.14525 0.00164544 -0.153148)
(3.14404 0.00304864 -0.153809)
(3.1399 0.00514377 -0.155748)
(3.12805 0.00916957 -0.160691)
(3.09621 0.0183011 -0.172647)
(3.0085 0.041556 -0.201148)
(2.73119 0.114721 -0.283665)
(1.96307 0.335707 -0.426442)
(1.67542 0.398642 -0.427763)
(1.63149 0.416903 -0.430255)
(1.58229 0.441105 -0.436575)
(1.49297 0.490543 -0.440891)
(1.22847 0.613796 -0.462243)
(0.912783 0.846082 -0.420803)
(3.007 3.44957e-07 -0.0225496)
(3.01725 8.48733e-07 -0.0336448)
(3.027 1.78155e-06 -0.0380691)
(3.03669 5.72906e-06 -0.0412337)
(3.0423 9.16362e-06 -0.0433032)
(3.04361 2.67967e-05 -0.0445148)
(3.0428 4.8316e-05 -0.045046)
(3.03802 8.24546e-05 -0.0463459)
(3.02302 0.000148513 -0.049192)
(2.98284 0.00029073 -0.0553349)
(2.87618 0.000619758 -0.0689995)
(2.58508 0.00143547 -0.102195)
(1.87029 0.00358211 -0.167584)
(1.29451 0.00468016 -0.161163)
(1.23858 0.0048258 -0.147504)
(1.22037 0.00497033 -0.146463)
(1.168 0.00500379 -0.146564)
(1.00225 0.00488586 -0.150424)
(0.547458 0.00567288 -0.159805)
(0.524135 0.00428689 -0.128725)
(3.007 1.04418e-06 -0.0225496)
(3.01725 2.56452e-06 -0.0336448)
(3.027 5.36074e-06 -0.0380685)
(3.03669 1.73893e-05 -0.0412334)
(3.0423 2.76833e-05 -0.0433015)
(3.04363 8.14251e-05 -0.0445154)
(3.04281 0.000146918 -0.0450448)
(3.03805 0.000250726 -0.0463416)
(3.02309 0.000452098 -0.0491811)
(2.983 0.000887969 -0.0553091)
(2.8766 0.00190585 -0.0689351)
(2.58622 0.0044679 -0.102024)
(1.87205 0.0111289 -0.167184)
(1.29147 0.0148948 -0.161073)
(1.23463 0.0152604 -0.147406)
(1.21548 0.0156128 -0.146375)
(1.16194 0.0157052 -0.146513)
(0.994783 0.0153913 -0.150481)
(0.536516 0.0184572 -0.159431)
(0.512181 0.0134981 -0.128821)
(3.007 1.74252e-06 -0.0225495)
(3.01725 4.28051e-06 -0.033645)
(3.02701 8.90967e-06 -0.0380673)
(3.0367 2.93607e-05 -0.041233)
(3.04232 4.65462e-05 -0.0432982)
(3.04365 0.000138095 -0.044517)
(3.04285 0.000249624 -0.045043)
(3.03811 0.000426324 -0.0463338)
(3.02323 0.000769992 -0.0491609)
(2.98334 0.00151797 -0.0552607)
(2.87754 0.0032798 -0.068813)
(2.58891 0.00777422 -0.101665)
(1.8783 0.0193866 -0.166451)
(1.28933 0.0270543 -0.160929)
(1.23198 0.0276479 -0.147149)
(1.21182 0.0282258 -0.146132)
(1.15708 0.0284608 -0.146328)
(0.988975 0.0280987 -0.150405)
(0.528444 0.0351987 -0.158711)
(0.50326 0.0238967 -0.128668)
(3.007 2.37925e-06 -0.0225493)
(3.01725 5.89987e-06 -0.0336452)
(3.02701 1.22874e-05 -0.0380655)
(3.0367 4.1552e-05 -0.0412324)
(3.04234 6.56156e-05 -0.0432933)
(3.04369 0.000196686 -0.0445198)
(3.04291 0.000356347 -0.0450407)
(3.03822 0.000609382 -0.0463226)
(3.02345 0.00110262 -0.0491315)
(2.98387 0.00218022 -0.0551894)
(2.87899 0.00473026 -0.0686332)
(2.59317 0.0112768 -0.101126)
(1.88874 0.0281184 -0.165396)
(1.28792 0.0406882 -0.160771)
(1.22973 0.04156 -0.146761)
(1.20881 0.0423676 -0.14575)
(1.15312 0.0427326 -0.146012)
(0.9847 0.0424501 -0.150165)
(0.524031 0.054582 -0.157712)
(0.494429 0.0353069 -0.128339)
(3.007 2.80945e-06 -0.0225491)
(3.01725 7.23081e-06 -0.0336455)
(3.02702 1.52339e-05 -0.0380631)
(3.03671 5.40653e-05 -0.0412318)
(3.04237 8.48305e-05 -0.0432867)
(3.04375 0.00025657 -0.0445238)
(3.04298 0.000465885 -0.0450379)
(3.03835 0.000797716 -0.046308)
(3.02375 0.00144567 -0.0490924)
(2.98459 0.00286542 -0.0550946)
(2.881 0.00623558 -0.0683933)
(2.5991 0.0149227 -0.100405)
(1.90354 0.0371821 -0.163987)
(1.28757 0.0557357 -0.160631)
(1.22792 0.0571068 -0.14626)
(1.20625 0.0582598 -0.145247)
(1.14979 0.0587782 -0.14557)
(0.981674 0.0587095 -0.149718)
(0.523019 0.0758877 -0.156475)
(0.485396 0.0489108 -0.12781)
(3.007 2.7422e-06 -0.0225488)
(3.01725 8.00613e-06 -0.033646)
(3.02703 1.75523e-05 -0.03806)
(3.03673 6.67879e-05 -0.0412312)
(3.04241 0.000104369 -0.0432785)
(3.04382 0.000316582 -0.0445292)
(3.04308 0.000575666 -0.0450346)
(3.03853 0.000986537 -0.0462898)
(3.02413 0.00178937 -0.0490436)
(2.98551 0.00355125 -0.0549756)
(2.88358 0.00774052 -0.0680922)
(2.60673 0.0185643 -0.0994952)
(1.92285 0.0461847 -0.162228)
(1.28867 0.0721759 -0.160504)
(1.22679 0.0742994 -0.145647)
(1.20416 0.075956 -0.144636)
(1.14691 0.0766652 -0.145)
(0.979689 0.0768697 -0.149072)
(0.525379 0.098474 -0.155023)
(0.47639 0.0652139 -0.127071)
(3.00701 2.01844e-06 -0.0225482)
(3.01726 8.05296e-06 -0.0336468)
(3.02704 1.94947e-05 -0.0380562)
(3.03674 7.91174e-05 -0.0412305)
(3.04246 0.00012382 -0.0432685)
(3.04391 0.000375334 -0.0445358)
(3.0432 0.000682642 -0.0450309)
(3.03874 0.00116974 -0.0462682)
(3.02459 0.00212041 -0.0489853)
(2.98663 0.00420473 -0.0548333)
(2.88669 0.00915374 -0.0677322)
(2.61599 0.0219254 -0.0984116)
(1.94666 0.0543479 -0.160087)
(1.29198 0.0903076 -0.160392)
(1.22628 0.0931746 -0.144884)
(1.20262 0.0953527 -0.143917)
(1.14453 0.0962886 -0.144315)
(0.978651 0.0968861 -0.148189)
(0.530436 0.122142 -0.153401)
(0.467812 0.084608 -0.12616)
(3.00701 1.24896e-06 -0.0225472)
(3.01726 7.75059e-06 -0.0336479)
(3.02705 2.09586e-05 -0.0380517)
(3.03676 9.0577e-05 -0.04123)
(3.04252 0.00014197 -0.0432569)
(3.04401 0.000431553 -0.0445435)
(3.04334 0.000784936 -0.0450267)
(3.03899 0.00134346 -0.0462434)
(3.02513 0.00242886 -0.0489182)
(2.98791 0.0047953 -0.0546704)
(2.89024 0.0103666 -0.0673243)
(2.62648 0.0245605 -0.0972075)
(1.97392 0.059794 -0.157788)
(1.29906 0.110365 -0.160191)
(1.22568 0.114398 -0.143974)
(1.20086 0.11688 -0.143135)
(1.1419 0.117683 -0.143571)
(0.9779 0.118589 -0.147053)
(0.537602 0.146814 -0.151583)
(0.459795 0.10738 -0.125065)
(3.00701 8.42006e-07 -0.0225459)
(3.01726 7.61614e-06 -0.0336492)
(3.02707 2.18446e-05 -0.0380465)
(3.03678 0.000101186 -0.0412293)
(3.04258 0.000157549 -0.0432436)
(3.04413 0.000485915 -0.0445525)
(3.0435 0.000885314 -0.0450222)
(3.03927 0.00151461 -0.0462158)
(3.02573 0.00273379 -0.0488437)
(2.98932 0.00537986 -0.0544914)
(2.894 0.0115569 -0.0668902)
(2.63694 0.0270861 -0.096001)
(1.99577 0.0648416 -0.156056)
(1.30955 0.130813 -0.159927)
(1.2276 0.136945 -0.142868)
(1.2011 0.140166 -0.142177)
(1.14035 0.140884 -0.142679)
(0.978437 0.142044 -0.14587)
(0.547502 0.17275 -0.149528)
(0.452851 0.133955 -0.123824)
(3.00702 5.20656e-07 -0.0225445)
(3.01726 7.48817e-06 -0.0336508)
(3.02708 2.2203e-05 -0.0380406)
(3.0368 0.000111135 -0.0412289)
(3.04265 0.000170243 -0.0432285)
(3.04426 0.000540313 -0.0445633)
(3.04367 0.000988699 -0.045018)
(3.03958 0.00169418 -0.0461851)
(3.02639 0.00306271 -0.048759)
(2.99088 0.00603558 -0.0542882)
(2.89811 0.0129596 -0.0664024)
(2.64801 0.0302787 -0.0946613)
(2.01576 0.0723336 -0.154089)
(1.31804 0.151788 -0.159933)
(1.22833 0.159805 -0.14183)
(1.20155 0.164072 -0.141202)
(1.13967 0.165384 -0.141653)
(0.980793 0.167388 -0.144475)
(0.560465 0.200525 -0.147216)
(0.447708 0.165052 -0.122387)
(3.00702 1.19877e-07 -0.0225429)
(3.01726 7.12528e-06 -0.0336526)
(3.0271 2.19871e-05 -0.038034)
(3.03682 0.000120514 -0.0412286)
(3.04273 0.000181295 -0.0432116)
(3.04441 0.000595032 -0.0445766)
(3.04387 0.00109552 -0.0450143)
(3.03993 0.00188379 -0.0461504)
(3.02714 0.00341818 -0.0486616)
(2.99263 0.00676126 -0.0540538)
(2.9027 0.014546 -0.065842)
(2.66028 0.0339501 -0.0931528)
(2.03795 0.0814399 -0.151697)
(1.327 0.174279 -0.160102)
(1.22793 0.183042 -0.140913)
(1.20135 0.18807 -0.140221)
(1.13918 0.190603 -0.140569)
(0.984515 0.194304 -0.142981)
(0.576272 0.230115 -0.144626)
(0.445632 0.201766 -0.120678)
(3.00703 -5.38657e-07 -0.0225412)
(3.01726 6.34579e-06 -0.0336547)
(3.02712 2.11171e-05 -0.0380268)
(3.03685 0.000128855 -0.0412287)
(3.04282 0.000191038 -0.0431927)
(3.04457 0.000648836 -0.044592)
(3.04409 0.00120296 -0.0450105)
(3.04032 0.0020787 -0.0461113)
(3.02798 0.00379087 -0.0485505)
(2.9946 0.00753302 -0.0537857)
(2.90784 0.0162455 -0.0652012)
(2.67397 0.0378944 -0.0914456)
(2.0632 0.0912947 -0.148972)
(1.33714 0.198265 -0.160402)
(1.22666 0.206896 -0.140006)
(1.19894 0.212606 -0.139235)
(1.13787 0.216658 -0.139471)
(0.98898 0.22286 -0.141501)
(0.594308 0.260575 -0.141855)
(0.447045 0.245683 -0.118809)
(3.00703 -1.61512e-06 -0.0225392)
(3.01727 4.77445e-06 -0.033657)
(3.02715 1.89701e-05 -0.038019)
(3.03688 0.000134853 -0.041229)
(3.04291 0.000197318 -0.0431719)
(3.04475 0.000698837 -0.0446095)
(3.04434 0.00130691 -0.0450066)
(3.04076 0.0022725 -0.0460677)
(3.02892 0.00416923 -0.0484254)
(2.99679 0.00832531 -0.0534828)
(2.91356 0.0179907 -0.0644775)
(2.68912 0.0419206 -0.0895293)
(2.09137 0.101595 -0.145891)
(1.34807 0.224145 -0.160953)
(1.22433 0.231842 -0.139069)
(1.19548 0.237826 -0.138221)
(1.13603 0.243705 -0.138324)
(0.993305 0.253577 -0.139935)
(0.611919 0.294428 -0.139052)
(0.451093 0.295668 -0.116861)
(3.00703 -3.387e-06 -0.0225371)
(3.01727 1.83685e-06 -0.0336594)
(3.02717 1.45457e-05 -0.0380107)
(3.03691 0.000136242 -0.0412296)
(3.04301 0.000196395 -0.0431492)
(3.04495 0.000739992 -0.0446293)
(3.04461 0.00140186 -0.0450026)
(3.04124 0.00245991 -0.0460195)
(3.02995 0.00454523 -0.0482866)
(2.99922 0.00911141 -0.0531464)
(2.91983 0.0196815 -0.0636759)
(2.70564 0.0457394 -0.0874274)
(2.12273 0.111956 -0.142459)
(1.36029 0.252551 -0.161752)
(1.22124 0.258248 -0.1381)
(1.19185 0.263764 -0.137154)
(1.13452 0.27185 -0.137142)
(0.998265 0.286834 -0.138268)
(0.629661 0.333794 -0.136284)
(0.457919 0.3517 -0.114756)
(3.00704 -6.38716e-06 -0.0225349)
(3.01727 -3.33333e-06 -0.0336618)
(3.02719 6.35046e-06 -0.0380022)
(3.03693 0.000129867 -0.0412307)
(3.04312 0.000181958 -0.0431252)
(3.04516 0.000767508 -0.0446514)
(3.0449 0.00149035 -0.0449984)
(3.04176 0.00265335 -0.0459669)
(3.03108 0.00493374 -0.0481362)
(3.00183 0.00988827 -0.0527826)
(2.92625 0.0212865 -0.0628284)
(2.72284 0.04922 -0.0852688)
(2.15782 0.122028 -0.138839)
(1.37519 0.283838 -0.162656)
(1.21836 0.286292 -0.136921)
(1.18923 0.29093 -0.135951)
(1.13453 0.301472 -0.135902)
(1.00494 0.322809 -0.136536)
(0.648776 0.378745 -0.133573)
(0.467835 0.415331 -0.112356)
(3.00704 -1.23019e-05 -0.0225326)
(3.01726 -1.2545e-05 -0.0336639)
(3.02722 -8.9762e-06 -0.0379943)
(3.03696 0.000110649 -0.0412329)
(3.04323 0.000123723 -0.0431008)
(3.0454 0.000795738 -0.0446704)
(3.04522 0.00162214 -0.0449984)
(3.04233 0.00291827 -0.0459144)
(3.03228 0.00538613 -0.0479802)
(3.00461 0.0106572 -0.052406)
(2.93297 0.0227107 -0.0619627)
(2.7407 0.0521344 -0.0831351)
(2.19741 0.130874 -0.135134)
(1.39565 0.316872 -0.163685)
(1.21773 0.315879 -0.135465)
(1.18874 0.320064 -0.134535)
(1.13699 0.333283 -0.134454)
(1.0144 0.362087 -0.134595)
(0.670622 0.429965 -0.131043)
(0.481061 0.488475 -0.109574)
(3.00704 -1.91949e-05 -0.0225293)
(3.01726 -2.30671e-05 -0.0336664)
(3.02724 -2.79687e-05 -0.037989)
(3.03697 8.30649e-05 -0.0412402)
(3.04335 2.69555e-05 -0.0430848)
(3.04571 0.000827324 -0.044656)
(3.04558 0.00179328 -0.0449992)
(3.04292 0.00324065 -0.0458697)
(3.03351 0.00588293 -0.0478334)
(3.00745 0.0114104 -0.0520401)
(2.93988 0.0239849 -0.061125)
(2.75875 0.0546903 -0.0811664)
(2.24125 0.138568 -0.13187)
(1.42268 0.349138 -0.164667)
(1.22128 0.346422 -0.133684)
(1.19199 0.351592 -0.133)
(1.14318 0.368288 -0.132974)
(1.02799 0.405679 -0.13255)
(0.697136 0.488615 -0.128246)
(0.498175 0.574404 -0.106745)
(3.00705 -2.04398e-05 -0.0225253)
(3.01725 -2.72117e-05 -0.0336693)
(3.02726 -3.93087e-05 -0.0379857)
(3.03697 5.64873e-05 -0.0412521)
(3.04348 -5.36287e-05 -0.0430706)
(3.04607 0.000844136 -0.0446247)
(3.04598 0.0019204 -0.0449955)
(3.04356 0.00349477 -0.0458251)
(3.03481 0.00629592 -0.0476883)
(3.01039 0.0120717 -0.0516753)
(2.94702 0.0251578 -0.0602861)
(2.7772 0.0571651 -0.0792221)
(2.28824 0.146025 -0.128442)
(1.45567 0.378566 -0.166028)
(1.22965 0.377937 -0.131736)
(1.19978 0.385925 -0.13123)
(1.15338 0.407469 -0.131304)
(1.04627 0.454836 -0.130377)
(0.730089 0.556315 -0.125686)
(0.520407 0.677774 -0.103248)
(3.00705 -7.88053e-06 -0.0225225)
(3.01724 -1.62144e-05 -0.0336716)
(3.02727 -3.58199e-05 -0.0379833)
(3.03696 3.20077e-05 -0.0412647)
(3.04361 -0.000102325 -0.0430558)
(3.04645 0.00083968 -0.0445908)
(3.04642 0.00197096 -0.0449891)
(3.04424 0.00362008 -0.0457782)
(3.03616 0.00653207 -0.047541)
(3.01344 0.0124963 -0.0513073)
(2.95438 0.0259582 -0.0594387)
(2.79625 0.0589128 -0.0772654)
(2.33875 0.150956 -0.124551)
(1.49626 0.401142 -0.167608)
(1.24381 0.411255 -0.13006)
(1.21212 0.423817 -0.129655)
(1.16626 0.451423 -0.129615)
(1.06865 0.510081 -0.128129)
(0.771445 0.635321 -0.12288)
(0.548557 0.807319 -0.0998977)
(3.00705 6.59684e-06 -0.0225252)
(3.01724 -1.89745e-07 -0.0336696)
(3.02728 -2.34776e-05 -0.0379838)
(3.03695 1.73259e-05 -0.0412758)
(3.04374 -0.000121366 -0.0430433)
(3.04685 0.000811147 -0.0445575)
(3.04687 0.00197487 -0.0449848)
(3.04494 0.00366238 -0.0457332)
(3.03754 0.00663621 -0.0473965)
(3.01653 0.0127143 -0.050947)
(2.96179 0.0263966 -0.0586103)
(2.81493 0.0599272 -0.0754293)
(2.39192 0.153455 -0.120841)
(1.54978 0.416016 -0.167583)
(1.26653 0.449898 -0.129279)
(1.2286 0.46844 -0.128318)
(1.18246 0.500433 -0.128156)
(1.09371 0.570152 -0.126168)
(0.827595 0.722113 -0.120379)
(0.58512 0.975383 -0.0958912)
(2.97873 5.12691e-07 0.000339933)
(2.97484 5.69113e-07 -0.00400488)
(2.97739 3.63721e-06 -0.00719639)
(2.98068 7.79183e-06 -0.0104007)
(2.98279 1.56006e-05 -0.0126845)
(2.98317 2.72956e-05 -0.013681)
(2.98101 4.82981e-05 -0.0145975)
(2.97254 8.96369e-05 -0.0161383)
(2.94931 0.000176952 -0.0189689)
(2.89026 0.00037283 -0.024657)
(2.73356 0.000840514 -0.0368584)
(2.28182 0.00209622 -0.0710963)
(1.25251 0.00602176 -0.125207)
(0.868894 0.0064246 -0.0834146)
(0.849807 0.00711224 -0.071682)
(0.852962 0.00796187 -0.0689899)
(0.819673 0.00814851 -0.0675996)
(0.620674 0.0076945 -0.0677724)
(0.20648 0.0111422 -0.0613654)
(0.382885 0.00784292 -0.0370423)
(2.97873 1.54431e-06 0.000339941)
(2.97484 1.69192e-06 -0.00400504)
(2.97739 1.0916e-05 -0.00719613)
(2.98068 2.34176e-05 -0.0104009)
(2.9828 4.69068e-05 -0.0126839)
(2.98318 8.21188e-05 -0.0136822)
(2.98102 0.000145357 -0.0145977)
(2.97258 0.000269862 -0.0161368)
(2.9494 0.00053327 -0.0189641)
(2.89047 0.00112644 -0.0246447)
(2.73412 0.00255546 -0.0368276)
(2.28361 0.00643933 -0.0709927)
(1.25507 0.0184815 -0.124966)
(0.868107 0.0199035 -0.0832935)
(0.846678 0.0216937 -0.0715532)
(0.847333 0.0237933 -0.0688615)
(0.810912 0.0242099 -0.0675599)
(0.608395 0.0229296 -0.067825)
(0.190475 0.0333329 -0.0610203)
(0.370454 0.0232416 -0.0369926)
(2.97873 2.59074e-06 0.000339957)
(2.97484 2.75784e-06 -0.00400535)
(2.9774 1.8201e-05 -0.0071956)
(2.98069 3.917e-05 -0.0104013)
(2.98281 7.86043e-05 -0.0126828)
(2.9832 0.000137845 -0.0136847)
(2.98106 0.000244354 -0.0145983)
(2.97267 0.000454263 -0.0161341)
(2.94958 0.000899302 -0.018955)
(2.89093 0.00190562 -0.0246213)
(2.73532 0.00435159 -0.036769)
(2.28744 0.0110837 -0.070794)
(1.26069 0.0321108 -0.124593)
(0.869726 0.0353767 -0.0831266)
(0.845331 0.0383554 -0.0713169)
(0.843179 0.0415925 -0.0686204)
(0.803147 0.0425495 -0.0674416)
(0.597791 0.0410154 -0.0678182)
(0.178583 0.0602684 -0.0603846)
(0.360504 0.0394625 -0.0367502)
(2.97873 3.64248e-06 0.000339988)
(2.97484 3.70539e-06 -0.00400583)
(2.97741 2.54523e-05 -0.00719479)
(2.9807 5.50663e-05 -0.010402)
(2.98284 0.000110869 -0.0126811)
(2.98323 0.000194951 -0.0136886)
(2.98112 0.000346411 -0.0145994)
(2.97279 0.000645364 -0.0161303)
(2.94987 0.00128051 -0.0189414)
(2.89163 0.00272107 -0.0245862)
(2.7372 0.00624169 -0.0366809)
(2.29343 0.0159986 -0.0704929)
(1.26974 0.0466855 -0.124064)
(0.87414 0.0523092 -0.0829328)
(0.846092 0.0564726 -0.0709797)
(0.840607 0.0605932 -0.0682943)
(0.796488 0.062072 -0.0672501)
(0.589217 0.0609607 -0.0676985)
(0.170198 0.0894737 -0.0595392)
(0.350091 0.0560942 -0.0362774)
(2.97873 4.65324e-06 0.000340051)
(2.97485 4.42474e-06 -0.00400648)
(2.97742 3.2543e-05 -0.00719368)
(2.98072 7.09976e-05 -0.0104031)
(2.98287 0.000143559 -0.0126788)
(2.98327 0.000253185 -0.013694)
(2.9812 0.000451026 -0.014601)
(2.97296 0.000842117 -0.0161251)
(2.95026 0.00167465 -0.0189229)
(2.89259 0.00356773 -0.0245382)
(2.7398 0.00821401 -0.0365597)
(2.30177 0.0211648 -0.0700802)
(1.28266 0.0621068 -0.123358)
(0.881857 0.070567 -0.0827363)
(0.849416 0.0761116 -0.0705413)
(0.839922 0.0810335 -0.0678871)
(0.791144 0.0830335 -0.0669876)
(0.582729 0.0829525 -0.0674682)
(0.165646 0.119658 -0.0585232)
(0.338476 0.0746536 -0.0355706)
(2.97873 5.56896e-06 0.000340181)
(2.97485 4.73377e-06 -0.0040073)
(2.97743 3.92868e-05 -0.00719221)
(2.98074 8.67363e-05 -0.0104046)
(2.98291 0.000176249 -0.0126759)
(2.98332 0.000311626 -0.0137008)
(2.98129 0.000556218 -0.0146031)
(2.97317 0.00104028 -0.0161185)
(2.95076 0.00207214 -0.0188991)
(2.89383 0.00442243 -0.0244759)
(2.74316 0.0102082 -0.0364028)
(2.31259 0.0264088 -0.0695273)
(1.30002 0.0778303 -0.122469)
(0.893419 0.0899599 -0.0825553)
(0.855721 0.0972599 -0.0700162)
(0.841423 0.10301 -0.0674095)
(0.787393 0.10558 -0.0666449)
(0.578308 0.107015 -0.0670708)
(0.163281 0.150662 -0.0574657)
(0.326702 0.0956228 -0.0346526)
(2.97873 6.39178e-06 0.000340441)
(2.97486 4.55767e-06 -0.0040083)
(2.97745 4.55662e-05 -0.00719042)
(2.98077 0.000101964 -0.0104065)
(2.98295 0.000208183 -0.0126723)
(2.98338 0.000368814 -0.0137091)
(2.98141 0.000659043 -0.0146055)
(2.97343 0.00123351 -0.0161101)
(2.95136 0.00245816 -0.0188692)
(2.89533 0.00524671 -0.0243979)
(2.74727 0.0121132 -0.0362066)
(2.32589 0.0313504 -0.0688294)
(1.32228 0.0925582 -0.121374)
(0.90945 0.110529 -0.0824285)
(0.865896 0.119893 -0.0693792)
(0.845559 0.126528 -0.0668732)
(0.78557 0.129661 -0.066228)
(0.576424 0.132901 -0.0665161)
(0.163961 0.182476 -0.0562923)
(0.314715 0.119576 -0.033543)
(2.97873 7.22321e-06 0.000340857)
(2.97486 4.15218e-06 -0.00400951)
(2.97747 5.12925e-05 -0.00718835)
(2.9808 0.000116239 -0.010409)