/*--------------------------------*- C++ -*----------------------------------*\
  =========                 |
  \\      /  F ield         | OpenFOAM: The Open Source CFD Toolbox
   \\    /   O peration     | Website:  https://openfoam.org
    \\  /    A nd           | Version:  6.0
     \\/     M anipulation  |
\*---------------------------------------------------------------------------*/
FoamFile
{
    version     2.0;
    format      ascii;
    class       volScalarField;
    location    "3";
    object      p;
}
// * * * * * * * * * * * * * * * * * * * * * * * * * * * * * * * * * * * * * //

dimensions      [1 -1 -2 0 0 0 0];

internalField   nonuniform List<scalar> 
300
(
0.987359
1.01297
1.04782
0.929936
2.62271
3.81086
9.74727
10.8338
10.7459
10.9455
0.98733
1.01281
1.04744
0.930086
2.61696
3.8011
9.72241
10.8028
10.7119
10.9417
0.987249
1.01247
1.04654
0.929787
2.60565
3.77643
9.66223
10.7318
10.634
10.9042
0.987151
1.01195
1.04515
0.929376
2.58796
3.73347
9.56037
10.6266
10.5231
10.8236
0.987059
1.01129
1.04327
0.928847
2.56334
3.66965
9.41316
10.4927
10.3854
10.7023
0.987028
1.01055
1.04099
0.928337
2.53128
3.58324
9.21678
10.3317
10.2198
10.5377
0.987149
1.00985
1.03849
0.928125
2.49122
3.47345
8.96797
10.143
10.0227
10.3194
0.987568
1.00935
1.03594
0.928008
2.44308
3.339
8.66383
9.92587
9.7887
10.0298
0.988526
1.00931
1.03398
0.929475
2.38548
3.17992
8.30604
9.67817
9.51212
9.63725
0.990056
1.00942
1.03224
0.929979
2.32413
2.985
7.90667
9.39848
9.18844
9.07996
0.998828
1.00293
1.02467
0.96656
2.13519
2.35454
6.79089
8.64076
8.28894
6.94564
1.00742
1.01231
1.06882
1.02945
1.70433
1.74368
4.94027
7.69507
7.48077
6.52904
1.00725
1.01071
1.0435
1.07732
1.33985
1.4641
3.33199
6.19265
6.6276
6.21922
1.00422
1.00819
1.00289
1.07587
1.18165
1.18526
2.34926
3.94123
5.70596
5.58851
0.999986
1.00758
1.00211
1.02005
1.03781
0.983374
1.81267
2.001
4.06565
4.69457
1.00092
1.001
1.00726
1.00899
1.04131
1.053
1.29681
1.33696
2.30197
3.56812
1.00054
1.00011
1.00151
1.00217
0.999673
1.03706
1.08583
1.06996
1.49919
1.80516
1.00017
1.00023
1.00111
1.00135
1.00619
1.01022
1.03561
1.03779
1.25036
1.29839
0.999991
1.00035
1.0004
1.00194
1.0025
1.01063
1.0127
1.01098
1.10219
1.10062
1.00006
1.00005
1.00058
1.00148
1.00217
1.00865
1.01026
1.04202
1.07206
1.07978
2.56769
1.68082
1.74422
1.96229
2.43115
3.15722
3.81577
3.83699
3.81903
3.77176
3.14021
2.1321
2.1055
2.18008
2.43108
2.9997
3.79534
3.82142
3.79586
3.73272
3.85951
2.58759
2.25534
2.29199
2.45772
2.87695
3.62527
3.73221
3.70998
3.65308
4.19203
2.94834
2.51961
2.54778
2.65041
2.88212
3.33534
3.53597
3.52925
3.50485
4.21458
3.33511
2.90018
2.90725
2.93697
2.99786
3.1068
3.22427
3.25495
3.27292
4.10461
3.88294
3.43798
3.39018
3.32803
3.18948
3.01439
2.92844
2.94094
2.97877
3.83817
4.21944
4.15471
4.02538
3.82065
3.40526
2.99124
2.69336
2.64608
2.66774
3.21007
4.89675
4.88437
4.74992
4.3843
3.63461
3.00242
2.57318
2.38437
2.39781
2.31772
5.77648
5.71381
5.44618
4.8324
3.80637
3.03668
2.52022
2.21906
2.20137
2.33029
6.29046
6.2442
5.88462
5.05918
3.89058
3.06031
2.50352
2.15713
2.09958
)
;

boundaryField
{
    inlet
    {
        type            fixedValue;
        value           uniform 1;
    }
    outlet
    {
        type            waveTransmissive;
        gamma           1.4;
        fieldInf        1;
        lInf            3;
        value           nonuniform List<scalar> 10(3.65207 3.61502 3.53863 3.39464 3.16894 2.88195 2.58071 2.32033 2.13096 2.03495);
    }
    top
    {
        type            symmetryPlane;
    }
    bottom
    {
        type            symmetryPlane;
    }
    step
    {
        type            zeroGradient;
    }
    defaultFaces
    {
        type            empty;
    }
}


// ************************************************************************* //
