/*--------------------------------*- C++ -*----------------------------------*\
  =========                 |
  \\      /  F ield         | OpenFOAM: The Open Source CFD Toolbox
   \\    /   O peration     | Website:  https://openfoam.org
    \\  /    A nd           | Version:  6.0
     \\/     M anipulation  |
\*---------------------------------------------------------------------------*/
FoamFile
{
    version     2.0;
    format      ascii;
    class       surfaceScalarField;
    location    "3";
    object      phi;
}
// * * * * * * * * * * * * * * * * * * * * * * * * * * * * * * * * * * * * * //

dimensions      [1 0 -1 0 0 0 0];

internalField   nonuniform List<scalar> 
560
(
0.00840539
1.74263e-07
0.00840245
1.35221e-06
0.00839842
3.18805e-06
0.00839788
9.5664e-07
0.00833611
5.98134e-05
0.00816746
0.000158818
0.00712643
0.00102436
0.00521353
0.0019123
0.00245578
0.0027588
0.00245616
0.00840531
4.62613e-07
0.00840211
2.94938e-06
0.00839732
7.14818e-06
0.00839233
6.44279e-06
0.00833035
0.000119626
0.00811541
0.000364484
0.00687372
0.00224956
0.00491753
0.00386766
0.0025627
0.00511452
0.0050192
0.00840553
5.66231e-07
0.00840259
4.31176e-06
0.00839806
1.08831e-05
0.00839541
9.47636e-06
0.00832591
0.000186973
0.00807937
0.000601621
0.00669942
0.00361251
0.00475895
0.00580726
0.00256143
0.00731304
0.00758114
0.00840573
5.12968e-07
0.00840333
5.23109e-06
0.00839938
1.41646e-05
0.00839739
1.20007e-05
0.00832493
0.000257239
0.00805883
0.000858353
0.00659664
0.00505721
0.00468059
0.00772223
0.00256616
0.00942814
0.0101477
0.00840625
1.96544e-07
0.00840492
5.27007e-06
0.00840203
1.64126e-05
0.00840217
1.25081e-05
0.00832842
0.000328427
0.00805703
0.00112052
0.00655726
0.00653932
0.00466323
0.00961535
0.00260158
0.0114903
0.0127508
0.00840706
-7.08342e-07
0.00840687
4.02106e-06
0.00840592
1.67443e-05
0.00841054
9.15678e-06
0.00833677
0.000398817
0.00807459
0.00137425
0.00658194
0.00801485
0.00470503
0.0114912
0.00266871
0.0135263
0.0154188
0.00840772
-2.4021e-06
0.00840935
9.08671e-07
0.008411
1.45508e-05
0.00842102
2.84466e-06
0.00835265
0.000460931
0.0081032
0.00161723
0.00664838
0.0094539
0.004804
0.0133342
0.00278337
0.0155461
0.0182027
0.00840884
-5.51833e-06
0.00841344
-5.32542e-06
0.00842029
7.36789e-06
0.00845662
-2.07765e-05
0.00837171
0.000529493
0.0081472
0.00183962
0.00677739
0.0108073
0.00496168
0.015148
0.00296271
0.0175421
0.0211632
0.00840867
-9.00717e-06
0.00841627
-1.41358e-05
0.00842186
1.88036e-06
0.00847968
-3.54544e-05
0.00840911
0.000550902
0.00811122
0.00214062
0.00690424
0.0119887
0.00518227
0.0168698
0.00324117
0.0194784
0.0244036
0.00841635
-2.11486e-05
0.00842741
-2.03481e-05
0.00840004
2.39184e-05
0.0086147
-0.000125165
0.00846681
0.000572051
0.00801291
0.00257046
0.00704626
0.0129271
0.005453
0.0184759
0.00362504
0.0213033
0.0280211
0.0335779
-1.34544e-05
0.0334183
-1.34157e-05
0.0336809
-9.22688e-05
0.0351695
-0.000174866
0.0337903
0.000673345
0.0340422
0.00150654
0.0346889
0.0124099
0.0335126
0.0200212
0.0319898
0.0229967
0.0224178
0.0375204
0.0335584
1.19853e-06
0.0336797
6.55356e-06
0.0334485
3.45166e-05
0.0345074
-1.10501e-05
0.0335817
0.000545102
0.033399
0.000993529
0.0383301
0.00774156
0.0398826
0.0185031
0.0406069
0.0222825
0.0223896
0.0406156
0.0336064
4.92503e-06
0.0334186
5.23126e-06
0.0336705
7.4288e-05
0.0323175
1.45721e-05
0.0339291
0.000349504
0.0311299
0.000780457
0.0372044
0.00440485
0.04151
0.0141539
0.0442121
0.0195739
0.0217327
0.0448423
0.0336255
5.67561e-06
0.0335836
3.19854e-06
0.033766
8.96049e-06
0.0337949
0.000116002
0.0336269
0.0002641
0.03292
0.000517987
0.0359675
0.00201532
0.0437237
0.00657314
0.0471358
0.0161259
0.0194583
0.0493285
0.0336122
-1.20754e-06
0.0335743
1.02744e-05
0.0336081
-2.59756e-06
0.0336943
2.32224e-05
0.0339145
3.34867e-05
0.034353
-5.3699e-06
0.0352944
0.0011449
0.039398
0.00244825
0.04626
0.00918534
0.0148916
0.0507769
0.0335917
4.50522e-07
0.0336179
1.45524e-06
0.033581
1.09825e-05
0.0336378
1.61337e-05
0.0335166
8.34811e-05
0.0333073
4.81246e-05
0.0343101
0.000403621
0.0348087
0.00094572
0.0417407
0.00351452
0.00854789
0.047716
0.0335972
5.45864e-07
0.0336058
2.64586e-07
0.0336045
1.55787e-06
0.03362
4.0358e-06
0.0337084
-3.70954e-06
0.0336838
5.88485e-05
0.0339759
0.000121837
0.0346122
0.000231746
0.0372355
0.000975166
0.00233399
0.0433386
0.0335991
2.61944e-07
0.0336004
2.92515e-08
0.0336004
1.31683e-06
0.0336037
-6.74566e-08
0.0335939
6.32751e-06
0.0336155
7.03893e-07
0.0336953
4.58269e-05
0.03394
7.73899e-05
0.0344095
0.000330568
0.000734992
0.0363683
0.0335997
-9.74305e-08
0.0335992
4.45083e-07
0.0336004
-1.36802e-07
0.0335997
1.0538e-06
0.0336031
9.65973e-07
0.0335869
4.77297e-06
0.0336567
7.44858e-06
0.0338337
-3.40605e-05
0.0340114
4.6957e-05
0.000136719
0.0351406
0.0335989
0.0335999
0.0336016
0.0335993
0.0336088
0.0336096
0.033618
0.0336964
0.033651
0.0332231
0.01785
0.0195795
0.0119942
0.00560805
0.0113166
0.000418088
0.0145093
-0.00367005
0.0183703
-0.00455122
0.0179469
-0.000466017
0.0201904
-0.00269235
0.0219703
-0.00200273
0.0228678
-0.0011992
0.000184572
0.024726
0.0353457
0.0197715
0.0104134
0.0169514
0.00285074
0.0171366
-0.00429614
0.0204947
-0.00841038
0.0263813
-0.00752419
0.0295355
-0.00669134
0.031861
-0.00476907
0.032287
-0.0018147
0.00107199
0.0336115
0.0464127
0.025475
0.0184067
0.0219279
0.0059341
0.020439
-0.00328642
0.0230378
-0.011635
0.0305223
-0.0161627
0.0349901
-0.0121539
0.0380224
-0.00814604
0.0384806
-0.00249634
0.00237428
0.0382817
0.0572956
0.0298129
0.0267455
0.0258759
0.00939666
0.0260459
-0.00395284
0.0294596
-0.0156251
0.0343117
-0.0218397
0.038658
-0.0175335
0.0412287
-0.0113767
0.0418602
-0.00383459
0.00335978
0.0416009
0.0663966
0.0352926
0.0329257
0.0323087
0.0119589
0.0328269
-0.00491393
0.0356313
-0.0189576
0.0380207
-0.024928
0.0402183
-0.0207372
0.04189
-0.0139459
0.0426569
-0.00522074
0.00364459
0.0539904
0.0598912
0.042284
0.0444784
0.0389879
0.0149045
0.0400321
-0.00647682
0.0421698
-0.0216379
0.0420656
-0.0253813
0.0418836
-0.0212686
0.0412063
-0.0140977
0.0416949
-0.00637937
0.00249123
0.0498684
0.053182
0.0515387
0.0425583
0.0472888
0.0187744
0.0477958
-0.00753106
0.0487497
-0.0230845
0.0465519
-0.0235906
0.0437073
-0.0190148
0.0419617
-0.0128737
0.0405817
-0.00578175
0.000751029
0.0536255
0.0354886
0.0575315
0.0382365
0.0625395
0.0132898
0.0623288
-0.00778748
0.0570767
-0.0182066
0.0507109
-0.0174413
0.0452897
-0.0140956
0.0418512
-0.00972171
0.0401271
-0.00475239
-0.00022932
0.0583063
0.0114437
0.0696041
0.0266886
0.0724322
0.0100171
0.0696397
-0.00526872
0.0622412
-0.0109588
0.0540747
-0.00942838
0.0470903
-0.00741393
0.0424547
-0.00515191
0.0400917
-0.00282418
-0.000319053
0.0454036
0.0714098
0.0810453
0.0755221
0.0645719
0.0551535
0.0475468
0.0424537
0.0393884
)
;

boundaryField
{
    inlet
    {
        type            calculated;
        value           nonuniform List<scalar> 
20
(
-0.00840558
-0.0084056
-0.00840563
-0.00840568
-0.00840572
-0.00840573
-0.00840567
-0.00840547
-0.00840503
-0.00840432
-0.0336013
-0.0335861
-0.0335864
-0.0335918
-0.0335993
-0.0335976
-0.0335983
-0.033599
-0.0335993
-0.0335991
)
;
    }
    outlet
    {
        type            calculated;
        value           nonuniform List<scalar> 10(0.0223825 0.0312713 0.0369684 0.0403784 0.0418911 0.0421934 0.0415625 0.0402551 0.0391345 0.0381077);
    }
    top
    {
        type            symmetryPlane;
        value           uniform 0;
    }
    bottom
    {
        type            symmetryPlane;
        value           uniform 0;
    }
    step
    {
        type            calculated;
        value           uniform 0;
    }
    defaultFaces
    {
        type            empty;
        value           nonuniform 0();
    }
}


// ************************************************************************* //
