/*--------------------------------*- C++ -*----------------------------------*\
  =========                 |
  \\      /  F ield         | OpenFOAM: The Open Source CFD Toolbox
   \\    /   O peration     | Website:  https://openfoam.org
    \\  /    A nd           | Version:  6.0
     \\/     M anipulation  |
\*---------------------------------------------------------------------------*/
FoamFile
{
    version     2.0;
    format      ascii;
    class       surfaceScalarField;
    location    "3";
    object      phi;
}
// * * * * * * * * * * * * * * * * * * * * * * * * * * * * * * * * * * * * * //

dimensions      [1 0 -1 0 0 0 0];

internalField   nonuniform List<scalar> 
8300
(
0.000641614
1.48918e-08
0.000201039
0.000568756
2.72328e-08
7.28312e-05
0.000528761
8.40621e-08
3.98984e-05
0.000465531
1.6654e-07
6.3057e-05
0.000381898
3.06842e-07
8.3311e-05
0.000267785
5.74784e-07
0.000113542
0.000413821
2.33706e-06
-0.000148299
0.000320276
5.97517e-07
9.31391e-05
0.000359391
7.24476e-05
-0.000111796
8.33904e-05
0.000274886
0.000641639
4.33562e-08
0.000201005
0.000568727
5.67663e-08
7.28824e-05
0.000528833
2.01599e-07
3.97668e-05
0.000465575
4.01806e-07
6.30137e-05
0.000381763
8.12554e-07
8.32953e-05
0.000267455
2.10214e-06
0.000112747
0.000401304
6.86259e-06
-0.000138337
0.000315033
2.59625e-05
6.12278e-05
0.000349646
0.000138387
-0.000100022
0.000167543
0.000266286
0.000641771
7.31554e-08
0.000200873
0.000568652
9.08689e-08
7.30868e-05
0.000529155
3.27283e-07
3.93609e-05
0.000466055
6.53968e-07
6.28378e-05
0.000382567
1.32309e-06
8.29641e-05
0.00026903
3.41051e-06
0.000112204
0.000408352
9.82266e-06
-0.0001423
0.000313277
3.01739e-05
9.14868e-05
0.000342272
0.000190701
-8.21293e-05
0.000277052
0.000232681
0.000641994
1.01257e-07
0.00020065
0.000568529
1.34075e-07
7.3427e-05
0.000529685
4.69188e-07
3.86908e-05
0.000466842
9.3787e-07
6.25506e-05
0.000383896
1.84939e-06
8.24031e-05
0.000269784
4.39081e-06
0.000113121
0.000416905
1.31921e-05
-0.000150241
0.000313545
3.54319e-05
9.80024e-05
0.000327012
0.000283215
-0.000107143
0.000405374
0.00019836
0.000642261
1.50691e-07
0.000200368
0.000568357
1.85246e-07
7.38564e-05
0.000530354
6.76427e-07
3.77853e-05
0.000467688
1.34906e-06
6.22448e-05
0.000384694
2.67189e-06
8.21555e-05
0.000270767
6.48612e-06
0.000111824
0.000418451
1.84885e-05
-0.00015306
0.000311389
4.8604e-05
9.3903e-05
0.000316619
0.000395673
-0.000118656
0.000546393
0.000175229
0.000642698
2.08086e-07
0.000199932
0.000568101
2.71141e-07
7.45135e-05
0.00053138
9.57026e-07
3.64281e-05
0.000469029
1.88024e-06
6.18087e-05
0.000386704
3.60259e-06
8.13759e-05
0.000270461
8.29981e-06
0.000114438
0.00041822
2.41517e-05
-0.000154167
0.000307751
6.30539e-05
9.65315e-05
0.000306152
0.00052402
-0.000127178
0.00070249
0.000149825
0.000643189
3.03201e-07
0.000199407
0.000567738
4.19933e-07
7.53052e-05
0.000532557
1.39344e-06
3.47314e-05
0.000470472
2.60544e-06
6.13468e-05
0.000388168
4.85054e-06
8.10373e-05
0.000272462
1.14824e-05
0.000112506
0.000420686
3.2601e-05
-0.000156912
0.000304375
8.3743e-05
9.57685e-05
0.000295909
0.000668392
-0.00013643
0.000876572
0.000121659
0.000643682
3.95047e-07
0.000198922
0.000567191
6.69635e-07
7.62474e-05
0.000533733
1.80633e-06
3.30268e-05
0.000472771
3.26556e-06
6.02886e-05
0.000393512
5.69993e-06
7.83706e-05
0.000272145
1.19712e-05
0.000120966
0.000417425
3.79588e-05
-0.000151399
0.000298824
9.62354e-05
0.000106045
0.000284157
0.000828042
-0.000145678
0.00107092
8.96031e-05
0.000643678
5.16668e-07
0.000198907
0.000566461
8.70553e-07
7.70194e-05
0.000534239
2.33011e-06
3.16805e-05
0.000474431
4.17838e-06
5.88785e-05
0.000395666
7.31207e-06
7.7126e-05
0.000279874
1.57669e-05
0.000111988
0.000405109
4.97051e-05
-0.000137059
0.000297025
0.00012622
7.81031e-05
0.000273245
0.00101046
-0.000159266
0.00130377
4.01343e-05
0.000643758
0.000198807
6.73422e-07
0.000565496
7.81043e-05
1.02876e-06
0.000535017
2.99392e-05
2.85121e-06
0.000477174
5.69959e-05
5.00631e-06
0.000401321
7.42876e-05
8.85077e-06
0.000290248
0.000107546
1.92621e-05
0.000387175
-0.000112269
6.50443e-05
0.000297604
5.97227e-05
0.000155954
0.000262774
-0.000202627
0.00124724
-6.04771e-05
0.00162667
0.000903151
2.60443e-08
0.000137414
0.000858537
7.34381e-08
0.000117367
0.000787785
1.8034e-07
0.000110461
0.000756925
4.21186e-07
9.34839e-05
0.000755801
9.57791e-07
8.34448e-05
0.000781592
2.25046e-06
8.5506e-05
0.000563226
5.81918e-06
6.42508e-05
0.00060346
3.23875e-05
2.03151e-05
-8.27534e-05
0.000327865
0.000244654
0.000176912
1.28011e-05
0.000903125
6.91966e-08
0.00013739
0.000858574
1.69797e-07
0.000117333
0.000787679
3.98472e-07
0.000110437
0.000756779
9.12542e-07
9.34095e-05
0.000755662
2.07623e-06
8.32761e-05
0.000780608
4.95816e-06
8.50601e-05
0.000570721
1.31615e-05
6.40865e-05
0.00062039
4.04218e-05
3.36966e-06
0.000383179
0.000377555
8.54734e-05
0.000631583
0.0001942
0.000903053
1.14559e-07
0.000137328
0.000858775
2.76805e-07
0.000117254
0.000787458
6.42171e-07
0.000110426
0.00075647
1.44868e-06
9.32776e-05
0.00075532
3.23538e-06
8.29342e-05
0.000780645
7.50614e-06
8.42992e-05
0.000570213
1.91517e-05
6.20085e-05
0.00062916
6.53016e-05
7.59143e-06
0.000249024
0.000622079
5.17993e-05
0.000995175
0.000117945
0.000902933
1.60166e-07
0.000137226
0.000859086
4.03635e-07
0.000117143
0.000786997
9.44998e-07
0.000110468
0.000755749
2.12256e-06
9.31122e-05
0.000754152
4.68311e-06
8.25211e-05
0.000780224
1.08243e-05
8.37251e-05
0.000560858
2.719e-05
6.10855e-05
0.000619429
9.5009e-05
9.52646e-06
0.000234534
0.000890439
7.90317e-06
0.00134903
7.96529e-05
0.000902769
2.38508e-07
0.000137078
0.000859411
5.9437e-07
0.000117019
0.000786189
1.37594e-06
0.000110569
0.000754606
3.03648e-06
9.29005e-05
0.000752851
6.58726e-06
8.19821e-05
0.00077779
1.48684e-05
8.28202e-05
0.00055367
3.75837e-05
6.06464e-05
0.000607155
0.000128396
6.93833e-06
0.000232377
0.00117206
-2.70556e-05
0.00172324
3.40721e-05
0.000902519
3.5774e-07
0.000136854
0.000859835
9.13802e-07
0.000116875
0.000784844
2.02815e-06
0.000110758
0.000752797
4.26594e-06
9.26114e-05
0.000750529
8.9853e-06
8.12275e-05
0.000777558
2.02844e-05
8.19498e-05
0.000549654
5.09221e-05
6.03248e-05
0.000599882
0.000169557
5.19717e-06
0.00022173
0.00147407
-5.26664e-05
0.00209847
-3.26461e-06
0.000902148
6.68099e-07
0.00013651
0.000860092
1.52413e-06
0.000116746
0.000782888
2.95757e-06
0.000110996
0.000750597
5.75013e-06
9.21367e-05
0.000748674
1.18129e-05
8.01075e-05
0.000775045
2.61113e-05
8.02602e-05
0.000542203
6.71795e-05
5.95868e-05
0.000589303
0.000214515
3.51871e-06
0.000212547
0.00179036
-7.74565e-05
0.00246806
-3.52346e-05
0.00090225
1.13895e-06
0.000135764
0.000861091
2.37218e-06
0.00011655
0.000782721
4.12111e-06
0.000110222
0.000749888
7.47531e-06
9.13799e-05
0.000745913
1.49694e-05
7.9143e-05
0.000779452
3.39574e-05
7.95947e-05
0.000547816
8.84372e-05
5.90975e-05
0.000592767
0.000272972
2.78491e-06
0.000212875
0.00212352
-0.000100735
0.00283907
-6.88494e-05
0.000903807
1.44825e-06
0.000134363
0.000864084
3.03995e-06
0.000116064
0.000785834
5.24524e-06
0.000108792
0.000752471
9.35111e-06
9.03452e-05
0.000748089
1.85409e-05
7.78974e-05
0.000775704
4.18146e-05
7.64781e-05
0.000560165
0.000111244
5.56043e-05
0.000588175
0.000332482
-9.45248e-06
0.000227756
0.00245672
-0.000133846
0.00320743
-0.00010105
0.000905442
0.000132649
1.74879e-06
0.000867586
0.000115469
3.51844e-06
0.000789806
0.00010695
5.99819e-06
0.000756386
8.90309e-05
1.07127e-05
0.000751812
7.63378e-05
2.10242e-05
0.000781462
7.2949e-05
4.66972e-05
0.000606067
5.01751e-05
0.000124095
0.000603304
-3.1085e-05
0.000425919
0.000259684
-0.0001734
0.00276934
-0.000133175
0.00353863
0.000915118
1.17405e-08
6.17165e-05
0.0009532
6.08363e-08
7.92206e-05
0.000983046
1.79561e-07
8.043e-05
0.00099827
4.46525e-07
7.7805e-05
0.000997251
1.08333e-06
8.33658e-05
0.000992569
2.76108e-06
8.74093e-05
0.000959679
7.8131e-06
8.9299e-05
0.000909577
3.285e-05
3.75121e-05
0.000833771
0.000295269
2.32563e-05
0.000419309
0.0004257
0.000915096
2.74637e-08
6.17109e-05
0.000953147
1.40718e-07
7.92003e-05
0.000982956
3.88054e-07
8.04143e-05
0.000998148
9.34373e-07
7.7721e-05
0.000997074
2.23221e-06
8.31865e-05
0.000992253
5.63821e-06
8.69785e-05
0.000960553
1.55727e-05
8.79626e-05
0.000909746
5.44646e-05
3.25257e-05
0.000736303
0.000569607
-1.75477e-05
0.00109712
0.000251124
0.000915045
4.23719e-08
6.17013e-05
0.000953028
2.41706e-07
7.91678e-05
0.000982906
6.38463e-07
8.0293e-05
0.000998037
1.4979e-06
7.75747e-05
0.000996689
3.5269e-06
8.29719e-05
0.000991228
8.83138e-06
8.65385e-05
0.000957091
2.43529e-05
8.7299e-05
0.000902927
8.75784e-05
2.85896e-05
0.000614142
0.000975871
-6.78027e-05
0.00159097
0.000236608
0.000914958
5.73395e-08
6.16863e-05
0.000952829
3.77278e-07
7.91337e-05
0.000983009
9.79234e-07
7.99425e-05
0.000998018
2.23928e-06
7.73538e-05
0.000996121
5.17854e-06
8.27489e-05
0.000989727
1.28575e-05
8.60682e-05
0.000953031
3.55062e-05
8.66048e-05
0.000894972
0.000128729
2.6354e-05
0.000608189
0.00137665
-0.00010826
0.00209469
0.00018259
0.000914821
8.51021e-08
6.16638e-05
0.00095252
5.96417e-07
7.90986e-05
0.000983202
1.47478e-06
7.93868e-05
0.000998113
3.21192e-06
7.70075e-05
0.000995617
7.229e-06
8.24093e-05
0.000988112
1.77546e-05
8.5397e-05
0.000949952
4.91084e-05
8.51609e-05
0.000886525
0.000175681
2.33064e-05
0.000588252
0.00177719
-0.000131506
0.00256907
0.000146538
0.000914601
1.45384e-07
6.16282e-05
0.000952041
9.71664e-07
7.90558e-05
0.00098358
2.16065e-06
7.85273e-05
0.000998588
4.31206e-06
7.64924e-05
0.000995489
9.57665e-06
8.19587e-05
0.000987046
2.36706e-05
8.44346e-05
0.000947125
6.59492e-05
8.33254e-05
0.000878065
0.000229819
1.99859e-05
0.000566226
0.00218854
-0.000154387
0.00302012
0.000110591
0.000914241
3.01679e-07
6.15484e-05
0.000951335
1.62431e-06
7.89931e-05
0.000984757
2.52382e-06
7.72069e-05
0.00100018
5.28749e-06
7.57317e-05
0.000996272
1.22283e-05
8.13336e-05
0.000986136
3.08244e-05
8.31911e-05
0.000944103
8.67135e-05
8.07631e-05
0.000868733
0.000292675
1.58683e-05
0.000547078
0.00260429
-0.000173883
0.00345067
7.99703e-05
0.00091359
5.45356e-07
6.13664e-05
0.000950543
2.38822e-06
7.88228e-05
0.000983455
3.35389e-06
7.64757e-05
0.000998264
6.67411e-06
7.51716e-05
0.000993854
1.54415e-05
8.03078e-05
0.000983704
3.93838e-05
8.11322e-05
0.000940063
0.000111873
7.74834e-05
0.000860059
0.00036454
1.06868e-05
0.000531855
0.00302774
-0.000198408
0.00386168
5.06907e-05
0.000912603
7.16179e-07
6.10286e-05
0.000949495
3.00803e-06
7.85392e-05
0.000981928
4.14769e-06
7.55615e-05
0.000996324
8.18973e-06
7.44184e-05
0.000991986
1.89196e-05
7.87188e-05
0.000980982
4.83078e-05
7.84844e-05
0.000937388
0.000138549
7.2386e-05
0.000851656
0.00043823
2.3046e-06
0.000520865
0.00344523
-0.000223079
0.00426325
1.68362e-05
0.000911375
6.05884e-05
8.4557e-07
0.000948243
7.81834e-05
3.41056e-06
0.000980167
7.44868e-05
4.68392e-06
0.000994434
7.35325e-05
9.40277e-06
0.000991275
7.68215e-05
2.15491e-05
0.000983079
7.51487e-05
5.42113e-05
0.000949668
6.58993e-05
0.000156084
0.000854249
-1.03016e-05
0.000512509
0.000486216
-0.000256798
0.00389399
-2.92973e-05
0.00464407
0.000887864
3.19289e-09
1.3523e-05
0.000922938
4.18523e-08
4.41035e-05
0.000960052
1.45171e-07
4.31676e-05
0.00098573
3.81675e-07
5.1741e-05
0.00102071
1.00587e-06
4.7367e-05
0.00105766
2.73213e-06
4.77181e-05
0.0010858
7.98023e-06
5.3143e-05
0.00106258
3.16173e-05
2.92175e-05
0.000810533
0.000308405
-3.57955e-05
0.000866129
0.000368311
0.000887848
5.84943e-09
1.35343e-05
0.000922891
1.01309e-07
4.40964e-05
0.000960116
2.78924e-07
4.30526e-05
0.000985801
7.61369e-07
5.16514e-05
0.00102066
2.05559e-06
4.72694e-05
0.00105716
5.62705e-06
4.75692e-05
0.00108413
1.64304e-05
5.25089e-05
0.00105606
6.43435e-05
2.79485e-05
0.000628256
0.000768376
-5.24183e-05
0.0015235
0.000220274
0.000887806
7.41064e-09
1.35676e-05
0.000922805
1.89594e-07
4.40785e-05
0.000960075
4.20557e-07
4.28792e-05
0.000985725
1.19135e-06
5.14896e-05
0.00102036
3.27092e-06
4.71122e-05
0.00105607
9.00986e-06
4.74286e-05
0.00108142
2.64916e-05
5.18483e-05
0.00104364
0.00010611
2.46648e-05
0.000543891
0.00127778
-8.00865e-05
0.00213609
0.000166198
0.000887723
9.54538e-09
1.36357e-05
0.000922684
3.19277e-07
4.40408e-05
0.000959679
6.64305e-07
4.27021e-05
0.000985227
1.77277e-06
5.12185e-05
0.00101964
4.78088e-06
4.6816e-05
0.00105445
1.31084e-05
4.71319e-05
0.00107778
3.86998e-05
5.10388e-05
0.00103137
0.000156584
2.23321e-05
0.000541642
0.0017482
-9.1805e-05
0.00271774
0.000140896
0.000887581
1.56948e-08
1.37512e-05
0.000922487
5.32891e-07
4.39764e-05
0.000959107
1.01249e-06
4.2417e-05
0.000984583
2.50655e-06
5.07914e-05
0.0010188
6.60293e-06
4.63535e-05
0.00105257
1.80329e-05
4.66778e-05
0.00107264
5.34424e-05
5.03145e-05
0.00101808
0.000213537
2.07841e-05
0.000518049
0.00221897
-0.000105028
0.00326199
0.000118634
0.000887345
3.51853e-08
1.39389e-05
0.000922178
8.80875e-07
4.38705e-05
0.000958339
1.42046e-06
4.19575e-05
0.000983922
3.24846e-06
5.01598e-05
0.00101819
8.56956e-06
4.57044e-05
0.00105079
2.37428e-05
4.60947e-05
0.00106686
7.11816e-05
4.94644e-05
0.00100396
0.000277492
1.87648e-05
0.000497627
0.00268784
-0.000119781
0.00376737
0.000101218
0.000886957
7.9856e-08
1.42229e-05
0.000921744
1.40784e-06
4.36716e-05
0.00095741
1.58646e-06
4.13761e-05
0.000983324
3.73248e-06
4.93268e-05
0.00101786
1.05371e-05
4.481e-05
0.00104909
3.03215e-05
4.5334e-05
0.00106036
9.23366e-05
4.82784e-05
0.000988961
0.000348358
1.61808e-05
0.000481068
0.00315913
-0.000140169
0.00423621
9.05123e-05
0.000886324
1.52416e-07
1.46463e-05
0.000921301
1.95966e-06
4.32842e-05
0.000956582
1.9473e-06
4.08364e-05
0.000982748
4.46832e-06
4.82623e-05
0.00101667
1.29705e-05
4.39329e-05
0.00104577
3.80472e-05
4.42478e-05
0.00105224
0.000117012
4.62528e-05
0.00097392
0.000424949
1.21274e-05
0.0004624
0.00361813
-0.000148765
0.00467147
7.61862e-05
0.000885444
2.0578e-07
1.52088e-05
0.000920785
2.40257e-06
4.27433e-05
0.000955732
2.29427e-06
4.02716e-05
0.000982398
5.35968e-06
4.68533e-05
0.00101539
1.58041e-05
4.28651e-05
0.00104233
4.66016e-05
4.29141e-05
0.00104402
0.000144022
4.35679e-05
0.000959858
0.000503661
7.4131e-06
0.000466437
0.00407186
-0.00018644
0.00506091
9.21168e-05
0.000884367
1.58698e-05
2.36484e-07
0.000920214
4.20729e-05
2.65287e-06
0.000954822
3.96447e-05
2.534e-06
0.000982158
4.52201e-05
6.32695e-06
0.00101461
4.16539e-05
1.84823e-05
0.00104134
4.13904e-05
5.35364e-05
0.00104391
4.04841e-05
0.000166731
0.000955782
-3.78975e-08
0.000581096
0.000378583
-0.000264994
0.0046541
9.2683e-05
0.00531572
0.000853378
5.52225e-09
-2.65803e-10
0.000897443
3.75991e-08
1.19254e-10
0.000940529
8.03655e-08
-8.26341e-11
0.000991986
2.68553e-07
1.21473e-08
0.00103847
8.44e-07
3.14376e-08
0.00108357
2.5269e-06
8.13056e-08
0.00112882
7.68731e-06
1.8281e-07
0.00112736
3.06365e-05
1.34426e-07
0.000765827
0.000324106
-1.51994e-06
0.00113274
-4.53662e-07
0.000853386
1.41123e-08
-3.25246e-10
0.000897423
9.56528e-08
2.00264e-10
0.000940418
1.38044e-07
-4.2066e-10
0.000991808
5.1403e-07
1.27357e-08
0.00103816
1.71675e-06
3.31793e-08
0.00108289
5.26964e-06
8.60546e-08
0.00112655
1.63032e-05
2.06249e-07
0.0011172
6.7658e-05
3.6855e-07
0.000509137
0.000876895
-2.801e-07
0.00186035
-3.83691e-09
0.000853414
2.79933e-08
-4.23e-11
0.000897397
1.88942e-07
8.80189e-10
0.000940219
1.97906e-07
-2.53402e-09
0.000991431
7.77014e-07
1.16519e-08
0.00103752
2.70203e-06
3.47275e-08
0.00108167
8.43163e-06
9.1761e-08
0.00112307
2.65281e-05
2.02828e-07
0.00110114
0.000114201
1.01211e-07
0.000453524
0.00144167
-3.58781e-07
0.00247795
3.53531e-07
0.000853475
4.93409e-08
1.38305e-10
0.000897369
3.32459e-07
1.33195e-09
0.000939945
3.28424e-07
-3.36308e-09
0.000990798
1.13083e-06
8.371e-09
0.00103639
3.89096e-06
2.71962e-08
0.00107968
1.21812e-05
7.14324e-08
0.00111824
3.88e-05
1.76679e-07
0.00108646
0.000168174
1.59636e-07
0.000484648
0.00194907
-5.40126e-07
0.0031013
4.38997e-07
0.000853578
8.36601e-08
1.02148e-10
0.000897318
5.64555e-07
1.13124e-09
0.000939575
4.93462e-07
-3.13275e-09
0.000989959
1.52948e-06
6.07734e-09
0.0010349
5.26735e-06
2.05696e-08
0.00107703
1.66515e-05
5.51099e-08
0.00111248
5.34906e-05
1.40144e-07
0.00107214
0.000229103
1.79831e-07
0.000456947
0.00245645
-4.38921e-07
0.00367465
5.11854e-07
0.000853749
1.35206e-07
7.03809e-11
0.00089727
9.09043e-07
1.00415e-09
0.000939087
6.40191e-07
-3.04631e-09
0.000988896
1.87421e-06
2.09986e-09
0.00103312
6.7289e-06
9.77597e-09
0.00107398
2.1818e-05
2.97896e-08
0.00110584
7.096e-05
8.58298e-08
0.00105636
0.000297071
2.04042e-07
0.000438061
0.00295233
-4.74477e-07
0.00421173
4.6225e-07
0.00085402
2.01318e-07
1.17116e-10
0.000897246
1.34836e-06
5.42666e-10
0.00093856
7.09576e-07
-2.47076e-09
0.000987648
2.11038e-06
-4.27869e-10
0.00103093
8.23848e-06
2.20095e-09
0.00107035
2.76808e-05
1.16952e-08
0.00109824
9.12262e-05
4.58561e-08
0.00103914
0.000372079
1.74531e-07
0.000393662
0.00345485
-4.54555e-07
0.00469371
4.83096e-07
0.000854445
2.6737e-07
1.95771e-10
0.000897285
1.78477e-06
2.60455e-11
0.000938095
7.45596e-07
-2.07689e-09
0.000986101
2.3669e-06
-3.17932e-09
0.00102823
1.00251e-05
-3.67668e-09
0.00106554
3.45632e-05
5.32152e-10
0.00108814
0.000114766
2.97083e-08
0.00102096
0.000450879
2.12026e-07
0.000394356
0.00392977
-3.00843e-07
0.00516214
3.72894e-07
0.000855024
3.19504e-07
3.81064e-10
0.000897417
2.12603e-06
-4.40127e-10
0.000937699
7.47991e-07
-1.84414e-09
0.000984172
2.74692e-06
-3.25015e-09
0.00102479
1.22454e-05
-4.59654e-09
0.00105965
4.25517e-05
-3.46495e-09
0.0010764
0.000141471
9.15603e-09
0.00100276
0.000531458
9.06703e-08
0.000339204
0.00440371
-2.22108e-07
0.00559147
3.15013e-07
0.000855709
4.99903e-10
3.50709e-07
0.000897654
-6.3246e-10
2.24454e-06
0.000937335
-1.73811e-09
7.27966e-07
0.000981834
-2.86042e-09
3.46596e-06
0.00102085
-3.93156e-09
1.4854e-05
0.00105463
-3.57784e-09
5.00738e-05
0.0010687
-2.64381e-10
0.000167754
0.00099153
2.36359e-08
0.000608075
-1.67725e-05
1.14109e-07
0.00514354
-2.19382e-07
0.00566569
0.000853372
5.53946e-09
-1.35177e-05
0.000897447
3.77924e-08
-4.4113e-05
0.000940528
8.03968e-08
-4.31622e-05
0.00099198
2.67828e-07
-5.17098e-05
0.0010385
8.42388e-07
-4.7335e-05
0.00108365
2.52363e-06
-4.76032e-05
0.00112885
7.67837e-06
-5.27217e-05
0.00112716
3.06249e-05
-2.86886e-05
0.000765797
0.000323852
3.27593e-05
0.0011324
-0.00036892
0.000853381
1.41977e-08
-1.35295e-05
0.000897428
9.62651e-08
-4.41059e-05
0.000940417
1.3636e-07
-4.30466e-05
0.000991801
5.12545e-07
-5.16185e-05
0.00103819
1.71657e-06
-4.72391e-05
0.00108297
5.27246e-06
-4.74532e-05
0.00112662
1.63078e-05
-5.20945e-05
0.00111701
6.75228e-05
-2.68214e-05
0.000509047
0.000875535
5.27849e-05
0.00185975
-0.000220115
0.000853409
2.80797e-08
-1.35625e-05
0.000897402
1.89551e-07
-4.40871e-05
0.00094022
1.98793e-07
-4.28822e-05
0.000991416
7.77251e-07
-5.14518e-05
0.00103753
2.70044e-06
-4.70717e-05
0.00108174
8.42188e-06
-4.728e-05
0.00112307
2.64868e-05
-5.13343e-05
0.00110097
0.000113979
-2.41858e-05
0.000453495
0.00144078
7.86977e-05
0.002478
-0.000166156
0.000853469
4.94156e-08
-1.363e-05
0.000897374
3.33084e-07
-4.40489e-05
0.000939946
3.30063e-07
-4.27056e-05
0.000990785
1.1319e-06
-5.11873e-05
0.0010364
3.888e-06
-4.67809e-05
0.00107972
1.21632e-05
-4.70111e-05
0.00111826
3.87229e-05
-5.06306e-05
0.00108632
0.000167795
-2.16811e-05
0.000484053
0.00194788
9.14458e-05
0.00310156
-0.00014082
0.000853573
8.37444e-08
-1.37462e-05
0.000897324
5.65232e-07
-4.39841e-05
0.000939578
4.95226e-07
-4.24205e-05
0.000989949
1.53017e-06
-5.07663e-05
0.00103491
5.26217e-06
-4.63276e-05
0.00107706
1.66254e-05
-4.65823e-05
0.0011125
5.33894e-05
-4.99981e-05
0.00107206
0.000228678
-2.02671e-05
0.000456123
0.00245527
0.000104881
0.00367523
-0.000118753
0.000853745
1.3529e-07
-1.39343e-05
0.000897275
9.09717e-07
-4.38779e-05
0.00093909
6.41943e-07
-4.19612e-05
0.000988891
1.87491e-06
-5.0147e-05
0.00103312
6.72382e-06
-4.56955e-05
0.00107401
2.17932e-05
-4.60556e-05
0.00110588
7.08643e-05
-4.93131e-05
0.00105635
0.000296669
-1.83291e-05
0.000437262
0.00295123
0.000119563
0.0042126
-0.000101391
0.000854016
2.01391e-07
-1.4219e-05
0.00089725
1.34896e-06
-4.36782e-05
0.000938563
7.1125e-07
-4.138e-05
0.000987647
2.11109e-06
-4.93227e-05
0.00103094
8.23462e-06
-4.4814e-05
0.00107036
2.76617e-05
-4.53268e-05
0.00109828
9.11518e-05
-4.823e-05
0.0010392
0.00037179
-1.59619e-05
0.000392365
0.00345395
0.000140436
0.00469481
-9.10864e-05
0.000854443
2.6742e-07
-1.46433e-05
0.000897289
1.78526e-06
-4.32899e-05
0.000938099
7.46828e-07
-4.08404e-05
0.000986109
2.36843e-06
-4.82729e-05
0.00102824
1.00256e-05
-4.39448e-05
0.00106555
3.4559e-05
-4.42641e-05
0.00108819
0.000114742
-4.62832e-05
0.00102105
0.000450746
-1.18974e-05
0.000393292
0.00392903
0.000149168
0.00516346
-7.67455e-05
0.000855023
3.19554e-07
-1.52069e-05
0.00089742
2.12647e-06
-4.2748e-05
0.000937703
7.48905e-07
-4.02754e-05
0.00098418
2.74865e-06
-4.68638e-05
0.0010248
1.22482e-05
-4.28783e-05
0.00105966
4.25565e-05
-4.29296e-05
0.00107643
0.000141478
-4.36053e-05
0.00100284
0.000531447
-7.40498e-06
0.000337521
0.00440333
0.000187431
0.00559248
-9.28635e-05
0.000855709
-1.58685e-05
3.50765e-07
0.000897657
-4.20769e-05
2.24495e-06
0.000937338
-3.96482e-05
7.28696e-07
0.000981841
-4.5229e-05
3.46737e-06
0.00102086
-4.16637e-05
1.48565e-05
0.00105464
-4.13974e-05
5.00786e-05
0.00106872
-4.05005e-05
0.000167763
0.000991615
-1.19767e-08
0.000608093
-1.67045e-05
0.000265399
0.00514302
-9.30462e-05
0.00566666
0.000887875
3.34374e-09
-6.17223e-05
0.000922952
4.24201e-08
-7.92326e-05
0.000960087
1.45656e-07
-8.04446e-05
0.00098582
3.79709e-07
-7.78263e-05
0.00102085
9.99405e-07
-8.3372e-05
0.00105794
2.71332e-06
-8.74152e-05
0.00108633
7.91298e-06
-8.90638e-05
0.00106205
3.1254e-05
-3.55356e-05
0.000807283
0.000306758
-2.21181e-05
0.000864617
-0.000428086
0.000887859
5.79876e-09
-6.17171e-05
0.000922905
1.02176e-07
-7.92124e-05
0.000960157
2.7511e-07
-8.04297e-05
0.000985902
7.58553e-07
-7.77458e-05
0.0010208
2.0551e-06
-8.3202e-05
0.00105741
5.63115e-06
-8.69944e-05
0.00108466
1.64551e-05
-8.79186e-05
0.00105555
6.43486e-05
-3.06933e-05
0.000626634
0.000765692
1.98711e-05
0.00152049
-0.000251121
0.000887817
7.46256e-09
-6.17073e-05
0.000922823
1.90667e-07
-7.91823e-05
0.000960087
4.23285e-07
-8.02955e-05
0.000985795
1.19538e-06
-7.76011e-05
0.00102048
3.27666e-06
-8.29887e-05
0.00105634
9.01233e-06
-8.65361e-05
0.00108192
2.64451e-05
-8.69438e-05
0.00104312
0.000105461
-2.64137e-05
0.000543757
0.00127556
6.54468e-05
0.00213455
-0.000238134
0.000887734
9.87057e-09
-6.16918e-05
0.000922702
3.21476e-07
-7.91491e-05
0.00095969
6.69146e-07
-7.99416e-05
0.000985285
1.77854e-06
-7.73695e-05
0.00101973
4.78276e-06
-8.27469e-05
0.0010547
1.30879e-05
-8.60699e-05
0.0010782
3.85608e-05
-8.62953e-05
0.00103096
0.000155539
-2.44377e-05
0.000540514
0.00174498
0.000109562
0.00271655
-0.000183968
0.000887592
1.60792e-08
-6.16694e-05
0.000922504
5.35313e-07
-7.91125e-05
0.000959119
1.0183e-06
-7.93863e-05
0.000984633
2.51314e-06
-7.70198e-05
0.00101888
6.60297e-06
-8.24062e-05
0.00105275
1.79992e-05
-8.53887e-05
0.00107293
5.32529e-05
-8.4909e-05
0.00101783
0.000212329
-2.20528e-05
0.000517117
0.00221596
0.000131829
0.00326153
-0.000148338
0.000887355
3.54763e-08
-6.16333e-05
0.000922194
8.83476e-07
-7.90685e-05
0.000958351
1.42563e-06
-7.85271e-05
0.000983954
3.25313e-06
-7.6496e-05
0.00101822
8.56561e-06
-8.19447e-05
0.00105089
2.37031e-05
-8.44576e-05
0.00106704
7.09871e-05
-8.32331e-05
0.00100393
0.000276402
-1.94574e-05
0.000496514
0.00268501
0.000155083
0.0037676
-0.000112626
0.000886965
8.00759e-08
-6.15532e-05
0.000921757
1.41016e-06
-7.90034e-05
0.000957422
1.5915e-06
-7.72094e-05
0.000983344
3.73704e-06
-7.57348e-05
0.00101787
1.05333e-05
-8.13238e-05
0.00104913
3.02848e-05
-8.3219e-05
0.00106044
9.21627e-05
-8.07703e-05
0.000989113
0.000347516
-1.59684e-05
0.000480135
0.00315667
0.000174911
0.00423674
-8.18446e-05
0.000886331
1.52454e-07
-6.13706e-05
0.000921312
1.96159e-06
-7.8831e-05
0.000956594
1.95117e-06
-7.64789e-05
0.00098275
4.47288e-06
-7.51711e-05
0.00101665
1.29735e-05
-8.03097e-05
0.00104575
3.80424e-05
-8.11744e-05
0.00105226
0.000116975
-7.76928e-05
0.000974211
0.000424741
-1.13609e-05
0.000461928
0.00361612
0.000199199
0.00467238
-5.21751e-05
0.00088545
2.05873e-07
-6.10329e-05
0.000920794
2.40407e-06
-7.85454e-05
0.000955743
2.29707e-06
-7.55651e-05
0.000982401
5.36455e-06
-7.44208e-05
0.00101538
1.58122e-05
-7.87271e-05
0.00104232
4.66173e-05
-7.85179e-05
0.00104405
0.00014406
-7.25254e-05
0.000960111
0.000503744
-2.82692e-06
0.000465996
0.00407062
0.000224057
0.0050619
-1.81713e-05
0.000884372
-6.05925e-05
2.36647e-07
0.000920222
-7.81888e-05
2.65418e-06
0.000954831
-7.44902e-05
2.53636e-06
0.000982163
-7.35354e-05
6.331e-06
0.00101461
-7.68292e-05
1.84895e-05
0.00104136
-7.51676e-05
5.35504e-05
0.00104396
-6.59409e-05
0.00016676
0.000955985
1.00852e-05
0.000581184
0.000378342
0.000257737
0.00465283
2.83139e-05
0.005317
0.000915135
1.26659e-08
-0.000137436
0.000953226
6.22708e-08
-0.000117388
0.000983073
1.80634e-07
-0.000110475
0.000998344
4.44357e-07
-9.35472e-05
0.000997493
1.07002e-06
-8.36016e-05
0.00099319
2.71206e-06
-8.58432e-05
0.000962506
7.63847e-06
-6.60728e-05
0.000910436
3.09006e-05
-1.43855e-05
0.000828964
0.000288512
-0.000230923
0.0004111
-1.18138e-05
0.000915113
2.6502e-08
-0.000137411
0.000953172
1.39777e-07
-0.000117351
0.000982985
3.86027e-07
-0.000110451
0.000998226
9.29252e-07
-9.3477e-05
0.000997305
2.21715e-06
-8.34393e-05
0.000992905
5.58974e-06
-8.54935e-05
0.000962628
1.54528e-05
-6.55149e-05
0.000909075
5.53096e-05
-1.5677e-06
0.000733461
0.000573315
-9.12919e-05
0.0010925
-0.000200444
0.000915064
4.14299e-08
-0.000137352
0.000953056
2.41721e-07
-0.000117279
0.000982948
6.41898e-07
-0.000110446
0.000998118
1.50859e-06
-9.33574e-05
0.000996925
3.55466e-06
-8.31451e-05
0.000991934
8.90636e-06
-8.48855e-05
0.000960486
2.44993e-05
-6.46091e-05
0.000903027
8.61845e-05
1.51222e-07
0.00061284
0.000969051
-4.22305e-05
0.00158673
-0.000120918
0.000914977
5.88289e-08
-0.000137253
0.000952858
3.81673e-07
-0.000117172
0.000983053
9.87651e-07
-0.000110486
0.000998109
2.25408e-06
-9.31786e-05
0.000996384
5.20385e-06
-8.26853e-05
0.000990284
1.29007e-05
-8.39911e-05
0.000955678
3.55294e-05
-6.27919e-05
0.000894957
0.0001272
-4.7728e-06
0.000605928
0.00137255
-7.13859e-06
0.00209211
-8.4783e-05
0.000914839
8.64874e-08
-0.000137102
0.000952546
6.017e-07
-0.000117043
0.00098324
1.48609e-06
-0.000110583
0.00099819
3.23286e-06
-9.29571e-05
0.000995822
7.26795e-06
-8.21186e-05
0.000988542
1.78332e-05
-8.30713e-05
0.000951962
4.91899e-05
-6.20607e-05
0.000886662
0.0001739
-3.52637e-06
0.000586681
0.00177356
2.85807e-05
0.00256801
-3.89381e-05
0.000914617
1.46959e-07
-0.000136876
0.000952065
9.77138e-07
-0.000116895
0.000983613
2.17005e-06
-0.000110765
0.000998657
4.32688e-06
-9.26437e-05
0.000995651
9.5978e-06
-8.12872e-05
0.000987132
2.36938e-05
-8.18323e-05
0.000947786
6.59095e-05
-6.06657e-05
0.000878057
0.000228505
-4.44607e-06
0.00056598
0.00218434
5.41108e-05
0.00302052
-5.39494e-07
0.000914255
3.03234e-07
-0.000136529
0.000951356
1.62936e-06
-0.000116762
0.000984781
2.53284e-06
-0.000111
0.00100022
5.29899e-06
-9.21551e-05
0.000996364
1.22401e-05
-8.01353e-05
0.000986087
3.08216e-05
-8.01164e-05
0.000944209
8.66096e-05
-5.96581e-05
0.000868707
0.00029147
-3.5886e-06
0.000548289
0.00260102
7.63197e-05
0.00345136
3.41865e-05
0.000913602
5.46662e-07
-0.000135779
0.00095056
2.39249e-06
-0.000116561
0.000983476
3.36093e-06
-0.000110225
0.000998294
6.68359e-06
-9.13863e-05
0.00099389
1.54522e-05
-7.91462e-05
0.000983545
3.93892e-05
-7.94549e-05
0.000939287
0.000111864
-5.87778e-05
0.000859843
0.000364801
-5.46951e-06
0.00053392
0.00302527
9.85067e-05
0.00386298
6.86916e-05
0.000912613
7.17097e-07
-0.000134376
0.000949509
3.01113e-06
-0.000116072
0.000981945
4.1529e-06
-0.000108796
0.000996345
8.19773e-06
-9.03486e-05
0.000991999
1.89319e-05
-7.78962e-05
0.000980897
4.83291e-05
-7.64277e-05
0.000937027
0.000138606
-5.55046e-05
0.000851642
0.000438634
8.45198e-06
0.000523776
0.00344348
0.000131256
0.00426391
0.000103137
0.000911383
-0.000132661
8.46376e-07
0.000948255
-0.000115476
3.41309e-06
0.000980182
-0.000106954
4.68816e-06
0.000994454
-8.90357e-05
9.40964e-06
0.000991297
-7.6345e-05
2.15607e-05
0.000983086
-7.29502e-05
5.42332e-05
0.000949729
-5.02408e-05
0.00015613
0.000854337
3.11096e-05
0.000512656
0.00048962
0.000170681
0.00389269
0.00013556
0.00464463
0.000903182
2.87478e-08
-0.000201093
0.00085847
7.56421e-08
-7.27532e-05
0.000787875
1.81269e-07
-4.00664e-05
0.000757068
4.17744e-07
-6.31658e-05
0.000755946
9.45165e-07
-8.34377e-05
0.000781577
2.18783e-06
-0.00011368
0.000571876
5.77939e-06
0.000137764
0.000610474
2.71556e-05
-8.01755e-05
-5.89712e-05
0.000316198
0.000121455
0.000174931
-0.000246144
0.000903152
6.58046e-08
-0.000201046
0.000858531
1.65828e-07
-7.28221e-05
0.000787783
3.91878e-07
-3.99182e-05
0.000756922
8.95442e-07
-6.31016e-05
0.00075568
2.01921e-06
-8.32854e-05
0.000781544
4.75373e-06
-0.000113945
0.000580205
1.22431e-05
0.00012926
0.000625497
4.27292e-05
-6.25269e-05
0.000403381
0.000382513
6.30786e-05
0.000634934
-0.000257435
0.000903085
1.10911e-07
-0.000200927
0.000858698
2.74759e-07
-7.30032e-05
0.000787542
6.4438e-07
-3.95482e-05
0.000756563
1.46069e-06
-6.29528e-05
0.000755216
3.27089e-06
-8.30647e-05
0.000780658
7.67775e-06
-0.000113275
0.000577709
1.97416e-05
0.000130732
0.000626062
6.32617e-05
-6.88195e-05
0.000258482
0.00062065
8.53655e-05
0.000992408
-0.000219956
0.00090297
1.64078e-07
-0.00020072
0.000858981
4.09467e-07
-7.33204e-05
0.000787082
9.56761e-07
-3.8906e-05
0.000755911
2.14776e-06
-6.27052e-05
0.00075447
4.74111e-06
-8.27326e-05
0.000779628
1.09446e-05
-0.000112439
0.000569996
2.7576e-05
0.000138884
0.000621044
9.50154e-05
-8.76374e-05
0.000243558
0.000889307
9.97909e-05
0.0013478
-0.0001966
0.000902801
2.41001e-07
-0.000200423
0.000859334
6.02027e-07
-7.37717e-05
0.000786279
1.39342e-06
-3.79716e-05
0.000754759
3.07632e-06
-6.23778e-05
0.000753066
6.68194e-06
-8.23862e-05
0.000777468
1.5204e-05