/*--------------------------------*- C++ -*----------------------------------*\
  =========                 |
  \\      /  F ield         | OpenFOAM: The Open Source CFD Toolbox
   \\    /   O peration     | Website:  https://openfoam.org
    \\  /    A nd           | Version:  6.0
     \\/     M anipulation  |
\*---------------------------------------------------------------------------*/
FoamFile
{
    version     2.0;
    format      ascii;
    class       volScalarField;
    location    "3";
    object      T;
}
// * * * * * * * * * * * * * * * * * * * * * * * * * * * * * * * * * * * * * //

dimensions      [0 0 0 1 0 0 0];

internalField   nonuniform List<scalar> 
300
(
1.02827
0.898473
1.07976
1.20841
1.83395
2.63522
2.67096
2.67805
2.69162
2.69396
1.02813
0.898782
1.07951
1.20739
1.83141
2.63198
2.66862
2.67638
2.69131
2.69228
1.02784
0.899322
1.07893
1.20508
1.8263
2.62541
2.66326
2.67139
2.68854
2.68821
1.02737
0.900267
1.07793
1.20158
1.81786
2.61552
2.65582
2.66413
2.68233
2.68315
1.02671
0.901606
1.07648
1.19677
1.80573
2.60181
2.64599
2.65578
2.67439
2.67263
1.0257
0.903503
1.07463
1.19066
1.78957
2.58372
2.63271
2.64243
2.66458
2.66075
1.02457
0.906049
1.07237
1.18337
1.76872
2.5599
2.61702
2.63142
2.64876
2.64365
1.02352
0.909216
1.06977
1.17429
1.74322
2.52945
2.59453
2.61015
2.63548
2.62003
1.0227
0.913586
1.06687
1.16472
1.71087
2.48879
2.57303
2.59248
2.60939
2.5892
1.02152
0.917751
1.06425
1.15645
1.67059
2.4329
2.53526
2.56854
2.58514
2.53913
1.00435
0.982386
1.05906
1.04047
1.58756
2.36233
2.42147
2.46285
2.43648
2.39098
1.00365
1.01689
1.03208
1.10114
1.32372
1.96418
2.26586
2.37651
2.29494
2.27514
1.00342
1.01332
1.01924
1.08856
1.18237
1.52756
2.01875
2.26793
2.25058
2.18297
1.00075
1.00697
1.01145
1.03392
1.10949
1.25769
1.65915
2.02374
2.13143
2.11594
1.00216
0.999672
1.01718
0.952472
1.04924
1.10338
1.39575
1.85632
1.95233
1.96257
1.00041
1.00184
1.00272
1.01119
1.01753
1.06903
1.14517
1.35951
1.64141
1.81252
1.00014
1.00067
0.998576
1.00347
1.00424
1.01898
1.04559
1.08292
1.26892
1.47584
1.00007
1.00031
1.00048
1.00153
1.00282
1.00948
1.01654
1.05048
1.11694
1.27216
1.00011
1.00011
1.0006
1.00063
1.00325
1.00169
1.01711
0.999425
1.0661
1.08945
1.00007
1.00005
1.00039
1.00049
1.00254
1.00296
1.0133
1.01332
1.05209
1.08083
2.11666
2.12283
2.2596
2.36872
2.46651
2.60008
2.67969
2.64609
2.60005
2.60218
2.06731
2.06437
2.11297
2.12028
2.18736
2.24114
2.34112
2.31699
2.27786
2.25257
2.04846
1.97208
1.9774
2.01947
2.04144
2.0807
2.15696
2.12786
2.08956
2.0772
2.00466
1.95297
1.9597
1.99703
1.9563
1.95816
1.97944
1.97119
1.96334
1.96918
1.93387
1.91187
1.9198
1.94031
1.89238
1.86722
1.86982
1.88403
1.87836
1.88122
1.88806
1.91921
1.93376
1.9333
1.87761
1.83371
1.78931
1.78826
1.78055
1.78546
1.8235
1.90355
1.95575
1.94113
1.86898
1.79559
1.73079
1.69951
1.68766
1.69012
1.80846
1.93157
1.96203
1.9379
1.86547
1.7794
1.69536
1.65464
1.61841
1.61654
1.76232
1.99197
1.99097
1.95071
1.86959
1.76961
1.67563
1.61443
1.55529
1.55799
1.78275
2.06873
2.02254
1.97835
1.88923
1.77845
1.67647
1.60957
1.5378
1.53725
)
;

boundaryField
{
    inlet
    {
        type            fixedValue;
        value           uniform 1;
    }
    outlet
    {
        type            inletOutlet;
        inletValue      uniform 1;
        value           nonuniform List<scalar> 10(2.60219 2.25261 2.07724 1.96915 1.88125 1.7855 1.69015 1.6166 1.55805 1.53733);
    }
    top
    {
        type            symmetryPlane;
    }
    bottom
    {
        type            symmetryPlane;
    }
    step
    {
        type            zeroGradient;
    }
    defaultFaces
    {
        type            empty;
    }
}


// ************************************************************************* //
