/*--------------------------------*- C++ -*----------------------------------*\
  =========                 |
  \\      /  F ield         | OpenFOAM: The Open Source CFD Toolbox
   \\    /   O peration     | Website:  https://openfoam.org
    \\  /    A nd           | Version:  6.0
     \\/     M anipulation  |
\*---------------------------------------------------------------------------*/
FoamFile
{
    version     2.0;
    format      ascii;
    class       volVectorField;
    location    "3";
    object      U;
}
// * * * * * * * * * * * * * * * * * * * * * * * * * * * * * * * * * * * * * //

dimensions      [0 1 -1 0 0 0 0];

internalField   nonuniform List<vector> 
300
(
(2.99998 1.07415e-05 0)
(2.99182 6.92124e-05 0)
(3.00575 0.000205302 0)
(2.78385 7.82597e-05 0)
(2.34303 0.00302402 0)
(1.54904 0.00606069 0)
(0.493076 0.0175186 0)
(0.359965 0.0305522 0)
(0.335442 0.0499953 0)
(0.25495 0.054765 0)
(3 3.92532e-05 0)
(2.99189 0.000225415 0)
(3.00577 0.000680144 0)
(2.78467 0.000543084 0)
(2.34542 0.00917844 0)
(1.55265 0.0198861 0)
(0.49492 0.0534467 0)
(0.357652 0.0832886 0)
(0.329535 0.114954 0)
(0.247558 0.110313 0)
(3.00005 6.34006e-05 0)
(2.99204 0.000383955 0)
(3.00588 0.00119888 0)
(2.78638 0.00114664 0)
(2.35166 0.0157696 0)
(1.56319 0.0369086 0)
(0.505902 0.0964752 0)
(0.362886 0.141712 0)
(0.326609 0.185113 0)
(0.23882 0.182398 0)
(3.00013 6.64819e-05 0)
(2.99228 0.00050615 0)
(3.00604 0.00167105 0)
(2.78907 0.00155142 0)
(2.36205 0.0228667 0)
(1.58158 0.0562159 0)
(0.525137 0.14412 0)
(0.373738 0.200931 0)
(0.327325 0.253352 0)
(0.231734 0.260088 0)
(3.00022 4.36816e-05 0)
(2.9926 0.00056216 0)
(3.00627 0.00205214 0)
(2.79283 0.00179469 0)
(2.37726 0.0302742 0)
(1.6088 0.0770987 0)
(0.552343 0.195128 0)
(0.389152 0.260404 0)
(0.331864 0.320173 0)
(0.227439 0.339649 0)
(3.00031 -3.14837e-05 0)
(2.99299 0.000505015 0)
(3.00652 0.0022435 0)
(2.79772 0.00164812 0)
(2.39762 0.0377893 0)
(1.64553 0.0987309 0)
(0.587427 0.248882 0)
(0.408807 0.320744 0)
(0.340577 0.387516 0)
(0.226502 0.422442 0)
(3.00038 -0.000191137 0)
(2.9934 0.000287206 0)
(3.00674 0.00216102 0)
(2.8038 0.00107271 0)
(2.42321 0.0452078 0)
(1.69225 0.120804 0)
(0.630264 0.305055 0)
(0.432531 0.382424 0)
(0.354222 0.456832 0)
(0.229801 0.511465 0)
(3.00039 -0.000486001 0)
(2.99381 -0.000206044 0)
(3.00689 0.00155078 0)
(2.81114 -0.000909825 0)
(2.45481 0.0524093 0)
(1.74967 0.14299 0)
(0.681012 0.362937 0)
(0.460885 0.4455 0)
(0.374202 0.529021 0)
(0.238651 0.610717 0)
(3.00028 -0.000890325 0)
(2.99413 -0.00092635 0)
(3.00667 0.000750647 0)
(2.81971 -0.00331277 0)
(2.49098 0.0584367 0)
(1.8169 0.168871 0)
(0.735526 0.421294 0)
(0.492669 0.509763 0)
(0.402324 0.604157 0)
(0.255243 0.726781 0)
(3.00006 -0.00183257 0)
(2.99441 -0.00208032 0)
(3.00629 0.00161831 0)
(2.82936 -0.00967558 0)
(2.53584 0.0622139 0)
(1.89571 0.207548 0)
(0.790267 0.48031 0)
(0.527625 0.573446 0)
(0.441961 0.679665 0)
(0.283223 0.872022 0)
(2.99882 -0.00207566 0)
(2.99685 -0.00226539 0)
(3.00219 -0.00404481 0)
(2.85793 -0.01983 0)
(2.6962 0.064601 0)
(2.13443 0.199295 0)
(0.98625 0.583564 0)
(0.732499 0.700679 0)
(0.743746 0.815202 0)
(0.73526 1.03402 0)
(2.9975 -0.00072415 0)
(2.99044 -0.000349119 0)
(2.98687 -0.0033267 0)
(2.90848 -0.0115994 0)
(2.82939 0.0685653 0)
(2.44506 0.132552 0)
(1.33642 0.568051 0)
(0.963368 0.741633 0)
(0.955459 0.847985 0)
(1.02401 0.949157 0)
(2.99818 0.000362656 0)
(2.99342 0.000910685 0)
(2.98748 0.0068046 0)
(2.94943 0.00302078 0)
(2.91016 0.0537774 0)
(2.64931 0.0990944 0)
(1.8025 0.441165 0)
(1.30894 0.736067 0)
(1.18347 0.857673 0)
(1.21211 0.931155 0)
(2.99867 0.00062918 0)
(2.99888 0.000617276 0)
(2.98961 0.00475227 0)
(2.96932 0.00801223 0)
(2.96222 0.0368135 0)
(2.80221 0.0757449 0)
(2.33251 0.274591 0)
(1.80379 0.641821 0)
(1.50917 0.82436 0)
(1.45705 0.926018 0)
(2.99913 0.000266018 0)
(2.99892 0.00076697 0)
(2.99733 0.000327867 0)
(2.99277 0.00716414 0)
(2.99887 0.0184904 0)
(2.89436 0.0286715 0)
(2.74122 0.151313 0)
(2.38871 0.400785 0)
(1.87276 0.750092 0)
(1.72872 0.898788 0)
(2.99978 -4.51872e-05 0)
(2.99903 0.000624728 0)
(2.99816 0.000600332 0)
(2.99399 0.00230192 0)
(2.98996 0.00589984 0)
(2.95788 -0.000707487 0)
(2.92101 0.0744732 0)
(2.76573 0.166466 0)
(2.34487 0.498333 0)
(2.08524 0.756624 0)
(2.99992 5.92986e-05 0)
(2.99978 0.000117392 0)
(2.99956 0.00066703 0)
(2.99989 0.00128699 0)
(2.99534 0.00450094 0)
(2.9854 0.0074399 0)
(2.98208 0.0319863 0)
(2.92305 0.0593423 0)
(2.78896 0.196263 0)
(2.56228 0.447063 0)
(2.99995 4.80801e-05 0)
(2.99984 2.43572e-05 0)
(2.99972 0.000149463 0)
(2.99909 0.000137981 0)
(2.99815 -0.000161462 0)
(2.99459 0.00244269 0)
(2.99204 0.00872341 0)
(2.96472 0.0135998 0)
(2.93075 0.0568951 0)
(2.81846 0.13444 0)
(2.99996 9.79401e-06 0)
(2.99991 2.3243e-05 0)
(2.99972 6.80534e-05 0)
(2.99948 5.47058e-05 0)
(2.99843 0.000438787 0)
(2.99728 0.00046129 0)
(2.99709 0.00285983 0)
(2.98591 0.00159793 0)
(2.97613 0.0191849 0)
(2.91265 0.0397566 0)
(2.99999 -5.79982e-06 0)
(2.99992 2.18735e-05 0)
(2.99976 -2.92182e-06 0)
(2.99958 5.28363e-05 0)
(2.99869 7.22353e-05 0)
(2.99783 0.000248778 0)
(2.99358 0.000481932 0)
(2.98635 -0.00241153 0)
(2.98396 0.000767636 0)
(2.91898 0.00326265 0)
(1.57737 0.852264 0)
(1.7693 0.546239 0)
(1.70335 0.207471 0)
(1.57708 -0.0541465 0)
(1.41211 -0.110528 0)
(1.20289 -0.0301641 0)
(1.17582 -0.0292119 0)
(1.26039 -0.0263399 0)
(1.33365 -0.0160186 0)
(1.42211 0.00293031 0)
(1.63287 0.661207 0)
(1.80069 0.278948 0)
(1.80512 -0.0185016 0)
(1.78 -0.211809 0)
(1.70599 -0.244932 0)
(1.57763 -0.16019 0)
(1.55236 -0.0988026 0)
(1.61955 -0.0658604 0)
(1.67333 -0.0261295 0)
(1.73841 0.0169873 0)
(1.65068 0.656065 0)
(1.83658 0.345639 0)
(1.88655 0.135163 0)
(1.87623 -0.0660066 0)
(1.84434 -0.240667 0)
(1.79067 -0.289266 0)
(1.78496 -0.175386 0)
(1.84136 -0.10517 0)
(1.88663 -0.0301721 0)
(1.9363 0.0354696 0)
(1.69781 0.75248 0)
(1.86526 0.464156 0)
(1.9237 0.195475 0)
(1.92502 -0.0861041 0)
(1.93343 -0.318122 0)
(1.94625 -0.408212 0)
(1.96887 -0.296238 0)
(2.01409 -0.17296 0)
(2.05234 -0.0548288 0)
(2.08984 0.0478046 0)
(1.77444 0.832 0)
(1.89133 0.526443 0)
(1.94539 0.212531 0)
(1.96074 -0.0937505 0)
(1.9989 -0.338999 0)
(2.05486 -0.442979 0)
(2.1101 -0.375 0)
(2.15722 -0.228035 0)
(2.18834 -0.079806 0)
(2.21871 0.0591516 0)
(1.8831 0.839204 0)
(1.92113 0.600988 0)
(1.97122 0.242685 0)
(2.00033 -0.0924852 0)
(2.05741 -0.34038 0)
(2.13814 -0.432091 0)
(2.21805 -0.393103 0)
(2.27352 -0.263396 0)
(2.30374 -0.107889 0)
(2.33217 0.055095 0)
(2.02024 0.781719 0)
(1.96476 0.570837 0)
(1.98543 0.243894 0)
(2.02753 -0.090392 0)
(2.10307 -0.316865 0)
(2.20264 -0.38442 0)
(2.29714 -0.357005 0)
(2.36285 -0.26516 0)
(2.3953 -0.124393 0)
(2.42874 0.0299982 0)
(2.10721 0.745668 0)
(1.98146 0.47665 0)
(1.99811 0.180883 0)
(2.04171 -0.0809217 0)
(2.13035 -0.244143 0)
(2.24684 -0.292884 0)
(2.35069 -0.279004 0)
(2.42757 -0.226613 0)
(2.46836 -0.119512 0)
(2.50264 0.000507404 0)
(2.17036 0.566228 0)
(1.96647 0.36014 0)
(1.99782 0.1372 0)
(2.05541 -0.0442051 0)
(2.1572 -0.14294 0)
(2.28167 -0.173696 0)
(2.3871 -0.172381 0)
(2.46923 -0.148451 0)
(2.51732 -0.0933724 0)
(2.55363 -0.0173558 0)
(2.15894 0.146547 0)
(1.89878 0.140164 0)
(1.94581 0.0628294 0)
(2.01815 1.49932e-05 0)
(2.13635 -0.034703 0)
(2.27225 -0.0490475 0)
(2.38477 -0.0533552 0)
(2.4736 -0.0491965 0)
(2.52945 -0.0345622 0)
(2.56979 -0.00763379 0)
)
;

boundaryField
{
    inlet
    {
        type            fixedValue;
        value           uniform (3 0 0);
    }
    outlet
    {
        type            inletOutlet;
        inletValue      uniform (3 0 0);
        value           nonuniform List<vector> 10((1.42211 0.00293031 0) (1.73841 0.0169873 0) (1.9363 0.0354696 0) (2.08984 0.0478046 0) (2.21871 0.0591516 0) (2.33217 0.055095 0) (2.42874 0.0299982 0) (2.50264 0.000507404 0) (2.55363 -0.0173558 0) (2.56979 -0.00763379 0));
    }
    top
    {
        type            symmetryPlane;
    }
    bottom
    {
        type            symmetryPlane;
    }
    step
    {
        type            slip;
    }
    defaultFaces
    {
        type            empty;
    }
}


// ************************************************************************* //
