/*--------------------------------*- C++ -*----------------------------------*\
  =========                 |
  \\      /  F ield         | OpenFOAM: The Open Source CFD Toolbox
   \\    /   O peration     | Website:  https://openfoam.org
    \\  /    A nd           | Version:  6.0
     \\/     M anipulation  |
\*---------------------------------------------------------------------------*/
FoamFile
{
    version     2.0;
    format      ascii;
    class       volScalarField;
    location    "0.999563";
    object      p;
}
// * * * * * * * * * * * * * * * * * * * * * * * * * * * * * * * * * * * * * //

dimensions      [1 -1 -2 0 0 0 0];

internalField   nonuniform List<scalar> 
2700
(
1
1
1
1
1
1
1
1
1
1
1
1
1
1
1
1
1.46719
7.92663
10.6475
10.6422
10.8234
11.259
11.7929
11.9415
11.8382
11.7943
11.9332
12.1068
11.9205
11.7103
1
1
1
1
1
1
1
1
1
1
1
1
1
1
1
1
1.4585
7.89495
10.6598
10.7526
11.0151
11.266
11.4471
11.6353
11.7833
11.9102
12.1339
12.2952
12.1032
11.9791
1
1
1
1
1
1
1
1
1
1
1
1
1
1
1
1
1.44588
7.86369
10.6684
10.8412
11.081
11.2459
11.2662
11.3086
11.4285
11.5986
11.7977
12.0342
12.2066
12.2633
1
1
1
1
1
1
1
1
1
1
1
1
1
1
1
1
1.4278
7.81366
10.6952
10.8604
11.0744
11.2469
11.2917
11.4209
11.8889
12.2426
12.2053
11.8826
12.1682
12.4458
1
1
1
1
1
1
1
1
1
1
1
1
1
1
1
1
1.406
7.73117
10.6634
10.8354
11.0708
11.2239
11.4079
11.9229
12.3627
12.4374
12.1395
11.8329
11.978
12.3973
1
1
1
1
1
1
1
1
1
1
1
1
1
1
1
1
1.37472
7.62595
10.6173
10.7437
10.9997
11.1748
11.5193
12.051
12.3868
12.4251
12.1686
11.9721
11.9384
12.2016
1
1
1
1
1
1
1
1
1
1
1
1
1
1
1
1
1.33311
7.51345
10.6437
10.5932
10.7811
11.1877
11.6432
11.8161
11.866
11.8397
12.0464
12.3157
12.093
12.0516
1
1
1
1
1
1
1
1
1
1
1
1
1
1
1
1
1.28084
7.37405
10.6726
10.5112
10.6174
11.2082
11.7201
11.5972
11.2334
11.2372
11.8245
12.393
12.439
12.0095
1
1
1
1
1
1
1
1
1
1
1
1
1
1
1
1
1.2241
7.19509
10.6581
10.5565
10.8348
11.2217
11.6041
11.5264
11.1018
11.083
11.7878
12.5227
12.4432
12.048
1
1
1
1
1
1
1
1
1
1
1
1
1
1
1
1
1.16061
7.02371
10.5918
10.7414
11.0644
11.2535
11.3029
11.3243
11.3558
11.7552
12.1749
12.2531
12.1102
12.205
1
1
1
1
1
1
1
1
1
1
1
1
1
1
1
1
1.07687
6.85551
10.6281
10.8995
11.1211
11.1824
10.9935
10.9914
11.8001
12.4974
12.3299
11.7339
11.7772
12.3822
1
1
1
1
1
1
1
1
1
1
1
1
1
1
1
1
1.00761
6.65921
10.6785
10.9009
11.0811
10.9896
10.7848
11.151
12.1161
12.3559
11.8443
11.1591
11.5794
12.5601
1
1
1
1
1
1
1
1
1
1
1
1
1
1
1
1
1.00012
6.41218
10.7007
10.8108
10.8421
10.873
11.0125
11.7946
12.0482
11.8379
11.2732
11.151
11.6334
12.5734
1
1
1
1
1
1
1
1
1
1
1
1
1
1
1
1
1
6.12738
10.677
10.6361
10.6097
10.7651
11.6303
11.9704
11.9339
11.2753
10.8991
11.1067
11.7904
12.4352
1
1
1
1
1
1
1
1
1
1
1
1
1
1
1
1
1
5.84053
10.5501
10.4251
10.5152
11.1526
11.7729
11.9313
11.4751
11.0918
11.4249
11.836
12.0471
11.4119
1
1
1
1
1
1
1
1
1
1
1
1
1
1
1
1
1
5.54645
10.3706
10.3503
10.8108
11.4612
11.6765
11.6041
10.9378
11.1314
12.2819
12.6562
11.9574
10.9096
1
1
1
1
1
1
1
1
1
1
1
1
1
1
1
1
1
5.23704
10.2059
10.607
11.0913
11.4591
11.5308
11.0106
10.6161
11.0382
12.2636
12.7325
11.6881
10.562
1
1
1
1
1
1
1
1
1
1
1
1
1
1
1
1
1
4.9486
10.1796
10.8125
11.1654
11.3053
11.1786
10.6271
10.7818
11.5784
11.8195
12.3793
11.4483
10.8955
1
1
1
1
1
1
1
1
1
1
1
1
1
1
1
1
1
4.67637
10.1693
10.8838
11.1243
11.006
10.4839
10.5883
11.3002
11.7242
11.4794
10.8043
11.2937
12.2946
1
1
1
1
1
1
1
1
1
1
1
1
1
1
1
1
1
4.44591
10.1551
10.9239
10.9472
10.4729
10.31
10.6471
11.5102
11.7574
11.1182
10.3757
11.3025
12.6102
1
1
1
1
1
1
1
1
1
1
1
1
1
1
1
1
1
4.24374
10.1857
10.9105
10.5375
10.2862
10.3372
10.9758
11.5352
11.5305
10.8371
10.3499
11.3589
12.3805
1
1
1
1
1
1
1
1
1
1
1
1
1
1
1
1
1
3.95185
10.1185
10.7423
10.3116
10.1962
10.4265
11.2705
11.5731
11.8064
11.6585
10.9937
11.0918
11.4784
1
1
1
1
1
1
1
1
1
1
1
1
1
1
1
1
1
3.57279
9.8746
10.3831
10.1812
10.3075
11.1062
11.4371
11.6
11.8481
11.904
11.565
10.7106
10.2603
1
1
1
1
1
1
1
1
1
1
1
1
1
1
1
1
1
3.11591
9.43883
10.1305
10.0996
10.7623
11.434
11.5037
11.4207
11.4471
11.6191
11.4109
10.5393
9.77922
1
1
1
1
1
1
1
1
1
1
1
1
1
1
1
1
1
2.67471
9.02004
9.96515
10.2446
11.2471
11.5517
11.4958
11.0602
9.8074
10.0523
10.8037
10.3612
9.4584
1
1
1
1
1
1
1
1
1
1
1
1
1
1
1
1
1
2.23181
8.52293
10.1263
10.9051
11.3388
11.575
11.3514
10.2226
9.28215
9.48001
10.0949
10.3232
10.9156
1
1
1
1
1
1
1
1
1
1
1
1
1
1
1
1
1
1.88023
8.38698
10.7097
11.2363
11.4391
11.3531
10.7075
9.50109
9.34673
9.23038
9.68086
11.7529
12.5206
1
1
1
1
1
1
1
1
1
1
1
1
1
1
1
1
1
1.6434
8.54865
10.987
10.9868
11.1261
11.0133
9.73094
9.24373
9.46202
10.6537
11.2829
11.5808
12.015
1
1
1
1
1
1
1
1
1
1
1
1
1
1
1
1
1
1.42374
8.259
10.7998
10.7048
10.8542
9.66074
9.49747
9.78287
11.5312
11.749
11.366
10.5867
11.2422
1
1
1
1
1
1
1
1
1
1
1
1
1
1
1
1
1
1.22196
7.85159
10.7677
10.3903
9.95665
9.30495
9.53442
11.156
11.6265
11.3791
10.8319
9.78743
8.13277
1
1
1
1
1
1
1
1
1
1
1
1
1
1
1
1
1
1.01405
6.20803
10.1239
9.91459
9.84955
10.1282
10.5635
10.8551
10.687
10.0437
9.3167
8.04972
5.79821
1
1
1
1
1
1
1
1
1
1
1
1
1
1
1
1
1
1.00005
3.7067
9.29617
9.99391
10.2302
10.3214
10.2328
9.92687
9.47718
9.02646
8.46836
7.77993
6.25696
1
1
1
1
1
1
1
1
1
1
1
1
1
1
1
1
1
1
1.61703
7.92855
10.0756
9.96068
9.84829
9.69221
9.42115
9.15768
8.85036
8.3787
7.45902
6.11585
1
1
1
1
1
1
1
1
1
1
1
1
1
1
1
1
1
1
1.02534
5.26063
9.56098
9.50641
9.38316
9.32417
9.25031
9.01751
8.60313
7.93965
6.9367
5.92632
1
1
1
1
1
1
1
1
1
1
1
1
1
1
1
1
1
1
1.00004
2.12772
8.19563
9.36695
9.21223
9.1261
8.92923
8.61979
8.23776
7.62626
6.78594
5.93556
1
1
1
1
1
1
1
1
1
1
1
1
1
1
1
1
1
1
0.999999
1.05887
5.217
9.05665
9.08963
8.82212
8.53556
8.26185
7.92641
7.41943
6.74317
6.03284
1
1
1
1
1
1
1
1
1
1
1
1
1
1
1
1
1
1
1
1.00019
1.73572
7.51829
8.98098
8.64997
8.371
8.05894
7.67492
7.22966
6.70416
6.11302
1
1
1
1
1
1
1
1
1
1
1
1
1
1
1
1
1
1
1
1
1.02502
3.93588
8.26224
8.44824
8.14769
7.82851
7.43556
7.0516
6.62947
6.13011
1
1
1
1
1
1
1
1
1
1
1
1
1
1
1
1
1
1
1
1
1.00006
1.33736
5.7962
8.37744
8.10706
7.75699
7.36593
6.97041
6.56398
6.12779
1
1
1
1
1
1
1
1
1
1
1
1
1
1
1
1
1
1
1
1
1
1.00559
2.05962
6.7682
8.0857
7.70366
7.35862
6.96703
6.56698
6.16518
1
1
1
1
1
1
1
1
1
1
1
1
1
1
1
1
1
1
1
1
1
1.00001
1.04934
2.93052
7.18268
7.7301
7.33471
6.96695
6.57649
6.19192
1
1
1
1
1
1
1
1
1
1
1
1
1
1
1
1
1
1
1
1
1
1
1.0003
1.15894
3.82814
7.13029
7.42721
7.00359
6.63919
6.27977
1
1
1
1
1
1
1
1
1
1
1
1
1
1
1
1
1
1
1
1
1
1
1
1.00182
1.35109
4.40497
6.93847
7.08267
6.68098
6.35052
1
1
1
1
1
1
1
1
1
1
1
1
1
1
1
1
1
1
1
1
1
1
1
1
1.00678
1.5604
4.6384
6.71985
6.76499
6.4198
1
1
1
1
1
1
1
1
1
1
1
1
1
1
1
1
1
1
1
1
1
1
1
1
1.00002
1.01585
1.70443
4.65344
6.41428
6.50539
1
1
1
1
1
1
1
1
1
1
1
1
1
1
1
1
1
1
1
1
1
1
1
1
1
1.00007
1.02493
1.75685
4.41651
6.23091
1
1
1
1
1
1
1
1
1
1
1
1
1
1
1
1
1
1
1
1
1
1
1
1
1
1
1.00013
1.02949
1.69066
4.42635
1
1
1
1
1
1
1
1
1
1
1
1
1
1
1
1
1
1
1
1
1
1
1
1
1
1
1
1.00019
1.02479
1.79758
1
1
1
1
1
1
1
1
1
1
1
1
1
1
1
1
1
1
1
1
1
1
1
1
1
1
1
1
1.00015
1.03361
1
1
1
1
1
1
1
1
1
1
1
1
1
1
1
1
1
1
1
1
1
1
1
1
1
1
1
1
1
1.00009
1
1
1
1
1
1
1
1
1
1
1
1
1
1
1
1
1
1
1
1
1
1
1
1
1
1
1
1
1
1
1
1
1
1
1
1
1
1
1
1
1
1
1
1
1
1
1
1
1
1
1
1
1
1
1
1
1
1
1
1
1
1
1
1
1
1
1
1
1
1
1
1
1
1
1
1
1
1
1
1
1
1
1
1
1
1
1
1
1
1
1
1
1
1
1
1
1
1
1
1
1
1
1
1
1
1
1
1
1
1
1
1
1
1
1
1
1
1
1
1
1
1
1
1
1
1
1
1
1
1
1
1
1
1
1
1
1
1
1
1
1
1
1
1
1
1
1
1
1
1
1
1
1
1
1
1
1
1
1
1
1
1
1
1
1
1
1
1
1
1
1
1
1
1
1
1
1
1
1
1
1
1
1
1
1
1
1
1
1
1
1
1
1
1
1
1
1
1
1
1
1
1
1
1
1
1
1
1
1
1
1
1
1
1
1
1
1
1
1
1
1
1
1
1
1
1
1
1
1
1
1
1
1
1
1
1
1
1
1
1
1
1
1
1
1
1
1
1
1
1
1
1
1
1
1
1
1
1
1
1
1
1
1
1
1
1
1
1
1
1
1
1
1
1
1
1
1
1
1
1
1
1
1
1
1
1
1
1
1
1
1
1
1
1
1
1
1
1
1
1
0.945733
0.655463
0.8044
0.991466
1.08665
1.13619
1.13142
1.12645
1.11868
1.09429
1.07441
1.03397
0.979818
0.937583
0.911922
0.895073
0.872682
0.853617
0.83838
0.828915
0.828847
0.831457
0.834889
0.843231
0.857258
0.866131
0.870855
0.877685
0.886547
0.910151
2.38571
1.0516
0.847789
0.912405
1.02049
1.09539
1.10647
1.11708
1.11336
1.09575
1.08069
1.03854
0.985484
0.942942
0.908929
0.886103
0.866529
0.851351
0.841576
0.8363
0.836599
0.834956
0.836323
0.840549
0.848834
0.860875
0.874994
0.888336
0.8993
0.922473
3.03734
1.37971
0.881735
0.881923
0.967878
1.06988
1.0865
1.0906
1.09478
1.08763
1.07979
1.03961
0.991268
0.954425
0.921191
0.892434
0.867288
0.850267
0.840821
0.837666
0.841327
0.846802
0.849518
0.852954
0.856682
0.865797
0.877868
0.891872
0.904496
0.92917
3.59522
1.79754
1.16681
0.913939
0.92076
0.992981
1.06661
1.08747
1.08643
1.0815
1.07058
1.03604
0.993367
0.958047
0.924121
0.893426
0.867555
0.850014
0.841132
0.837398
0.836553
0.840681
0.84463
0.847382
0.85063
0.860186
0.870584
0.883527
0.897426
0.92131
4.04466
2.19238
1.47436
0.999094
0.938195
0.96731
1.05078
1.10996
1.11076
1.09675
1.06785
1.02679
0.985773
0.950228
0.916736
0.882764
0.856745
0.843598
0.838767
0.839234
0.840595
0.83936
0.842447
0.842079
0.843508
0.855202
0.86796
0.883412
0.899078
0.923787
4.34082
2.61967
1.77061
1.25078
1.00331
0.999549
1.03087
1.07085
1.08527
1.08547
1.06682
1.02967
0.991879
0.95533
0.921438
0.883248
0.853825
0.839018
0.833668
0.835307
0.837937
0.834397
0.836061
0.833532
0.83595
0.8463
0.857831
0.872227
0.887296
0.914418
4.5721
3.00776
2.07041
1.50288
1.08429
1.04295
1.02403
1.02122
1.04152
1.05198
1.04423
1.03074
1.00951
0.979051
0.944487
0.904236
0.867199
0.844493
0.834147
0.833564
0.832953
0.824963
0.824125
0.828578
0.84036
0.862062
0.876204
0.883504
0.887387
0.902779
4.75787
3.31272
2.35148
1.73383
1.26334
1.11645
1.02966
0.977315
0.991424
1.00925
1.01891
1.01351
0.997668
0.971794
0.938685
0.898808
0.8629
0.842413
0.835544
0.83663
0.835288
0.82974
0.83912
0.874205
0.94006
1.02562
1.05718
1.05127
1.01244
0.968949
4.92372
3.54411
2.59102
1.9466
1.46409
1.19014
1.0647
0.974538
0.950415
0.964882
0.988955
0.994104
0.982147
0.958601
0.92667
0.884358
0.850844
0.835527
0.832483
0.840074
0.85216
0.891926
1.00062
1.15432
1.29766
1.39586
1.43435
1.424
1.38927
1.26467
5.07104
3.72336
2.79477
2.15472
1.66049
1.31515
1.15801
1.00658
0.932609
0.935258
0.96207
0.971511
0.958343
0.936836
0.907066
0.875847
0.84598
0.83141
0.834065
0.86217
0.971071
1.19414
1.4165
1.55069
1.59743
1.61014
1.62955
1.63446
1.65399
1.58493
5.17956
3.877
2.971
2.36515
1.85836
1.46175
1.23937
1.05147
0.926502
0.933833
0.95066
0.93375
0.918576
0.906819
0.894155
0.874333
0.848459
0.840798
0.882
1.06525
1.37924
1.60496
1.69093
1.6944
1.65998
1.63709
1.63326
1.64102
1.6658
1.6539
5.31534
4.03171
3.15911
2.56469
2.03435
1.59732
1.34314
1.15209
0.959367
0.944988
0.937288
0.892226
0.877208
0.879873
0.887117
0.881209
0.869254
0.919395
1.17872
1.56113
1.75675
1.76654
1.73273
1.68802
1.63414
1.5983
1.57841
1.57423
1.58441
1.59876
5.44791
4.21216
3.35856
2.75304
2.19509
1.71592
1.44872
1.2567
1.03339
0.961909
0.940449
0.888112
0.868409
0.872197
0.882653
0.89042
0.957208
1.27438
1.70094
1.89841
1.85116
1.77153
1.71296
1.64182
1.56928
1.53075
1.50012
1.48721
1.49281
1.53119
5.57405
4.41564
3.54994
2.90958
2.33485
1.83125
1.55362
1.36039
1.15059
1.01106
0.96281
0.898847
0.863312
0.865187
0.879238
0.949006
1.29872
1.76736
1.97329
1.92219
1.82462
1.71797
1.62243
1.54304
1.48773
1.46067
1.43932
1.43238
1.44628
1.4852
5.68605
4.62624
3.72614
3.03229
2.45972
1.94702
1.64962
1.46597
1.26348
1.07465
0.992434
0.918368
0.870735
0.865604
0.908122
1.23079
1.76222
1.98642
1.95583
1.87923
1.72279
1.60604
1.52344
1.46696
1.42466
1.39859
1.39108
1.39202
1.39332
1.38216
5.85403
4.82793
3.8693
3.13571
2.5891
2.08788
1.76274
1.57028
1.36012
1.14783
1.04866
0.967728
0.902806
0.909161
1.14084
1.72267
1.96911
1.97248
1.90229
1.76775
1.60078
1.50723
1.45125
1.40602
1.3768
1.35633
1.35019
1.34756
1.34706
1.32815
5.81835
5.0439
3.97404
3.22498
2.7264
2.23207
1.87194
1.66897
1.4602
1.24742
1.11673
1.00786
0.942058
1.08601
1.66013
1.99797
2.00506
1.91986
1.77823
1.63826
1.51511
1.43678
1.39988
1.37364
1.35262
1.32195
1.31379
1.31047
1.31426
1.29534
5.43723
5.04172
4.12361
3.34644
2.87576
2.394
2.00348
1.7692
1.55444
1.33848
1.1742
1.07257
1.1192
1.58428
2.08427
2.08142
1.97942
1.80614
1.65861
1.53934
1.44969
1.3998
1.37413
1.35492
1.34437
1.30553
1.28374
1.26174
1.25352
1.23956
4.40804
4.80031
4.23318
3.50718
3.01773
2.54003
2.13058
1.87204
1.65366
1.42712
1.23767
1.21627
1.59684
2.19031
2.25534
2.11645
1.9014
1.7052
1.58384
1.47607
1.41522
1.37682
1.35129
1.34624
1.30435
1.26642
1.22491
1.21289
1.19627
1.16729
3.43255
4.80401
4.38639
3.70677
3.16235
2.67585
2.25822
1.97533
1.7466
1.48852
1.36633
1.62951
2.39448
2.55296
2.35899
2.08691
1.85277
1.65013
1.55191
1.47002
1.38468
1.32533
1.27977
1.26993
1.24374
1.18797
1.16598
1.15153
1.12163
1.10496
2.18604
4.63645
4.5167
3.90779
3.29879
2.80774
2.38565
2.08549
1.81211
1.57092
1.68291
2.49277
2.97877
2.74295
2.38273
2.08041
1.84103
1.68195
1.56704
1.46888
1.3681
1.27719
1.22203
1.20785
1.17492
1.12249
1.10166
1.07777
1.04686
1.04943
1.34441
4.03676
4.53453
4.0447
3.43137
2.93924
2.51174
2.17833
1.87468
1.8309
2.55814
3.37323
3.20401
2.85924
2.44547
2.12015
1.87413
1.69997
1.56249
1.44284
1.33882
1.23729
1.17601
1.14249
1.09571
1.04852
1.03189
1.01754
0.992794
1.00761
1.0263
3.25574
4.36638
4.12037
3.60322
3.09771
2.65614
2.24586
2.05296
2.57596
3.62797
3.66918
3.30077
2.87583
2.49473
2.18948
1.92602
1.72576
1.56447
1.42396
1.30736
1.20431
1.14817
1.09718
1.04201
1.00121
0.983776
0.977463
0.961448
0.981818
1.00041
2.22937
4.14869
4.22662
3.76177
3.23396
2.71923
2.34122
2.62799
3.91375
4.32838
3.96892
3.42176
2.90288
2.52375
2.24142
1.98464
1.76842
1.58643
1.43413
1.30308
1.19738
1.13369
1.07434
1.01605
0.979274
0.958267
0.947592
0.932153
0.947004
1
1.40967
3.61484
4.15987
3.85159
3.36336
2.76796
2.76323
4.01632
4.94964
4.56418
4.01018
3.42686
2.91447
2.54346
2.26228
2.01325
1.79308
1.59927
1.43018
1.30315
1.20596
1.13467
1.07062
1.01425
0.975783
0.950535
0.924826
0.900902
0.903561
1
1.06681
2.74298
4.01208
3.95903
3.46776
3.11151
4.06861
5.70402
5.42684
4.69471
3.95578
3.38945
2.93137
2.58007
2.29557
2.03975
1.81386
1.61724
1.45073
1.3094
1.24773
1.17657
1.09973
1.0396
0.996675
0.958911
0.911463
0.878723
0.870667
1
1.00517
1.78017
3.69799
3.92227
3.60022
4.25005
6.11793
6.23464
5.53621
4.71389
4.00876
3.51811
3.09049
2.66744
2.33581
2.09544
1.88968
1.69962
1.52381
1.35732
1.23167
1.14108
1.06702
1.01301
0.968269
0.927699
0.890127
0.860964
0.846108
1
1.0002
1.19053
3.04497
3.62282
4.36262
6.87664
7.49485
6.66111
5.5952
4.74769
4.06968
3.51724
3.04281
2.66031
2.35133
2.10201
1.87985
1.6817
1.50721
1.36511
1.24082
1.1415
1.06533
1.01115
0.965833
0.924397
0.885012
0.853804
0.83714
1
1
1.02287
2.05266
3.70704
6.57812
8.17571
7.80785
6.82141
5.69759
4.81371
4.11215
3.54179
3.0986
2.74426
2.44457
2.17636
1.9371
1.7256
1.54704
1.40547
1.28153
1.17873
1.10072
1.0408
0.989493
0.943267
0.899825
0.863469
0.842837
1
1
1.00138
1.34754
4.66539
9.18474
9.82293
8.15338
6.81818
5.73292
4.82491
4.08611
3.47438
2.99532
2.64496
2.35555
2.09374
1.86189
1.654
1.48274
1.34496
1.22661
1.12929
1.05466
0.998889
0.950743
0.905155
0.862997
0.82916
0.811524
)
;

boundaryField
{
    inlet
    {
        type            fixedValue;
        value           uniform 1;
    }
    outlet
    {
        type            zeroGradient;
    }
    top
    {
        type            symmetryPlane;
    }
    bottom
    {
        type            symmetryPlane;
    }
    step
    {
        type            zeroGradient;
    }
    defaultFaces
    {
        type            empty;
    }
}


// ************************************************************************* //
