/*--------------------------------*- C++ -*----------------------------------*\
  =========                 |
  \\      /  F ield         | OpenFOAM: The Open Source CFD Toolbox
   \\    /   O peration     | Website:  https://openfoam.org
    \\  /    A nd           | Version:  6.0
     \\/     M anipulation  |
\*---------------------------------------------------------------------------*/
FoamFile
{
    version     2.0;
    format      ascii;
    class       volScalarField;
    location    "0.999563";
    object      rho;
}
// * * * * * * * * * * * * * * * * * * * * * * * * * * * * * * * * * * * * * //

dimensions      [1 -3 0 0 0 0 0];

internalField   nonuniform List<scalar> 
2700
(
1.39997
1.39997
1.39997
1.39997
1.39997
1.39997
1.39997
1.39997
1.39997
1.39997
1.39997
1.39997
1.39997
1.39997
1.39997
1.39997
1.65435
4.50872
5.47827
5.42486
5.45195
5.58119
5.75805
5.81065
5.7749
5.74831
5.75831
5.73922
5.58552
5.47019
1.39997
1.39997
1.39997
1.39997
1.39997
1.39997
1.39997
1.39997
1.39997
1.39997
1.39997
1.39997
1.39997
1.39997
1.39997
1.39997
1.64837
4.49447
5.48141
5.46384
5.52101
5.5844
5.63669
5.70289
5.75595
5.78912
5.82625
5.8024
5.64719
5.56035
1.39997
1.39997
1.39997
1.39997
1.39997
1.39997
1.39997
1.39997
1.39997
1.39997
1.39997
1.39997
1.39997
1.39997
1.39997
1.39997
1.64146
4.48061
5.48159
5.49542
5.54549
5.57729
5.57262
5.58804
5.63209
5.68078
5.71029
5.71306
5.68208
5.65653
1.39997
1.39997
1.39997
1.39997
1.39997
1.39997
1.39997
1.39997
1.39997
1.39997
1.39997
1.39997
1.39997
1.39997
1.39997
1.39997
1.63181
4.46132
5.49007
5.50245
5.54325
5.5777
5.58133
5.62735
5.79227
5.90272
5.84997
5.66191
5.67076
5.71785
1.39997
1.39997
1.39997
1.39997
1.39997
1.39997
1.39997
1.39997
1.39997
1.39997
1.39997
1.39997
1.39997
1.39997
1.39997
1.39997
1.61972
4.43187
5.47915
5.49288
5.5412
5.56901
5.62182
5.80308
5.95555
5.96987
5.82688
5.64571
5.60996
5.70184
1.39997
1.39997
1.39997
1.39997
1.39997
1.39997
1.39997
1.39997
1.39997
1.39997
1.39997
1.39997
1.39997
1.39997
1.39997
1.39997
1.60301
4.39652
5.46438
5.4586
5.51353
5.55058
5.6621
5.84815
5.96431
5.96661
5.83638
5.69321
5.5961
5.63796
1.39997
1.39997
1.39997
1.39997
1.39997
1.39997
1.39997
1.39997
1.39997
1.39997
1.39997
1.39997
1.39997
1.39997
1.39997
1.39997
1.58168
4.36105
5.47557
5.40388
5.43327
5.55496
5.70771
5.76709
5.78457
5.76477
5.79249
5.80771
5.64994
5.58983
1.39997
1.39997
1.39997
1.39997
1.39997
1.39997
1.39997
1.39997
1.39997
1.39997
1.39997
1.39997
1.39997
1.39997
1.39997
1.39997
1.55521
4.31667
5.48618
5.37426
5.37436
5.5629
5.73572
5.69125
5.56254
5.55316
5.71273
5.8324
5.76748
5.57711
1.39997
1.39997
1.39997
1.39997
1.39997
1.39997
1.39997
1.39997
1.39997
1.39997
1.39997
1.39997
1.39997
1.39997
1.39997
1.39997
1.52645
4.25588
5.48063
5.38882
5.45296
5.56929
5.69574
5.66705
5.51634
5.49832
5.69951
5.87554
5.76904
5.59092
1.39997
1.39997
1.39997
1.39997
1.39997
1.39997
1.39997
1.39997
1.39997
1.39997
1.39997
1.39997
1.39997
1.39997
1.39997
1.39997
1.49365
4.19456
5.45159
5.45398
5.5374
5.58334
5.59082
5.59604
5.60753
5.73372
5.83146
5.78888
5.65879
5.64326
1.39997
1.39997
1.39997
1.39997
1.39997
1.39997
1.39997
1.39997
1.39997
1.39997
1.39997
1.39997
1.39997
1.39997
1.39997
1.39997
1.44767
4.12798
5.45703
5.51085
5.55965
5.56054
5.48185
5.47937
5.76194
5.98846
5.88496
5.61145
5.55069
5.70261
1.39997
1.39997
1.39997
1.39997
1.39997
1.39997
1.39997
1.39997
1.39997
1.39997
1.39997
1.39997
1.39997
1.39997
1.39997
1.39997
1.40628
4.04485
5.47044
5.5107
5.54593
5.49338
5.40855
5.53665
5.8732
5.94195
5.71699
5.41174
5.48421
5.76225
1.39997
1.39997
1.39997
1.39997
1.39997
1.39997
1.39997
1.39997
1.39997
1.39997
1.39997
1.39997
1.39997
1.39997
1.39997
1.39997
1.40009
3.93889
5.47472
5.47791
5.46059
5.45122
5.4912
5.7646
5.85143
5.76257
5.51791
5.41128
5.50167
5.76976
1.39997
1.39997
1.39997
1.39997
1.39997
1.39997
1.39997
1.39997
1.39997
1.39997
1.39997
1.39997
1.39997
1.39997
1.39997
1.39997
1.39997
3.82006
5.46371
5.413
5.37589
5.41301
5.71204
5.8286
5.8124
5.56555
5.38756
5.39417
5.55739
5.72834
1.39997
1.39997
1.39997
1.39997
1.39997
1.39997
1.39997
1.39997
1.39997
1.39997
1.39997
1.39997
1.39997
1.39997
1.39997
1.39997
1.39997
3.70185
5.41737
5.33453
5.34141
5.55253
5.7642
5.81659
5.65134
5.50128
5.56891
5.64589
5.64926
5.38214
1.39997
1.39997
1.39997
1.39997
1.39997
1.39997
1.39997
1.39997
1.39997
1.39997
1.39997
1.39997
1.39997
1.39997
1.39997
1.39997
1.39997
3.5817
5.35404
5.30463
5.4467
5.66364
5.7312
5.70282
5.46291
5.51769
5.86356
5.92281
5.61938
5.21473
1.39997
1.39997
1.39997
1.39997
1.39997
1.39997
1.39997
1.39997
1.39997
1.39997
1.39997
1.39997
1.39997
1.39997
1.39997
1.39997
1.39997
3.45413
5.29398
5.39564
5.5475
5.66317
5.681
5.49391
5.3499
5.48707
5.86218
5.95174
5.5285
5.09819
1.39997
1.39997
1.39997
1.39997
1.39997
1.39997
1.39997
1.39997
1.39997
1.39997
1.39997
1.39997
1.39997
1.39997
1.39997
1.39997
1.39997
3.33119
5.28467
5.46609
5.57185
5.60713
5.55697
5.35835
5.41099
5.67729
5.71861
5.84304
5.44649
5.21416
1.39997
1.39997
1.39997
1.39997
1.39997
1.39997
1.39997
1.39997
1.39997
1.39997
1.39997
1.39997
1.39997
1.39997
1.39997
1.39997
1.39997
3.21178
5.27988
5.48606
5.55213
5.49858
5.30623
5.34632
5.597
5.72949
5.60382
5.29871
5.39735
5.68066
1.39997
1.39997
1.39997
1.39997
1.39997
1.39997
1.39997
1.39997
1.39997
1.39997
1.39997
1.39997
1.39997
1.39997
1.39997
1.39997
1.39997
3.10629
5.27013
5.49327
5.48479
5.30112
5.24374
5.37062
5.6746
5.74475
5.48028
5.15197
5.40223
5.78678
1.39997
1.39997
1.39997
1.39997
1.39997
1.39997
1.39997
1.39997
1.39997
1.39997
1.39997
1.39997
1.39997
1.39997
1.39997
1.39997
1.39997
3.00792
5.27547
5.47841
5.32912
5.23261
5.254
5.49107
5.68638
5.6715
5.38667
5.1482
5.42383
5.71594
1.39997
1.39997
1.39997
1.39997
1.39997
1.39997
1.39997
1.39997
1.39997
1.39997
1.39997
1.39997
1.39997
1.39997
1.39997
1.39997
1.39997
2.8651
5.23951
5.40794
5.2446
5.20128
5.29142
5.60152
5.70781
5.77533
5.68091
5.37923
5.33265
5.4204
1.39997
1.39997
1.39997
1.39997
1.39997
1.39997
1.39997
1.39997
1.39997
1.39997
1.39997
1.39997
1.39997
1.39997
1.39997
1.39997
1.39997
2.68297
5.13083
5.27787
5.20268
5.25027
5.54602
5.66817
5.72484
5.80002
5.77431
5.58045
5.20331
5.00749
1.39997
1.39997
1.39997
1.39997
1.39997
1.39997
1.39997
1.39997
1.39997
1.39997
1.39997
1.39997
1.39997
1.39997
1.39997
1.39997
1.39997
2.46638
4.96484
5.19978
5.18813
5.43467
5.68065
5.70288
5.67248
5.67124
5.69037
5.53268
5.14938
4.84375
1.39997
1.39997
1.39997
1.39997
1.39997
1.39997
1.39997
1.39997
1.39997
1.39997
1.39997
1.39997
1.39997
1.39997
1.39997
1.39997
1.39997
2.26991
4.84977
5.16832
5.27447
5.63753
5.74253
5.7223
5.56137
5.07891
5.13395
5.32654
5.08781
4.73938
1.39997
1.39997
1.39997
1.39997
1.39997
1.39997
1.39997
1.39997
1.39997
1.39997
1.39997
1.39997
1.39997
1.39997
1.39997
1.39997
1.39997
2.0936
4.74912
5.27823
5.56051
5.70686
5.78233
5.69966
5.26854
4.889
4.927
5.07915
5.08212
5.24326
1.39997
1.39997
1.39997
1.39997
1.39997
1.39997
1.39997
1.39997
1.39997
1.39997
1.39997
1.39997
1.39997
1.39997
1.39997
1.39997
1.39997
1.94195
4.78143
5.56026
5.73183
5.79005
5.74888
5.49282
5.01002
4.92319
4.83905
4.93694
5.58018
5.79143
1.39997
1.39997
1.39997
1.39997
1.39997
1.39997
1.39997
1.39997
1.39997
1.39997
1.39997
1.39997
1.39997
1.39997
1.39997
1.39997
1.39997
1.80754
4.89636
5.69443
5.683
5.71661
5.65733
5.14318
4.92685
4.98357
5.35648
5.51184
5.53118
5.64407
1.39997
1.39997
1.39997
1.39997
1.39997
1.39997
1.39997
1.39997
1.39997
1.39997
1.39997
1.39997
1.39997
1.39997
1.39997
1.39997
1.39997
1.65277
4.75496
5.62719
5.57858
5.61865
5.14616
5.06369
5.14637
5.72992
5.75707
5.54615
5.19806
5.42313
1.39997
1.39997
1.39997
1.39997
1.39997
1.39997
1.39997
1.39997
1.39997
1.39997
1.39997
1.39997
1.39997
1.39997
1.39997
1.39997
1.39997
1.52763
4.53367
5.57355
5.42784
5.25548
4.9992
5.07741
5.64094
5.76274
5.629
5.36291
4.90622
4.2364
1.39997
1.39997
1.39997
1.39997
1.39997
1.39997
1.39997
1.39997
1.39997
1.39997
1.39997
1.39997
1.39997
1.39997
1.39997
1.39997
1.39997
1.41055
3.84607
5.28219
5.21372
5.19256
5.29128
5.43784
5.51293
5.41255
5.1288
4.80599
4.25634
3.21934
1.39997
1.39997
1.39997
1.39997
1.39997
1.39997
1.39997
1.39997
1.39997
1.39997
1.39997
1.39997
1.39997
1.39997
1.39997
1.39997
1.39997
1.40002
2.78549
4.99316
5.2476
5.33209
5.35339
5.29879
5.14994
4.95065
4.75306
4.50459
4.1814
3.47186
1.39997
1.39997
1.39997
1.39997
1.39997
1.39997
1.39997
1.39997
1.39997
1.39997
1.39997
1.39997
1.39997
1.39997
1.39997
1.39997
1.39997
1.39997
1.78585
4.59889
5.31891
5.25702
5.1872
5.09846
4.96584
4.83998
4.69694
4.48932
4.096
3.49217
1.39997
1.39997
1.39997
1.39997
1.39997
1.39997
1.39997
1.39997
1.39997
1.39997
1.39997
1.39997
1.39997
1.39997
1.39997
1.39997
1.39997
1.39997
1.41986
3.51794
5.1865
5.1092
5.03736
4.98832
4.92716
4.80925
4.62379
4.34723
3.93158
3.49357
1.39997
1.39997
1.39997
1.39997
1.39997
1.39997
1.39997
1.39997
1.39997
1.39997
1.39997
1.39997
1.39997
1.39997
1.39997
1.39997
1.39997
1.39997
1.4
2.07587
4.78552
5.10279
5.02349
4.95844
4.84947
4.69774
4.52442
4.26491
3.91421
3.54413
1.39997
1.39997
1.39997
1.39997
1.39997
1.39997
1.39997
1.39997
1.39997
1.39997
1.39997
1.39997
1.39997
1.39997
1.39997
1.39997
1.39997
1.39997
1.39997
1.4458
3.53752
5.04532
5.01827
4.88777
4.74543
4.61142
4.4547
4.23146
3.93945
3.62705
1.39997
1.39997
1.39997
1.39997
1.39997
1.39997
1.39997
1.39997
1.39997
1.39997
1.39997
1.39997
1.39997
1.39997
1.39997
1.39997
1.39997
1.39997
1.39997
1.40012
1.86966
4.58168
5.02953
4.8757
4.73716
4.58757
4.41054
4.20858
3.97135
3.70142
1.39997
1.39997
1.39997
1.39997
1.39997
1.39997
1.39997
1.39997
1.39997
1.39997
1.39997
1.39997
1.39997
1.39997
1.39997
1.39997
1.39997
1.39997
1.39997
1.39997
1.41989
3.01044
4.8408
4.82819
4.69608
4.54825
4.3671
4.18667
3.98629
3.74755
1.39997
1.39997
1.39997
1.39997
1.39997
1.39997
1.39997
1.39997
1.39997
1.39997
1.39997
1.39997
1.39997
1.39997
1.39997
1.39997
1.39997
1.39997
1.39997
1.39997
1.40002
1.63798
3.87096
4.85385
4.72989
4.57009
4.38878
4.20056
4.00247
3.78566
1.39997
1.39997
1.39997
1.39997
1.39997
1.39997
1.39997
1.39997
1.39997
1.39997
1.39997
1.39997
1.39997
1.39997
1.39997
1.39997
1.39997
1.39997
1.39997
1.39997
1.39997
1.40462
2.07439
4.31976
4.78165
4.60673
4.43873
4.24482
4.04442
3.8408
1.39997
1.39997
1.39997
1.39997
1.39997
1.39997
1.39997
1.39997
1.39997
1.39997
1.39997
1.39997
1.39997
1.39997
1.39997
1.39997
1.39997
1.39997
1.39997
1.39997
1.39997
1.39998
1.43946
2.5597
4.53636
4.67025
4.48509
4.29836
4.09854
3.89986
1.39997
1.39997
1.39997
1.39997
1.39997
1.39997
1.39997
1.39997
1.39997
1.39997
1.39997
1.39997
1.39997
1.39997
1.39997
1.39997
1.39997
1.39997
1.39997
1.39997
1.39997
1.39997
1.40024
1.52169
3.0342
4.53003
4.56962
4.36969
4.18416
3.99651
1.39997
1.39997
1.39997
1.39997
1.39997
1.39997
1.39997
1.39997
1.39997
1.39997
1.39997
1.39997
1.39997
1.39997
1.39997
1.39997
1.39997
1.39997
1.39997
1.39997
1.39997
1.39997
1.39997
1.40159
1.65366
3.33903
4.46092
4.45144
4.25951
4.08869
1.39997
1.39997
1.39997
1.39997
1.39997
1.39997
1.39997
1.39997
1.39997
1.39997
1.39997
1.39997
1.39997
1.39997
1.39997
1.39997
1.39997
1.39997
1.39997
1.39997
1.39997
1.39997
1.39997
1.39997
1.40579
1.79145
3.47243
4.39384
4.35173
4.17455
1.39997
1.39997
1.39997
1.39997
1.39997
1.39997
1.39997
1.39997
1.39997
1.39997
1.39997
1.39997
1.39997
1.39997
1.39997
1.39997
1.39997
1.39997
1.39997
1.39997
1.39997
1.39997
1.39997
1.39997
1.39999
1.41336
1.88634
3.50572
4.30049
4.26926
1.39997
1.39997
1.39997
1.39997
1.39997
1.39997
1.39997
1.39997
1.39997
1.39997
1.39997
1.39997
1.39997
1.39997
1.39997
1.39997
1.39997
1.39997
1.39997
1.39997
1.39997
1.39997
1.39997
1.39997
1.39997
1.40003
1.42093
1.92363
3.43421
4.21735
1.39997
1.39997
1.39997
1.39997
1.39997
1.39997
1.39997
1.39997
1.39997
1.39997
1.39997
1.39997
1.39997
1.39997
1.39997
1.39997
1.39997
1.39997
1.39997
1.39997
1.39997
1.39997
1.39997
1.39997
1.39997
1.39997
1.40009
1.42483
1.89517
3.40202
1.39997
1.39997
1.39997
1.39997
1.39997
1.39997
1.39997
1.39997
1.39997
1.39997
1.39997
1.39997
1.39997
1.39997
1.39997
1.39997
1.39997
1.39997
1.39997
1.39997
1.39997
1.39997
1.39997
1.39997
1.39997
1.39997
1.39997
1.40015
1.42111
1.94476
1.39997
1.39997
1.39997
1.39997
1.39997
1.39997
1.39997
1.39997
1.39997
1.39997
1.39997
1.39997
1.39997
1.39997
1.39997
1.39997
1.39997
1.39997
1.39997
1.39997
1.39997
1.39997
1.39997
1.39997
1.39997
1.39997
1.39997
1.39997
1.40011
1.42789
1.39997
1.39997
1.39997
1.39997
1.39997
1.39997
1.39997
1.39997
1.39997
1.39997
1.39997
1.39997
1.39997
1.39997
1.39997
1.39997
1.39997
1.39997
1.39997
1.39997
1.39997
1.39997
1.39997
1.39997
1.39997
1.39997
1.39997
1.39997
1.39997
1.40005
1.39997
1.39997
1.39997
1.39997
1.39997
1.39997
1.39997
1.39997
1.39997
1.39997
1.39997
1.39997
1.39997
1.39997
1.39997
1.39997
1.39997
1.39997
1.39997
1.39997
1.39997
1.39997
1.39997
1.39997
1.39997
1.39997
1.39997
1.39997
1.39997
1.39997
1.39997
1.39997
1.39997
1.39997
1.39997
1.39997
1.39997
1.39997
1.39997
1.39997
1.39997
1.39997
1.39997
1.39997
1.39997
1.39997
1.39997
1.39997
1.39997
1.39997
1.39997
1.39997
1.39997
1.39997
1.39997
1.39997
1.39997
1.39997
1.39997
1.39997
1.39997
1.39997
1.39997
1.39997
1.39997
1.39997
1.39997
1.39997
1.39997
1.39997
1.39997
1.39997
1.39997
1.39997
1.39997
1.39997
1.39997
1.39997
1.39997
1.39997
1.39997
1.39997
1.39997
1.39997
1.39997
1.39997
1.39997
1.39997
1.39997
1.39997
1.39997
1.39997
1.39997
1.39997
1.39997
1.39997
1.39997
1.39997
1.39997
1.39997
1.39997
1.39997
1.39997
1.39997
1.39997
1.39997
1.39997
1.39997
1.39997
1.39997
1.39997
1.39997
1.39997
1.39997
1.39997
1.39997
1.39997
1.39997
1.39997
1.39997
1.39997
1.39997
1.39997
1.39997
1.39997
1.39997
1.39997
1.39997
1.39997
1.39997
1.39997
1.39997
1.39997
1.39997
1.39997
1.39997
1.39997
1.39997
1.39997
1.39997
1.39997
1.39997
1.39997
1.39997
1.39997
1.39997
1.39997
1.39997
1.39997
1.39997
1.39997
1.39997
1.39997
1.39997
1.39997
1.39997
1.39997
1.39997
1.39997
1.39997
1.39997
1.39997
1.39997
1.39997
1.39997
1.39997
1.39997
1.39997
1.39997
1.39997
1.39997
1.39997
1.39997
1.39997
1.39997
1.39997
1.39997
1.39997
1.39997
1.39997
1.39997
1.39997
1.39997
1.39997
1.39997
1.39997
1.39997
1.39997
1.39997
1.39997
1.39997
1.39997
1.39997
1.39997
1.39997
1.39997
1.39997
1.39997
1.39997
1.39997
1.39997
1.39997
1.39997
1.39997
1.39997
1.39997
1.39997
1.39997
1.39997
1.39997
1.39997
1.39997
1.39997
1.39997
1.39997
1.39997
1.39997
1.39997
1.39997
1.39997
1.39997
1.39997
1.39997
1.39997
1.39997
1.39997
1.39997
1.39997
1.39997
1.39997
1.39997
1.39997
1.39997
1.39997
1.39997
1.39997
1.39997
1.39997
1.39997
1.39997
1.39997
1.39997
1.39997
1.39997
1.39997
1.39997
1.39997
1.39997
1.39997
1.39997
1.39997
1.39997
1.39997
1.39997
1.39997
1.39997
1.39997
1.39997
1.39997
1.39997
1.39997
1.39997
1.39997
1.39997
1.39997
1.39997
1.39997
1.39997
1.39997
1.39997
1.39997
1.39997
1.39997
1.39997
1.39997
1.39997
1.39997
1.39997
1.39997
1.39997
1.39997
1.39997
1.39997
1.39997
1.39997
1.39997
1.39997
1.39997
1.39997
1.39997
1.39997
1.39997
1.39997
1.39997
1.39997
1.39997
1.39997
1.39997
1.39997
1.39997
0.781671
0.516452
0.594778
0.706812
0.785978
0.819449
0.805128
0.782864
0.776058
0.767415
0.767761
0.75966
0.735072
0.704295
0.680976
0.661603
0.642894
0.628775
0.617266
0.607191
0.600553
0.59966
0.602447
0.611298
0.625945
0.635245
0.638926
0.643965
0.651284
0.683966
1.58691
0.802363
0.663432
0.701721
0.778401
0.829874
0.821052
0.801417
0.793025
0.786351
0.787517
0.777649
0.752884
0.721282
0.692532
0.669194
0.650643
0.637811
0.628603
0.619539
0.611096
0.60685
0.608248
0.614466
0.626052
0.636707
0.645838
0.653826
0.662119
0.693836
2.04089
1.08253
0.740274
0.745826
0.809493
0.882626
0.876134
0.847243
0.835908
0.832394
0.833479
0.82151
0.797429
0.76789
0.737992
0.709166
0.684761
0.668666
0.65767
0.646979
0.635896
0.631154
0.632414
0.637143
0.64563
0.654725
0.662968
0.670107
0.678322
0.709299
2.40146
1.40218
0.981129
0.813296
0.838413
0.894894
0.936016
0.919371
0.902213
0.897349
0.893249
0.880332
0.857383
0.828111
0.796809
0.765419
0.738189
0.719216
0.705973
0.691732
0.673196
0.661669
0.661824
0.665064
0.671553
0.680461
0.687565
0.692894
0.700244
0.72936
2.67762
1.68995
1.23681
0.906341
0.887756
0.914643
0.973561
0.990357
0.976838
0.965915
0.95012
0.930372
0.906368
0.877713
0.846877
0.814294
0.786875
0.769687
0.757462
0.744153
0.724819
0.705817
0.702717
0.703072
0.706224
0.715491
0.72368
0.730046
0.738092
0.767898
2.85878
1.96917
1.46076
1.11103
0.949549
0.962536
0.985889
1.00122
0.998416
0.998433
0.989416
0.970389
0.947205
0.918755
0.889491
0.856352
0.827273
0.809389
0.79706
0.785328
0.768764
0.748754
0.742282
0.740226
0.742551
0.75033
0.757286
0.764264
0.773476
0.807433
2.99295
2.19766
1.65946
1.3002
1.0203
1.01051
0.997553
0.98746
0.993037
1.00186
0.999417
0.994711
0.981825
0.958045
0.929707
0.897366
0.864201
0.840821
0.826132
0.814808
0.800199
0.781417
0.7734
0.774289
0.780581
0.793602
0.8016
0.806663
0.812468
0.846435
3.0989
2.36473
1.82842
1.45677
1.1578
1.07153
1.01283
0.966519
0.972976
0.987751
0.999526
0.998416
0.988054
0.967291
0.940447
0.909707
0.878291
0.856969
0.845838
0.837593
0.826983
0.81351
0.81276
0.832371
0.872625
0.924158
0.945347
0.943672
0.924727
0.930492
3.19735
2.49046
1.96721
1.59373
1.30123
1.12911
1.04591
0.971788
0.951368
0.964786
0.989348
0.995778
0.987393
0.968242
0.942168
0.909943
0.88113
0.864473
0.857231
0.855768
0.856805
0.877335
0.942186
1.0366
1.12598
1.18893
1.2219
1.22025
1.20716
1.16888
3.29471
2.59563
2.08865
1.72661
1.437
1.22122
1.11728
1.00051
0.943385
0.948959
0.976087
0.987061
0.977594
0.959862
0.935757
0.911696
0.8874
0.871589
0.868911
0.88393
0.952822
1.09386
1.23344
1.31982
1.34994
1.36444
1.38646
1.40144
1.4325
1.44612
3.38007
2.69574
2.20199
1.8639
1.5719
1.32589
1.1767
1.03783
0.943438
0.952389
0.972586
0.966049
0.953745
0.943492
0.933193
0.918226
0.89813
0.88754
0.913656
1.03405
1.23553
1.38156
1.43933
1.4452
1.42765
1.42314
1.4336
1.45642
1.49945
1.56673
3.49026
2.80559
2.32751
1.99712
1.69236
1.42173
1.25072
1.11418
0.970542
0.967152
0.969407
0.941931
0.928454
0.929711
0.935141
0.931657
0.921746
0.955849
1.12828
1.37317
1.5026
1.51466
1.49732
1.47396
1.44768
1.44008
1.44555
1.46633
1.50681
1.60232
3.60766
2.93632
2.46468
2.12616
1.80293
1.50541
1.32628
1.19339
1.03283
0.986657
0.977825
0.943298
0.928051
0.930502
0.940082
0.947122
0.996574
1.21086
1.48402
1.61238
1.58781
1.5435
1.51382
1.47747
1.44427
1.43943
1.44233
1.46112
1.5015
1.61677
3.72358
3.08591
2.60391
2.24061
1.90213
1.58795
1.4034
1.27261
1.12699
1.0307
1.00141
0.957295
0.930484
0.933004
0.945607
1.00032
1.24193
1.5466
1.67903
1.65241
1.59813
1.53889
1.48756
1.44808
1.42968
1.43507
1.4469
1.47343
1.5206
1.63608
3.83245
3.24388
2.73742
2.33844
1.99503
1.67314
1.47749
1.35534
1.2181
1.08685
1.03228
0.980767
0.942284
0.942026
0.975777
1.20454
1.55594
1.70734
1.69287
1.65317
1.56112
1.49685
1.45465
1.43253
1.4246
1.43181
1.45671
1.49203
1.53007
1.59849
3.98476
3.4034
2.85836
2.42896
2.09402
1.77712
1.56554
1.43939
1.29853
1.15119
1.08366
1.0277
0.975654
0.98415
1.15051
1.5326
1.71286
1.72382
1.68813
1.61254
1.51153
1.46316
1.44083
1.42621
1.4285
1.44196
1.46998
1.50328
1.53791
1.58656
4.00959
3.57869
2.96859
2.51851
2.20465
1.88893
1.65548
1.52285
1.38308
1.23567
1.14447
1.0676
1.01781
1.12276
1.49898
1.73478
1.75882
1.7186
1.64068
1.56024
1.48794
1.45002
1.44416
1.44464
1.45286
1.45816
1.48255
1.51357
1.54943
1.58367
3.82913
3.59896
3.08231
2.62231
2.32426
2.01524
1.76213
1.60903
1.46531
1.31551
1.19857
1.12689
1.16058
1.46706
1.79022
1.81423
1.76675
1.67293
1.59285
1.52619
1.47765
1.46391
1.46757
1.47465
1.48894
1.48342
1.49437
1.50524
1.52591
1.55185
3.23845
3.4733
3.15812
2.73922
2.43704
2.13367
1.86826
1.69813
1.55124
1.39331
1.25674
1.24343
1.49296
1.85932
1.93077
1.85615
1.74036
1.63245
1.57121
1.51286
1.48851
1.48426
1.49006
1.50815
1.49439
1.48564
1.4722
1.48474
1.49249
1.49542
2.77468
3.47004
3.24603
2.86792
2.54494
2.2416
1.97259
1.78604
1.63166
1.45105
1.3618
1.53012
1.99339
2.11704
2.01418
1.86757
1.73739
1.61892
1.575
1.53975
1.49841
1.475
1.46256
1.47419
1.47081
1.44018
1.43717
1.44206
1.43475
1.44199
2.24204
3.44779
3.35101
2.99456
2.64004
2.34119
2.07312
1.87572
1.69097
1.52008
1.58691
2.06244
2.37095
2.25841
2.0656
1.89754
1.76095
1.67403
1.61741
1.56997
1.51498
1.46165
1.43496
1.44005
1.42803
1.39527
1.38964
1.38209
1.37176
1.39094
1.72051
3.27462
3.38693
3.10189
2.7376
2.43663
2.16691
1.94966
1.7459
1.70573
2.12525
2.60171
2.53349
2.3666
2.14388
1.96234
1.82272
1.72509
1.64916
1.58166
1.51902
1.45095
1.41296
1.39731
1.36893
1.3376
1.33435
1.33216
1.32515
1.35216
1.42624
2.9007
3.34455
3.18386
2.86381
2.54917
2.27064
2.00667
1.87336
2.16919
2.73804
2.81544
2.64049
2.4217
2.22263
2.05826
1.90593
1.78525
1.68589
1.59593
1.51727
1.44261
1.40487
1.36962
1.32949
1.30232
1.29703
1.29939
1.29791
1.32897
1.40039
2.33266
3.3558
3.2926
2.99506
2.66114
2.33408
2.08158
2.23919
2.92857
3.18563
3.02272
2.76303
2.49822
2.29898
2.14795
1.99721
1.85874
1.73596
1.62992
1.53469
1.4545
1.40633
1.36014
1.31364
1.28874
1.27879
1.27483
1.27101
1.29764
1.39997
1.76555
3.18733
3.30258
3.09497
2.77722
2.39544
2.36634
3.0249
3.55232
3.38681
3.13223
2.85013
2.57749
2.36984
2.21142
2.06122
1.91365
1.77428
1.64788
1.55173
1.47655
1.41876
1.36511
1.31844
1.28984
1.27455
1.25627
1.24034
1.25717
1.39997
1.46531
2.70236
3.31965
3.22
2.89008
2.63476
3.12156
3.97103
3.8834
3.56031
3.19515
2.90328
2.65339
2.44719
2.27302
2.10884
1.95329
1.80873
1.6814
1.5691
1.52124
1.46219
1.39627
1.34581
1.31209
1.28458
1.24641
1.21909
1.22581
1.39997
1.40516
2.05666
3.27374
3.24707
3.01715
3.31411
4.25202
4.40115
4.08776
3.68443
3.31046
3.03908
2.80296
2.54817
2.3298
2.1654
2.02155
1.883
1.74952
1.61758
1.51457
1.43874
1.37491
1.32867
1.29139
1.25895
1.2284
1.20259
1.20177
1.39997
1.40017
1.57907
2.9328
3.15565
3.5229
4.73134
5.13956
4.76251
4.24788
3.80552
3.42579
3.09685
2.8097
2.57025
2.36056
2.18257
2.02157
1.87469
1.74089
1.63048
1.52976
1.44629
1.38022
1.33292
1.29378
1.25854
1.22465
1.19601
1.193
1.39997
1.39997
1.4226
2.26297
3.3311
4.85534
5.62948
5.45484
4.97542
4.39911
3.91216
3.50124
3.15343
2.87149
2.64009
2.43559
2.24487
2.07135
1.91418
1.77732
1.66755
1.56799
1.48187
1.41459
1.36219
1.31731
1.2772
1.23939
1.20571
1.19889
1.39997
1.39997
1.40135
1.71244
3.99343
6.26813
6.48578
5.67983
5.02485
4.45726
3.94434
3.50132
3.12297
2.81267
2.5773
2.37597
2.18807
2.01803
1.86075
1.72717
1.61746
1.52055
1.43812
1.37303
1.32373
1.28111
1.24088
1.20362
1.17185
1.16749
)
;

boundaryField
{
    inlet
    {
        type            calculated;
        value           uniform 1.39997;
    }
    outlet
    {
        type            calculated;
        value           nonuniform List<scalar> 
30
(
0.685013
0.695025
0.710121
0.730117
0.768811
0.808066
0.848162
0.938111
1.18408
1.45568
1.56886
1.60209
1.61517
1.63537
1.59961
1.58799
1.58507
1.55263
1.49644
1.4423
1.39028
1.35098
1.32782
1.29696
1.25696
1.22561
1.20144
1.19271
1.19852
1.16714
)
;
    }
    top
    {
        type            symmetryPlane;
    }
    bottom
    {
        type            symmetryPlane;
    }
    step
    {
        type            calculated;
        value           nonuniform List<scalar> 
60
(
5.47019
5.56035
5.65653
5.71785
5.70184
5.63796
5.58983
5.57711
5.59092
5.64326
5.70261
5.76225
5.76976
5.72834
5.38214
5.21473
5.09819
5.21416
5.68066
5.78678
5.71594
5.4204
5.00749
4.84375
4.73938
5.24326
5.79143
5.64407
5.42313
4.2364
0.781671
0.516452
0.594778
0.706812
0.785978
0.819449
0.805128
0.782864
0.776058
0.767415
0.767761
0.75966
0.735072
0.704295
0.680976
0.661603
0.642894
0.628775
0.617266
0.607191
0.600553
0.59966
0.602447
0.611298
0.625945
0.635245
0.638926
0.643965
0.651284
0.683966
)
;
    }
    defaultFaces
    {
        type            empty;
    }
}


// ************************************************************************* //
