/*--------------------------------*- C++ -*----------------------------------*\
  =========                 |
  \\      /  F ield         | OpenFOAM: The Open Source CFD Toolbox
   \\    /   O peration     | Website:  https://openfoam.org
    \\  /    A nd           | Version:  6.0
     \\/     M anipulation  |
\*---------------------------------------------------------------------------*/
FoamFile
{
    version     2.0;
    format      ascii;
    class       volScalarField;
    location    "0.999563";
    object      T;
}
// * * * * * * * * * * * * * * * * * * * * * * * * * * * * * * * * * * * * * //

dimensions      [0 0 0 1 0 0 0];

internalField   nonuniform List<scalar> 
2700
(
1
1
1
1
1
1
1
1
1
1
1
1
1
1
1
1
1.24159
2.46124
2.72097
2.74639
2.77926
2.82417
2.86723
2.87708
2.86985
2.87243
2.90123
2.95321
2.98777
2.99699
1
1
1
1
1
1
1
1
1
1
1
1
1
1
1
1
1.23871
2.45918
2.72256
2.75507
2.79311
2.82431
2.8431
2.85627
2.86594
2.88021
2.91561
2.96651
3.00044
3.01606
1
1
1
1
1
1
1
1
1
1
1
1
1
1
1
1
1.23316
2.45701
2.72465
2.76181
2.79742
2.82286
2.83031
2.83313
2.84079
2.85835
2.8924
2.94894
3.00751
3.03513
1
1
1
1
1
1
1
1
1
1
1
1
1
1
1
1
1.22494
2.45194
2.72728
2.76317
2.79689
2.82291
2.83232
2.84128
2.8735
2.90361
2.92087
2.93809
3.00401
3.04725
1
1
1
1
1
1
1
1
1
1
1
1
1
1
1
1
1.21525
2.44217
2.7246
2.76162
2.797
2.82152
2.84085
2.87635
2.90609
2.91664
2.91665
2.93421
2.98912
3.0439
1
1
1
1
1
1
1
1
1
1
1
1
1
1
1
1
1.20059
2.4283
2.72014
2.75544
2.79298
2.81852
2.84819
2.88484
2.90748
2.91534
2.91888
2.94396
2.9866
3.02979
1
1
1
1
1
1
1
1
1
1
1
1
1
1
1
1
1.17996
2.41194
2.72133
2.74434
2.77791
2.81955
2.85582
2.86838
2.87177
2.87525
2.91145
2.96874
2.99645
3.01831
1
1
1
1
1
1
1
1
1
1
1
1
1
1
1
1
1.15299
2.39153
2.72345
2.73812
2.76572
2.82068
2.86063
2.85275
2.8272
2.83294
2.89774
2.97472
3.01938
3.01462
1
1
1
1
1
1
1
1
1
1
1
1
1
1
1
1
1.12267
2.36682
2.72249
2.7425
2.78167
2.82083
2.85219
2.84745
2.81747
2.82192
2.89544
2.98379
3.01957
3.01681
1
1
1
1
1
1
1
1
1
1
1
1
1
1
1
1
1.08781
2.34422
2.71998
2.75719
2.79732
2.82171
2.83031
2.83303
2.83509
2.8702
2.92284
2.96326
2.99603
3.0278
1
1
1
1
1
1
1
1
1
1
1
1
1
1
1
1
1.04139
2.32499
2.72658
2.7689
2.80039
2.81537
2.80756
2.80828
2.86705
2.92162
2.93316
2.92741
2.97038
3.03978
1
1
1
1
1
1
1
1
1
1
1
1
1
1
1
1
1.00309
2.30483
2.73279
2.76931
2.79723
2.80067
2.79158
2.8196
2.88807
2.91116
2.90043
2.88677
2.95591
3.05153
1
1
1
1
1
1
1
1
1
1
1
1
1
1
1
1
1.00003
2.27903
2.73632
2.76288
2.77966
2.79237
2.80762
2.86438
2.88256
2.87592
2.86017
2.88491
2.96028
3.0508
1
1
1
1
1
1
1
1
1
1
1
1
1
1
1
1
1
2.24555
2.73578
2.75082
2.76295
2.78417
2.85048
2.87517
2.8744
2.83621
2.83217
2.88257
2.97013
3.03907
1
1
1
1
1
1
1
1
1
1
1
1
1
1
1
1
1
2.20878
2.72637
2.7359
2.756
2.81192
2.85933
2.87169
2.84264
2.82264
2.87209
2.93487
2.98544
2.9684
1
1
1
1
1
1
1
1
1
1
1
1
1
1
1
1
1
2.16792
2.7117
2.7316
2.77871
2.83303
2.85224
2.84865
2.80301
2.82431
2.93238
2.99154
2.97898
2.92884
1
1
1
1
1
1
1
1
1
1
1
1
1
1
1
1
1
2.12259
2.6989
2.75213
2.79902
2.83276
2.84154
2.80575
2.77802
2.81628
2.92871
2.99493
2.95974
2.90034
1
1
1
1
1
1
1
1
1
1
1
1
1
1
1
1
1
2.0797
2.69669
2.76928
2.80539
2.82266
2.81624
2.77653
2.78953
2.85514
2.89351
2.96603
2.94268
2.92538
1
1
1
1
1
1
1
1
1
1
1
1
1
1
1
1
1
2.03836
2.6964
2.7774
2.805
2.80218
2.76603
2.77261
2.82649
2.86474
2.86783
2.85459
2.92938
3.02995
1
1
1
1
1
1
1
1
1
1
1
1
1
1
1
1
1
2.00372
2.69762
2.78398
2.79422
2.76579
2.75255
2.77541
2.83967
2.86523
2.8402
2.81945
2.92901
3.05073
1
1
1
1
1
1
1
1
1
1
1
1
1
1
1
1
1
1.97515
2.70301
2.78809
2.76822
2.75205
2.75442
2.79832
2.83992
2.84622
2.81651
2.81448
2.93189
3.03227
1
1
1
1
1
1
1
1
1
1
1
1
1
1
1
1
1
1.93098
2.7036
2.78089
2.75253
2.7444
2.75858
2.8168
2.83856
2.86193
2.87306
2.86117
2.91189
2.96463
1
1
1
1
1
1
1
1
1
1
1
1
1
1
1
1
1
1.86427
2.69433
2.75416
2.73962
2.74846
2.8035
2.82483
2.83671
2.8598
2.88609
2.90132
2.88173
2.86851
1
1
1
1
1
1
1
1
1
1
1
1
1
1
1
1
1
1.76866
2.66153
2.72749
2.72529
2.77235
2.81786
2.82398
2.81862
2.82577
2.85857
2.88738
2.86534
2.82645
1
1
1
1
1
1
1
1
1
1
1
1
1
1
1
1
1
1.64963
2.60379
2.69931
2.71917
2.793
2.81618
2.81248
2.78421
2.70335
2.74114
2.83953
2.85101
2.79393
1
1
1
1
1
1
1
1
1
1
1
1
1
1
1
1
1
1.49239
2.51243
2.68584
2.74558
2.78156
2.80244
2.78816
2.71636
2.65795
2.69367
2.78246
2.84374
2.91449
1
1
1
1
1
1
1
1
1
1
1
1
1
1
1
1
1
1.35547
2.45565
2.69651
2.7444
2.76586
2.76471
2.72904
2.65492
2.65786
2.67041
2.7452
2.94859
3.02662
1
1
1
1
1
1
1
1
1
1
1
1
1
1
1
1
1
1.27284
2.44423
2.70114
2.70652
2.72472
2.72537
2.64876
2.62661
2.65804
2.78445
2.86578
2.93116
2.98022
1
1
1
1
1
1
1
1
1
1
1
1
1
1
1
1
1
1.20597
2.43164
2.68683
2.6864
2.70449
2.62812
2.62578
2.66124
2.81737
2.85705
2.86902
2.85126
2.90215
1
1
1
1
1
1
1
1
1
1
1
1
1
1
1
1
1
1.11984
2.42452
2.70463
2.67991
2.65228
2.60575
2.62888
2.76871
2.82448
2.83006
2.82763
2.7928
2.68757
1
1
1
1
1
1
1
1
1
1
1
1
1
1
1
1
1
1.00645
2.25972
2.68321
2.66223
2.65554
2.67973
2.71956
2.75657
2.76421
2.74156
2.71392
2.64766
2.52142
1
1
1
1
1
1
1
1
1
1
1
1
1
1
1
1
1
1.00002
1.86296
2.60643
2.66621
2.68598
2.69917
2.70357
2.69854
2.68
2.65866
2.63186
2.60479
2.52301
1
1
1
1
1
1
1
1
1
1
1
1
1
1
1
1
1
1
1.26763
2.41356
2.65194
2.65258
2.65795
2.66135
2.65601
2.64887
2.63794
2.61285
2.54941
2.45177
1
1
1
1
1
1
1
1
1
1
1
1
1
1
1
1
1
1
1.01098
2.09348
2.58075
2.60485
2.60774
2.61682
2.62832
2.62499
2.60482
2.55686
2.47004
2.37484
1
1
1
1
1
1
1
1
1
1
1
1
1
1
1
1
1
1
1.00002
1.43494
2.39757
2.56986
2.56731
2.57667
2.57773
2.56877
2.54897
2.50334
2.42708
2.34461
1
1
1
1
1
1
1
1
1
1
1
1
1
1
1
1
1
1
1
1.02531
2.06462
2.51303
2.53578
2.52686
2.51811
2.5082
2.49101
2.4547
2.39633
2.32855
1
1
1
1
1
1
1
1
1
1
1
1
1
1
1
1
1
1
1
1.00008
1.29967
2.29727
2.49985
2.48368
2.47388
2.45931
2.43613
2.40492
2.36333
2.31209
1
1
1
1
1
1
1
1
1
1
1
1
1
1
1
1
1
1
1
1
1.01064
1.83033
2.38946
2.44963
2.42894
2.40965
2.38363
2.35797
2.32824
2.29002
1
1
1
1
1
1
1
1
1
1
1
1
1
1
1
1
1
1
1
1
1.00002
1.14303
2.09625
2.41626
2.39956
2.37622
2.34964
2.32311
2.29593
2.26611
1
1
1
1
1
1
1
1
1
1
1
1
1
1
1
1
1
1
1
1
1
1.00226
1.39
2.19347
2.36733
2.34111
2.3209
2.29777
2.27315
2.2472
1
1
1
1
1
1
1
1
1
1
1
1
1
1
1
1
1
1
1
1
1
1
1.02055
1.60278
2.21665
2.3172
2.28945
2.26913
2.24638
2.22277
1
1
1
1
1
1
1
1
1
1
1
1
1
1
1
1
1
1
1
1
1
1
1.0001
1.06623
1.76629
2.20356
2.27543
2.24383
2.22139
2.19979
1
1
1
1
1
1
1
1
1
1
1
1
1
1
1
1
1
1
1
1
1
1
1
1.00066
1.14381
1.84689
2.1775
2.22749
2.19583
2.17442
1
1
1
1
1
1
1
1
1
1
1
1
1
1
1
1
1
1
1
1
1
1
1
1
1.00261
1.21941
1.87005
2.14108
2.17633
2.15293
1
1
1
1
1
1
1
1
1
1
1
1
1
1
1
1
1
1
1
1
1
1
1
1
1.00001
1.00623
1.26497
1.85829
2.08808
2.13324
1
1
1
1
1
1
1
1
1
1
1
1
1
1
1
1
1
1
1
1
1
1
1
1
1
1.00002
1.00981
1.27859
1.8004
2.06838
1
1
1
1
1
1
1
1
1
1
1
1
1
1
1
1
1
1
1
1
1
1
1
1
1
1
1.00004
1.01153
1.24889
1.82149
1
1
1
1
1
1
1
1
1
1
1
1
1
1
1
1
1
1
1
1
1
1
1
1
1
1
1
1.00006
1.00954
1.29402
1
1
1
1
1
1
1
1
1
1
1
1
1
1
1
1
1
1
1
1
1
1
1
1
1
1
1
1
1.00005
1.0134
1
1
1
1
1
1
1
1
1
1
1
1
1
1
1
1
1
1
1
1
1
1
1
1
1
1
1
1
1
1.00003
1
1
1
1
1
1
1
1
1
1
1
1
1
1
1
1
1
1
1
1
1
1
1
1
1
1
1
1
1
1
1
1
1
1
1
1
1
1
1
1
1
1
1
1
1
1
1
1
1
1
1
1
1
1
1
1
1
1
1
1
1
1
1
1
1
1
1
1
1
1
1
1
1
1
1
1
1
1
1
1
1
1
1
1
1
1
1
1
1
1
1
1
1
1
1
1
1
1
1
1
1
1
1
1
1
1
1
1
1
1
1
1
1
1
1
1
1
1
1
1
1
1
1
1
1
1
1
1
1
1
1
1
1
1
1
1
1
1
1
1
1
1
1
1
1
1
1
1
1
1
1
1
1
1
1
1
1
1
1
1
1
1
1
1
1
1
1
1
1
1
1
1
1
1
1
1
1
1
1
1
1
1
1
1
1
1
1
1
1
1
1
1
1
1
1
1
1
1
1
1
1
1
1
1
1
1
1
1
1
1
1
1
1
1
1
1
1
1
1
1
1
1
1
1
1
1
1
1
1
1
1
1
1
1
1
1
1
1
1
1
1
1
1
1
1
1
1
1
1
1
1
1
1
1
1
1
1
1
1
1
1
1
1
1
1
1
1
1
1
1
1
1
1
1
1
1
1
1
1
1
1
1
1
1
1
1
1
1
1
1
1
1
1
1
1
1
1
1
1
1
1.6938
1.77679
1.89337
1.96378
1.93552
1.9411
1.96733
2.01439
2.01804
1.99627
1.95914
1.90549
1.8661
1.86369
1.87475
1.894
1.90036
1.90058
1.90146
1.91119
1.93215
1.94112
1.94012
1.93113
1.91732
1.9088
1.90816
1.90807
1.90568
1.86293
2.10467
1.83485
1.789
1.8203
1.83536
1.84789
1.88663
1.95139
1.96547
1.95079
1.92114
1.86963
1.83248
1.8302
1.83742
1.85375
1.86448
1.86868
1.87428
1.88978
1.91658
1.9262
1.92491
1.91507
1.89815
1.89286
1.89671
1.9021
1.90146
1.86129
2.0835
1.78429
1.66749
1.65543
1.67389
1.69698
1.73612
1.80209
1.83353
1.82924
1.81368
1.77164
1.74027
1.74005
1.7475
1.76176
1.77314
1.78018
1.78984
1.81259
1.85224
1.8783
1.88057
1.87416
1.85761
1.85129
1.85377
1.86327
1.86676
1.83394
2.09589
1.7947
1.66492
1.57321
1.53747
1.55342
1.59529
1.65594
1.68583
1.68727
1.6779
1.64758
1.62201
1.61963
1.62365
1.6341
1.64531
1.65457
1.66799
1.69478
1.73968
1.77873
1.78666
1.78375
1.77329
1.76973
1.77262
1.78514
1.79419
1.76841
2.11471
1.81618
1.66885
1.54324
1.47951
1.48058
1.51101
1.56905
1.5919
1.5896
1.57344
1.54505
1.52262
1.51563
1.51545
1.51769
1.52428
1.5344
1.55024
1.57884
1.62359
1.66485
1.67834
1.67676
1.67211
1.67334
1.67908
1.69407
1.70532
1.68417
2.12574
1.86244
1.69692
1.57607
1.47923
1.4538
1.46384
1.49733
1.52175
1.52201
1.5095
1.4855
1.466
1.4557
1.45025
1.44394
1.4449
1.45122
1.46427
1.48907
1.52594
1.5601
1.57684
1.57644
1.57606
1.57903
1.58584
1.59773
1.60598
1.58546
2.13863
1.91602
1.74666
1.6182
1.48776
1.44491
1.43712
1.44783
1.46832
1.47
1.46274
1.45067
1.43944
1.43066
1.42222
1.41069
1.40483
1.40608
1.41355
1.43219
1.45727
1.47798
1.49179
1.49813
1.50718
1.52074
1.53026
1.53333
1.52906
1.49316
2.14943
1.9612
1.80046
1.66623
1.52758
1.45866
1.42323
1.41561
1.42651
1.43044
1.42711
1.42113
1.41359
1.40649
1.39734
1.3832
1.37544
1.37619
1.38293
1.39836
1.41403
1.4279
1.44537
1.47033
1.50816
1.55366
1.56558
1.5596
1.53276
1.45783
2.15587
1.99226
1.8439
1.70994
1.57518
1.47564
1.42513
1.40393
1.39857
1.40011
1.39941
1.39762
1.39253
1.38603
1.37694
1.36061
1.35185
1.35309
1.35955
1.37429
1.39238
1.42325
1.4868
1.55896
1.61343
1.64363
1.64338
1.63373
1.61116
1.5147
2.15476
2.00822
1.87326
1.74709
1.6177
1.50765
1.45101
1.40846
1.38398
1.37976
1.37986
1.37791
1.3724
1.36638
1.35705
1.34492
1.33463
1.33543
1.34383
1.3655
1.42678
1.52832
1.60774
1.64487
1.65663
1.65206
1.64544
1.63274
1.61643
1.53435
2.14528
2.01343
1.88888
1.77645
1.65511
1.54342
1.47453
1.41837
1.37484
1.37269
1.36841
1.35316
1.34835
1.34555
1.3414
1.33305
1.32254
1.32624
1.35146
1.44221
1.5628
1.62636
1.64469
1.64137
1.6278
1.61044
1.59494
1.57741
1.55528
1.47786
2.13202
2.01179
1.90016
1.79783
1.68288
1.57287
1.50342
1.44761
1.38385
1.36789
1.35358
1.32609
1.3227
1.32492
1.32807
1.32416
1.32024
1.34658
1.46255
1.5916
1.63676
1.63277
1.62007
1.60329
1.58028
1.55378
1.52865
1.50298
1.47207
1.39686
2.11408
2.00826
1.9077
1.81274
1.70448
1.59573
1.52922
1.47424
1.40073
1.36485
1.34646
1.31807
1.31
1.31225
1.31445
1.31616
1.34467
1.47341
1.6046
1.64832
1.63216
1.6068
1.58413
1.5557
1.52114
1.48878
1.45607
1.42496
1.39186
1.32586
2.0957
2.00322
1.90859
1.81795
1.71846
1.61447
1.54982
1.49653
1.42928
1.37329
1.34601
1.31449
1.2989
1.29821
1.30171
1.32815
1.46399
1.59979
1.64532
1.62854
1.59838
1.56289
1.5269
1.49178
1.45682
1.42495
1.39263
1.36096
1.33154
1.27086
2.07708
1.99656
1.90562
1.81536
1.72606
1.62913
1.56306
1.51424
1.45212
1.38425
1.34593
1.3109
1.29367
1.2864
1.3029
1.43047
1.58557
1.6288
1.61743
1.5914
1.54495
1.50209
1.46617
1.43361
1.40003
1.36749
1.3369
1.30614
1.27484
1.2105
2.0567
1.98594
1.89511
1.80732
1.73096
1.64478
1.57631
1.52727
1.46637
1.39588
1.35475
1.31827
1.29544
1.2933
1.3882
1.57359
1.60941
1.60191
1.57757
1.53472
1.48262
1.44213
1.4101
1.38014
1.3493
1.31683
1.28589
1.25495
1.22624
1.17195
2.03151
1.97315
1.87413
1.79267
1.73128
1.65429
1.58302
1.5343
1.47802
1.41327
1.36604
1.32163
1.29578
1.35414
1.55047
1.61237
1.59596
1.56391
1.51734
1.46997
1.42553
1.38719
1.35705
1.33116
1.30338
1.26919
1.24061
1.21211
1.18748
1.14508
1.98791
1.96119
1.87292
1.78656
1.73216
1.66309
1.59172
1.53932
1.48512
1.42442
1.37151
1.33249
1.35005
1.51183
1.62992
1.60615
1.56849
1.51144
1.45777
1.41203
1.37349
1.33866
1.31083
1.2863
1.26404
1.23209
1.20264
1.17351
1.15006
1.11825
1.90558
1.93484
1.87654
1.79246
1.73354
1.66659
1.59654
1.54335
1.4924
1.43394
1.37872
1.36939
1.49738
1.64919
1.63531
1.59629
1.52952
1.46236
1.41122
1.36592
1.33104
1.29863
1.2696
1.24967
1.22194
1.19339
1.16481
1.14364
1.12211
1.09278
1.73189
1.93815
1.89179
1.80945
1.73961
1.67117
1.60269
1.54834
1.49859
1.43612
1.40462
1.4909
1.68165
1.68823
1.63964
1.5644
1.49293
1.42696
1.37945
1.33657
1.29371
1.25791
1.225
1.206
1.18384
1.1548
1.1358
1.11791
1.09444
1.07276
1.365
1.88262
1.88697
1.82691
1.74929
1.67896
1.61103
1.55653
1.50026
1.44679
1.48466
1.69208
1.75887
1.70034
1.61491
1.53488
1.46363
1.40659
1.35637
1.30983
1.26424
1.22329
1.19223
1.17423
1.15183
1.12627
1.10984
1.09172
1.06839
1.05625
1.09394
1.7258
1.87432
1.82548
1.75476
1.68874
1.62275
1.56417
1.50324
1.5027
1.68512
1.81512
1.77049
1.69139
1.5969
1.51255
1.43946
1.37958
1.3264
1.27709
1.23389
1.19382
1.1652
1.14466
1.12056
1.09741
1.08264
1.06934
1.04885
1.04323
1.00739
1.57133
1.82769
1.81176
1.76143
1.70122
1.63765
1.56684
1.53418
1.66249
1.85499
1.82449
1.75005
1.6625
1.57136
1.48922
1.41473
1.35332
1.29914
1.24911
1.20629
1.16872
1.14416
1.12149
1.09725
1.07628
1.06185
1.05313
1.03705
1.03427
1.00011
1.33798
1.73075
1.7971
1.75835
1.70132
1.63098
1.57459
1.64306
1.87092
1.90217
1.8382
1.73374
1.62674
1.53685
1.46089
1.39116
1.33194
1.27938
1.23179
1.18869
1.15248
1.12856
1.1058
1.08281
1.0638
1.04908
1.04061
1.02673
1.02168
1
1.11777
1.58774
1.76338
1.74221
1.69544
1.61768
1.63477
1.85881
1.95065
1.88665
1.79237
1.68325
1.583
1.50253
1.43216
1.36739
1.31176
1.26188
1.21502
1.17569
1.14341
1.11964
1.09796
1.07697
1.0591
1.04407
1.03061
1.01684
1.00619
1
1.01924
1.42101
1.69198
1.72128
1.6798
1.65329
1.82471
2.01093
1.95638
1.84603
1.73324
1.6344
1.54664
1.47599
1.41386
1.3541
1.30004
1.25176
1.2079
1.16826
1.14826
1.1265
1.10265
1.08143
1.06343
1.04504
1.02375
1.0091
0.994369
1
1.00146
1.21176
1.5814
1.69108
1.67052
1.79534
2.01431
1.98319
1.89603
1.79113
1.69527
1.62064
1.54358
1.4655
1.40358
1.35474
1.30865
1.26363
1.21935
1.17472
1.13848
1.11033
1.08647
1.06737
1.04968
1.03161
1.01445
1.00227
0.98565
1
1.00006
1.0555
1.45352
1.60722
1.73367
2.03475
2.04153
1.95808
1.844
1.74657
1.6631
1.59001
1.51612
1.44902
1.39449
1.34829
1.30182
1.25585
1.21205
1.17211
1.13554
1.10494
1.08057
1.06201
1.0451
1.02828
1.01171
0.999405
0.98237
1
1
1.0066
1.26986
1.55797
1.89671
2.03318
2.00386
1.91939
1.81319
1.72259
1.64424
1.57238
1.51069
1.45521
1.40513
1.35724
1.30923
1.26205
1.21858
1.17994
1.1442
1.11358
1.08934
1.06967
1.05158
1.03394
1.01641
1.00259
0.984199
1
1
1.00039
1.10165
1.63554
2.05138
2.1203
2.00965
1.89961
1.80064
1.71251
1.63379
1.5575
1.49088
1.43673
1.38793
1.33961
1.29165
1.24441
1.20184
1.16411
1.12934
1.09933
1.07535
1.05642
1.03895
1.0212
1.00378
0.990567
0.97312
)
;

boundaryField
{
    inlet
    {
        type            fixedValue;
        value           uniform 1;
    }
    outlet
    {
        type            inletOutlet;
        inletValue      uniform 1;
        value           nonuniform List<scalar> 
30
(
1.86008
1.85811
1.83181
1.76657
1.68217
1.58422
1.49012
1.44599
1.49525
1.52427
1.47585
1.39706
1.32718
1.27141
1.20965
1.1709
1.14407
1.11769
1.09204
1.07253
1.05675
1.04415
1.03517
1.02222
1.00636
0.99453
0.985925
0.982608
0.984501
0.973416
)
;
    }
    top
    {
        type            symmetryPlane;
    }
    bottom
    {
        type            symmetryPlane;
    }
    step
    {
        type            zeroGradient;
    }
    defaultFaces
    {
        type            empty;
    }
}


// ************************************************************************* //
