/*--------------------------------*- C++ -*----------------------------------*\
  =========                 |
  \\      /  F ield         | OpenFOAM: The Open Source CFD Toolbox
   \\    /   O peration     | Website:  https://openfoam.org
    \\  /    A nd           | Version:  6.0
     \\/     M anipulation  |
\*---------------------------------------------------------------------------*/
FoamFile
{
    version     2.0;
    format      ascii;
    class       volVectorField;
    location    "0.999563";
    object      U;
}
// * * * * * * * * * * * * * * * * * * * * * * * * * * * * * * * * * * * * * //

dimensions      [0 1 -1 0 0 0 0];

internalField   nonuniform List<vector> 
2700
(
(3 1.27874e-16 0)
(3 8.27502e-17 0)
(3 -2.23036e-16 0)
(3 1.07885e-16 0)
(3 5.4093e-16 0)
(3 2.87741e-16 0)
(3 3.05378e-16 0)
(3 7.0376e-16 0)
(3 1.89602e-16 0)
(3 4.87835e-16 0)
(3 5.68894e-16 0)
(3 1.73805e-16 0)
(3 -1.95896e-16 0)
(3 7.02302e-16 0)
(3 2.72148e-16 0)
(3 -6.17524e-16 0)
(2.82532 0.00266045 0)
(0.935165 0.00933881 0)
(0.659234 0.00499926 0)
(0.616745 0.00894199 0)
(0.56379 0.0175386 0)
(0.516014 0.0234764 0)
(0.476716 0.0110672 0)
(0.422636 -0.00465449 0)
(0.358873 -0.0079143 0)
(0.296883 -0.00809092 0)
(0.234337 -0.00846244 0)
(0.162481 -0.00291467 0)
(0.0760003 0.0154755 0)
(0.0236055 0.034437 0)
(3 7.70506e-18 0)
(3 -1.43419e-18 0)
(3 1.49229e-16 0)
(3 -2.78423e-16 0)
(3 3.64445e-16 0)
(3 3.73794e-16 0)
(3 2.81374e-16 0)
(3 1.04695e-15 0)
(3 5.95135e-16 0)
(3 1.503e-15 0)
(3 1.56563e-15 0)
(3 5.77559e-16 0)
(3 -1.56781e-18 0)
(3 5.17366e-16 0)
(3 8.76508e-16 0)
(3 -3.51033e-17 0)
(2.82499 0.00964649 0)
(0.928802 0.0303071 0)
(0.656415 0.0128528 0)
(0.620774 0.0121853 0)
(0.572273 0.0323769 0)
(0.518139 0.0572103 0)
(0.465404 0.0544818 0)
(0.411281 0.0222809 0)
(0.354259 0.000987402 0)
(0.295124 -0.00480956 0)
(0.234768 -0.0132386 0)
(0.169317 -0.0111144 0)
(0.10117 0.0202626 0)
(0.0308304 0.0749313 0)
(3 -1.42469e-16 0)
(3 1.6715e-16 0)
(3 3.33471e-16 0)
(3 1.62678e-16 0)
(3 6.75025e-16 0)
(3 3.80216e-16 0)
(3 -7.1158e-17 0)
(3 1.8485e-16 0)
(3 1.45958e-16 0)
(3 9.22749e-16 0)
(3 8.93472e-16 0)
(3 1.24766e-15 0)
(3 9.86411e-16 0)
(3 1.54649e-15 0)
(3 1.1821e-15 0)
(3 7.16888e-16 0)
(2.82929 0.0151346 0)
(0.928348 0.0485901 0)
(0.654157 0.0271211 0)
(0.620923 0.0287512 0)
(0.57761 0.0394173 0)
(0.520511 0.0551766 0)
(0.454785 0.0553834 0)
(0.397118 0.0489935 0)
(0.345229 0.0472757 0)
(0.290491 0.0578241 0)
(0.230168 0.0540868 0)
(0.172921 0.0405037 0)
(0.114933 0.0626545 0)
(0.0387503 0.079005 0)
(3 4.82205e-17 0)
(3 9.00536e-18 0)
(3 2.00804e-16 0)
(3 4.26474e-17 0)
(3 1.17856e-16 0)
(3 1.21194e-16 0)
(3 -4.95995e-17 0)
(3 -2.21449e-16 0)
(3 -6.60049e-17 0)
(3 -1.40278e-16 0)
(3 -7.22634e-17 0)
(3 -6.39968e-16 0)
(3 8.13971e-16 0)
(3 9.37481e-16 0)
(3 1.20884e-15 0)
(3 1.06553e-15 0)
(2.83622 0.0202385 0)
(0.931832 0.0668358 0)
(0.656875 0.0447513 0)
(0.624857 0.0351896 0)
(0.579684 0.0426809 0)
(0.520871 0.0527236 0)
(0.452689 0.0653867 0)
(0.397379 0.0718653 0)
(0.356713 0.0973243 0)
(0.297296 0.121719 0)
(0.228303 0.126955 0)
(0.166404 0.127296 0)
(0.113958 0.0996658 0)
(0.0401043 0.0725924 0)
(3 2.71803e-16 0)
(3 1.02269e-16 0)
(3 -5.80253e-16 0)
(3 -4.46953e-16 0)
(3 -4.27385e-16 0)
(3 2.43666e-16 0)
(3 4.22549e-16 0)
(3 7.51219e-17 0)
(3 -6.76265e-17 0)
(3 -1.8801e-17 0)
(3 2.16408e-16 0)
(3 7.3134e-16 0)
(3 1.30983e-15 0)
(3 6.34699e-16 0)
(3 9.20726e-16 0)
(3 1.47344e-15 0)
(2.84387 0.0264671 0)
(0.938518 0.0856915 0)
(0.662195 0.0624703 0)
(0.629138 0.0428692 0)
(0.580919 0.047167 0)
(0.520943 0.0511607 0)
(0.458398 0.0636712 0)
(0.411062 0.111822 0)
(0.361273 0.135589 0)
(0.2961 0.137525 0)
(0.228203 0.145443 0)
(0.153855 0.14505 0)
(0.0964088 0.122878 0)
(0.0370002 0.0880653 0)
(3 -4.74725e-18 0)
(3 9.02988e-17 0)
(3 -3.01901e-16 0)
(3 -8.97949e-16 0)
(3 -6.06618e-16 0)
(3 3.38187e-16 0)
(3 6.14566e-17 0)
(3 3.75276e-17 0)
(3 2.90166e-17 0)
(3 -1.0264e-15 0)
(3 1.28891e-16 0)
(3 1.15937e-15 0)
(3 1.51022e-15 0)
(3 1.42355e-15 0)
(3 1.02039e-15 0)
(3 1.54943e-15 0)
(2.85683 0.0353254 0)
(0.950339 0.104829 0)
(0.665645 0.0789956 0)
(0.631262 0.0590783 0)
(0.578752 0.0521771 0)
(0.520856 0.0555522 0)
(0.469437 0.0982456 0)
(0.417801 0.129561 0)
(0.361588 0.128205 0)
(0.296564 0.114059 0)
(0.230186 0.108232 0)
(0.157014 0.12366 0)
(0.0842067 0.132777 0)
(0.0355864 0.121018 0)
(3 1.22874e-17 0)
(3 2.67351e-16 0)
(3 5.11131e-16 0)
(3 -2.67415e-16 0)
(3 -9.75637e-16 0)
(3 -1.14182e-16 0)
(3 -1.44605e-16 0)
(3 4.04927e-16 0)
(3 -1.08667e-17 0)
(3 -8.85549e-16 0)
(3 -1.00525e-15 0)
(3 -6.55965e-16 0)
(3 2.81169e-16 0)
(3 1.14734e-15 0)
(3 1.55096e-15 0)
(3 6.09319e-16 0)
(2.87687 0.0446787 0)
(0.965885 0.12347 0)
(0.671333 0.09023 0)
(0.632636 0.0771511 0)
(0.574231 0.0711012 0)
(0.529286 0.0798358 0)
(0.482863 0.124793 0)
(0.420888 0.154752 0)
(0.351978 0.145148 0)
(0.283761 0.106478 0)
(0.226113 0.0841334 0)
(0.161385 0.0865148 0)
(0.100501 0.134239 0)
(0.0400288 0.151734 0)
(3 -5.98086e-17 0)
(3 7.99718e-17 0)
(3 6.67111e-17 0)
(3 1.73239e-16 0)
(3 -9.33916e-17 0)
(3 -1.96288e-16 0)
(3 2.81898e-17 0)
(3 8.76016e-16 0)
(3 9.77585e-17 0)
(3 -8.95408e-16 0)
(3 -2.84695e-16 0)
(3 -3.04507e-16 0)
(3 -2.80528e-17 0)
(3 1.19638e-16 0)
(3 3.30005e-17 0)
(3 1.33125e-16 0)
(2.90365 0.051355 0)
(0.985283 0.138277 0)
(0.679981 0.0953095 0)
(0.63441 0.0843647 0)
(0.576062 0.101869 0)
(0.53799 0.130325 0)
(0.490793 0.140075 0)
(0.424104 0.151432 0)
(0.342013 0.139678 0)
(0.272752 0.120235 0)
(0.220298 0.1198 0)
(0.168459 0.144664 0)
(0.111839 0.167525 0)
(0.0375381 0.16011 0)
(3 -1.13415e-16 0)
(3 -1.53867e-17 0)
(3 -4.95039e-16 0)
(3 3.00162e-17 0)
(3 3.39558e-16 0)
(3 -3.30552e-16 0)
(3 2.17198e-16 0)
(3 3.75016e-16 0)
(3 6.7513e-16 0)
(3 5.727e-16 0)
(3 8.88304e-16 0)
(3 9.25615e-16 0)
(3 -3.48531e-16 0)
(3 -1.2553e-15 0)
(3 -6.27233e-16 0)
(3 -4.19587e-17 0)
(2.93188 0.0538825 0)
(1.00219 0.149685 0)
(0.687659 0.09668 0)
(0.642938 0.0925735 0)
(0.586807 0.131865 0)
(0.535394 0.17215 0)
(0.485276 0.162262 0)
(0.423065 0.135529 0)
(0.341617 0.135204 0)
(0.271777 0.157649 0)
(0.229239 0.194403 0)
(0.171237 0.218322 0)
(0.102341 0.192457 0)
(0.0396685 0.1603 0)
(3 1.51433e-16 0)
(3 3.98365e-16 0)
(3 1.8632e-16 0)
(3 -1.81433e-17 0)
(3 4.23008e-16 0)
(3 1.39434e-16 0)
(3 1.81195e-16 0)
(3 -1.55441e-17 0)
(3 2.82621e-16 0)
(3 7.29506e-16 0)
(3 1.63825e-16 0)
(3 2.14143e-16 0)
(3 -8.44532e-16 0)
(3 -9.63624e-16 0)
(3 -2.00725e-16 0)
(3 -9.24935e-16 0)
(2.95954 0.0438317 0)
(1.01985 0.162337 0)
(0.692365 0.109132 0)
(0.65027 0.120901 0)
(0.599158 0.158672 0)
(0.538123 0.18547 0)
(0.473275 0.184229 0)
(0.409705 0.132643 0)
(0.351684 0.118462 0)
(0.300924 0.175269 0)
(0.248038 0.246146 0)
(0.166431 0.277599 0)
(0.078018 0.23401 0)
(0.0424929 0.200433 0)
(3 -1.11818e-16 0)
(3 7.95965e-16 0)
(3 1.62083e-15 0)
(3 2.5127e-16 0)
(3 2.44123e-16 0)
(3 4.22795e-16 0)
(3 1.58277e-16 0)
(3 2.77082e-16 0)
(3 1.63677e-16 0)
(3 3.01577e-16 0)
(3 -5.42679e-16 0)
(3 -1.60985e-16 0)
(3 -2.04399e-16 0)
(3 7.5711e-16 0)
(3 -2.84909e-16 0)
(3 -5.63976e-16 0)
(2.98324 0.0254452 0)
(1.04803 0.175366 0)
(0.699752 0.133555 0)
(0.657099 0.148688 0)
(0.60638 0.166507 0)
(0.541024 0.187048 0)
(0.465368 0.175245 0)
(0.395599 0.16628 0)
(0.361773 0.194538 0)
(0.315089 0.242075 0)
(0.259004 0.242378 0)
(0.167977 0.233634 0)
(0.0679131 0.246951 0)
(0.0478727 0.274753 0)
(3 1.90005e-16 0)
(3 1.11868e-16 0)
(3 1.00685e-16 0)
(3 6.40656e-16 0)
(3 1.22114e-16 0)
(3 -6.45611e-17 0)
(3 -1.07839e-16 0)
(3 2.40242e-16 0)
(3 1.10281e-17 0)
(3 9.31021e-17 0)
(3 1.58404e-16 0)
(3 -6.53096e-18 0)
(3 8.14052e-16 0)
(3 4.56136e-16 0)
(3 3.90446e-16 0)
(3 -4.60162e-17 0)
(3.00077 0.00457185 0)
(1.08144 0.188038 0)
(0.702403 0.159651 0)
(0.659484 0.165004 0)
(0.607175 0.168805 0)
(0.539321 0.166353 0)
(0.46166 0.18155 0)
(0.407181 0.216264 0)
(0.375397 0.269502 0)
(0.315584 0.268062 0)
(0.249446 0.219523 0)
(0.161548 0.180954 0)
(0.0896526 0.243937 0)
(0.0544355 0.323187 0)
(3 -3.39017e-17 0)
(3 -7.61125e-16 0)
(3 -1.31252e-15 0)
(3 -2.52295e-16 0)
(3 -1.98171e-16 0)
(3 -7.35768e-16 0)
(3 -5.22269e-16 0)
(3 -2.14946e-16 0)
(3 -4.7103e-17 0)
(3 -9.53092e-17 0)
(3 4.45473e-16 0)
(3 1.65438e-16 0)
(3 6.78126e-16 0)
(3 1.46944e-16 0)
(3 5.9854e-17 0)
(3 -1.51527e-17 0)
(3.00005 7.53225e-05 0)
(1.12186 0.201366 0)
(0.705697 0.177864 0)
(0.658543 0.175501 0)
(0.601732 0.167984 0)
(0.535883 0.161284 0)
(0.477906 0.1879 0)
(0.435188 0.29017 0)
(0.374911 0.312454 0)
(0.300642 0.272265 0)
(0.221017 0.187976 0)
(0.17035 0.172354 0)
(0.137042 0.240568 0)
(0.0689683 0.343962 0)
(3 -2.63334e-16 0)
(3 -4.56843e-16 0)
(3 -6.18047e-16 0)
(3 -8.07545e-16 0)
(3 -9.64962e-16 0)
(3 -9.27813e-16 0)
(3 -7.29734e-16 0)
(3 1.72798e-16 0)
(3 3.48936e-16 0)
(3 3.62797e-17 0)
(3 -1.44886e-17 0)
(3 -1.10002e-16 0)
(3 3.52849e-16 0)
(3 -1.80199e-16 0)
(3 -4.2095e-16 0)
(3 -1.43753e-15 0)
(3 6.64749e-08 0)
(1.16882 0.212508 0)
(0.708983 0.191207 0)
(0.657089 0.176294 0)
(0.594181 0.168297 0)
(0.53347 0.181399 0)
(0.500234 0.262998 0)
(0.445208 0.300401 0)
(0.375474 0.304674 0)
(0.27532 0.246257 0)
(0.207456 0.21718 0)
(0.173541 0.216797 0)
(0.165593 0.292967 0)
(0.0808768 0.324834 0)
(3 2.50136e-16 0)
(3 2.52529e-16 0)
(3 -1.01533e-16 0)
(3 5.47923e-19 0)
(3 4.75122e-17 0)
(3 -2.19791e-16 0)
(3 2.35871e-17 0)
(3 1.11178e-16 0)
(3 7.26885e-16 0)
(3 9.63793e-19 0)
(3 -1.11777e-15 0)
(3 -2.48133e-16 0)
(3 -4.6767e-16 0)
(3 9.10138e-17 0)
(3 2.04169e-17 0)
(3 -1.19219e-15 0)
(3 1.39325e-12 0)
(1.22433 0.225225 0)
(0.711833 0.198648 0)
(0.652363 0.180013 0)
(0.595525 0.189826 0)
(0.553121 0.253943 0)
(0.502928 0.302122 0)
(0.44643 0.295223 0)
(0.367125 0.249357 0)
(0.269767 0.2378 0)
(0.214217 0.274508 0)
(0.19266 0.340947 0)
(0.165653 0.345348 0)
(0.0672715 0.271475 0)
(3 4.49231e-16 0)
(3 4.37113e-16 0)
(3 5.25574e-16 0)
(3 -1.762e-16 0)
(3 6.03081e-17 0)
(3 3.00744e-16 0)
(3 5.71407e-16 0)
(3 3.96856e-17 0)
(3 2.2802e-16 0)
(3 2.61142e-16 0)
(3 -2.86526e-16 0)
(3 -8.99423e-16 0)
(3 -1.11605e-15 0)
(3 2.38668e-16 0)
(3 -2.24546e-17 0)
(3 -3.38641e-16 0)
(3 -3.44813e-15 0)
(1.28835 0.238703 0)
(0.712304 0.197194 0)
(0.655762 0.19865 0)
(0.612264 0.24346 0)
(0.566195 0.308434 0)
(0.501044 0.331431 0)
(0.427968 0.31554 0)
(0.34705 0.22772 0)
(0.292228 0.226331 0)
(0.261473 0.360021 0)
(0.195326 0.429013 0)
(0.133176 0.387332 0)
(0.0557452 0.265153 0)
(3 -5.41887e-17 0)
(3 -6.93399e-17 0)
(3 -3.24032e-16 0)
(3 -1.63632e-16 0)
(3 3.58786e-20 0)
(3 2.89115e-16 0)
(3 1.19272e-16 0)
(3 -7.53833e-16 0)
(3 4.62147e-17 0)
(3 -2.80833e-16 0)
(3 -1.24035e-16 0)
(3 -8.09783e-16 0)
(3 -6.91191e-16 0)
(3 -2.37993e-16 0)
(3 -1.72498e-16 0)
(3 2.02786e-16 0)
(3 -2.75405e-15 0)
(1.35907 0.249947 0)
(0.714431 0.202034 0)
(0.66657 0.244341 0)
(0.620812 0.298115 0)
(0.564578 0.330331 0)
(0.494828 0.338195 0)
(0.410966 0.288101 0)
(0.335065 0.251492 0)
(0.311464 0.274464 0)
(0.293893 0.38076 0)
(0.200316 0.442871 0)
(0.0947438 0.385358 0)
(0.0458405 0.281941 0)
(3 -6.50871e-16 0)
(3 -5.52493e-16 0)
(3 -7.85962e-16 0)
(3 5.81399e-16 0)
(3 4.06861e-17 0)
(3 -2.03584e-16 0)
(3 -7.89883e-16 0)
(3 -9.57798e-16 0)
(3 -3.48897e-16 0)
(3 1.23694e-16 0)
(3 -5.98063e-17 0)
(3 -6.7245e-16 0)
(3 -6.11219e-16 0)
(3 -1.20237e-15 0)
(3 -1.10183e-15 0)
(3 4.23973e-16 0)
(3 -1.57967e-16 0)
(1.42962 0.260884 0)
(0.730072 0.223977 0)
(0.676553 0.27974 0)
(0.621936 0.318689 0)
(0.558295 0.340626 0)
(0.485137 0.318557 0)
(0.394455 0.27083 0)
(0.348972 0.278446 0)
(0.343582 0.361721 0)
(0.320856 0.404155 0)
(0.205294 0.457942 0)
(0.0473921 0.385196 0)
(0.0385099 0.326573 0)
(3 -1.73864e-16 0)
(3 -8.70784e-16 0)
(3 -4.29584e-16 0)
(3 3.1906e-16 0)
(3 -2.88275e-16 0)
(3 -2.50062e-16 0)
(3 -2.20679e-16 0)
(3 2.35587e-16 0)
(3 -4.14091e-16 0)
(3 7.05031e-16 0)
(3 1.02531e-15 0)
(3 3.5563e-16 0)
(3 4.42421e-17 0)
(3 -6.59355e-16 0)
(3 -6.7759e-16 0)
(3 6.26938e-16 0)
(3 1.37244e-15 0)
(1.5037 0.273902 0)
(0.748671 0.251869 0)
(0.681028 0.304244 0)
(0.618079 0.331021 0)
(0.546115 0.326025 0)
(0.461879 0.285752 0)
(0.395871 0.275022 0)
(0.383386 0.337228 0)
(0.352955 0.386955 0)
(0.327553 0.378459 0)
(0.208485 0.349515 0)
(0.0555502 0.401019 0)
(0.0551287 0.511173 0)
(3 -1.33358e-16 0)
(3 -4.30478e-16 0)
(3 -4.90398e-16 0)
(3 -2.7557e-16 0)
(3 1.14978e-16 0)
(3 4.77282e-16 0)
(3 7.72898e-16 0)
(3 3.41967e-16 0)
(3 2.35523e-16 0)
(3 6.58892e-16 0)
(3 8.15252e-16 0)
(3 2.99493e-17 0)
(3 -5.24416e-17 0)
(3 -3.08478e-16 0)
(3 -3.78763e-18 0)
(3 1.13635e-16 0)
(3 6.58424e-16 0)
(1.57994 0.294665 0)
(0.766771 0.285599 0)
(0.674043 0.327088 0)
(0.607564 0.326729 0)
(0.520472 0.286257 0)
(0.459229 0.284975 0)
(0.414283 0.318134 0)
(0.412748 0.390817 0)
(0.36033 0.398155 0)
(0.311963 0.357225 0)
(0.215575 0.344411 0)
(0.108092 0.452135 0)
(0.0671843 0.567453 0)
(3 -7.69825e-17 0)
(3 7.45943e-16 0)
(3 9.28502e-16 0)
(3 4.73789e-16 0)
(3 7.49461e-16 0)
(3 9.93117e-16 0)
(3 5.38011e-16 0)
(3 4.95214e-16 0)
(3 4.99828e-16 0)
(3 7.61886e-16 0)
(3 4.021e-16 0)
(3 2.4941e-16 0)
(3 -1.94048e-16 0)
(3 -5.68652e-17 0)
(3 -6.63839e-16 0)
(3 -1.98537e-16 0)
(3 -1.74038e-16 0)
(1.66203 0.320987 0)
(0.779682 0.326375 0)
(0.657135 0.343967 0)
(0.582781 0.302556 0)
(0.510619 0.279609 0)
(0.471925 0.284696 0)
(0.454008 0.365478 0)
(0.42524 0.43199 0)
(0.36224 0.439729 0)
(0.294859 0.385059 0)
(0.23508 0.368839 0)
(0.165347 0.497146 0)
(0.0746957 0.603072 0)
(3 1.19187e-16 0)
(3 7.48484e-16 0)
(3 1.49344e-15 0)
(3 1.12497e-15 0)
(3 1.06656e-15 0)
(3 6.72853e-16 0)
(3 6.84869e-16 0)
(3 4.21329e-16 0)
(3 6.91669e-16 0)
(3 8.44486e-16 0)
(3 2.33497e-16 0)
(3 7.46333e-16 0)
(3 1.02207e-15 0)
(3 9.02533e-17 0)
(3 -2.18546e-17 0)
(3 5.90026e-16 0)
(3 -2.78943e-17 0)
(1.76033 0.343476 0)
(0.778038 0.372063 0)
(0.63547 0.340835 0)
(0.564896 0.290162 0)
(0.509601 0.292906 0)
(0.489157 0.311474 0)
(0.493691 0.400973 0)
(0.451928 0.450164 0)
(0.370613 0.494515 0)
(0.278787 0.510761 0)
(0.238101 0.494318 0)
(0.201124 0.512827 0)
(0.0806841 0.554885 0)
(3 -1.06736e-16 0)
(3 1.69988e-16 0)
(3 4.48017e-16 0)
(3 6.38182e-16 0)
(3 4.5805e-16 0)
(3 8.10858e-17 0)
(3 4.5399e-16 0)
(3 6.63028e-16 0)
(3 1.06875e-15 0)
(3 3.03451e-16 0)
(3 -2.21207e-16 0)
(3 2.86744e-16 0)
(3 1.58493e-16 0)
(3 4.50998e-16 0)
(3 3.46793e-16 0)
(3 4.98327e-16 0)
(3 1.32189e-16 0)
(1.88544 0.359184 0)
(0.774193 0.401192 0)
(0.611378 0.337393 0)
(0.566294 0.293946 0)
(0.532675 0.304478 0)
(0.534409 0.404748 0)
(0.517929 0.438982 0)
(0.480923 0.456542 0)
(0.392303 0.514074 0)
(0.293736 0.571805 0)
(0.226597 0.597138 0)
(0.183896 0.54039 0)
(0.0785843 0.480878 0)
(3 2.81916e-16 0)
(3 -1.73878e-16 0)
(3 1.72019e-16 0)
(3 2.37121e-17 0)
(3 -5.75089e-16 0)
(3 -4.31251e-16 0)
(3 4.80075e-16 0)
(3 8.53769e-16 0)
(3 8.20532e-16 0)
(3 -3.66435e-16 0)
(3 -4.68668e-16 0)
(3 2.56153e-18 0)
(3 -1.05575e-15 0)
(3 -8.03422e-16 0)
(3 -1.93488e-16 0)
(3 -2.60651e-16 0)
(3 -1.35279e-15 0)
(2.04203 0.367386 0)
(0.779611 0.415712 0)
(0.606037 0.33895 0)
(0.586198 0.315714 0)
(0.582305 0.37789 0)
(0.579596 0.451506 0)
(0.541438 0.47394 0)
(0.506042 0.467204 0)
(0.41732 0.507467 0)
(0.305926 0.570704 0)
(0.224623 0.603492 0)
(0.148377 0.564791 0)
(0.0772336 0.494479 0)
(3 1.7979e-16 0)
(3 -6.43829e-17 0)
(3 1.10403e-16 0)
(3 -3.65306e-16 0)
(3 -5.13997e-16 0)
(3 1.41798e-17 0)
(3 2.90594e-16 0)
(3 9.30456e-16 0)
(3 2.93939e-16 0)
(3 -4.98775e-16 0)
(3 -2.52797e-16 0)
(3 -6.27214e-16 0)
(3 -1.80344e-15 0)
(3 -1.98093e-15 0)
(3 -1.10141e-15 0)
(3 -1.07734e-15 0)
(3 -2.2686e-15 0)
(2.24301 0.364217 0)
(0.812536 0.4054 0)
(0.635713 0.339629 0)
(0.647006 0.355241 0)
(0.660727 0.444736 0)
(0.621327 0.480029 0)
(0.569523 0.499632 0)
(0.511505 0.497178 0)
(0.422708 0.402249 0)
(0.350381 0.454978 0)
(0.236245 0.590295 0)
(0.135706 0.596429 0)
(0.0664066 0.533694 0)
(3 -2.21892e-16 0)
(3 -3.25856e-16 0)
(3 -2.00139e-16 0)
(3 4.86947e-17 0)
(3 3.41555e-16 0)
(3 2.72039e-16 0)
(3 3.76756e-16 0)
(3 5.5121e-16 0)
(3 -5.34874e-17 0)
(3 4.71523e-16 0)
(3 2.54394e-16 0)
(3 -1.29625e-15 0)
(3 -1.35893e-15 0)
(3 -9.07658e-16 0)
(3 -1.06286e-15 0)
(3 -8.0099e-16 0)
(3 -2.18034e-16 0)
(2.52327 0.357395 0)
(0.888607 0.374492 0)
(0.72799 0.350261 0)
(0.744173 0.438335 0)
(0.720136 0.488906 0)
(0.664367 0.507738 0)
(0.590259 0.497726 0)
(0.507779 0.420594 0)
(0.418743 0.36747 0)
(0.383374 0.421171 0)
(0.279877 0.555553 0)
(0.141298 0.674585 0)
(0.0835899 0.771701 0)
(3 -6.52108e-16 0)
(3 -4.38412e-16 0)
(3 -3.27963e-16 0)
(3 -9.24569e-17 0)
(3 4.30597e-16 0)
(3 5.77547e-16 0)
(3 8.26173e-16 0)
(3 4.95211e-16 0)
(3 5.64739e-16 0)
(3 1.30014e-15 0)
(3 9.0992e-16 0)
(3 -8.86989e-17 0)
(3 -3.79737e-16 0)
(3 -7.45963e-16 0)
(3 -1.08973e-15 0)
(3 -8.60752e-16 0)
(3 -4.61175e-16 0)
(2.80103 0.274643 0)
(0.999518 0.390786 0)
(0.817623 0.420272 0)
(0.819918 0.489105 0)
(0.775719 0.509999 0)
(0.695805 0.526161 0)
(0.598137 0.485375 0)
(0.48791 0.353134 0)
(0.444926 0.354814 0)
(0.405467 0.432372 0)
(0.337313 0.588278 0)
(0.243616 0.899035 0)
(0.114225 1.04286 0)
(3 3.65399e-16 0)
(3 1.08549e-16 0)
(3 -6.60003e-16 0)
(3 -6.8684e-16 0)
(3 -6.26061e-17 0)
(3 8.06817e-16 0)
(3 8.53009e-16 0)
(3 4.00341e-16 0)
(3 1.40911e-15 0)
(3 1.35745e-15 0)
(3 1.92037e-15 0)
(3 1.05935e-15 0)
(3 1.79071e-16 0)
(3 -8.79915e-16 0)
(3 -8.50652e-16 0)
(3 -5.66577e-16 0)
(3 -5.58541e-16 0)
(2.94122 0.147467 0)
(1.08099 0.427992 0)
(0.85422 0.463498 0)
(0.850249 0.494951 0)
(0.802277 0.51493 0)
(0.724288 0.509829 0)
(0.566976 0.409231 0)
(0.493732 0.385715 0)
(0.462823 0.430308 0)
(0.467419 0.626148 0)
(0.424389 0.810838 0)
(0.278778 0.999919 0)
(0.137764 1.11892 0)
(3 4.33095e-16 0)
(3 1.38449e-16 0)
(3 -5.0047e-16 0)
(3 -8.8441e-16 0)
(3 -3.50889e-16 0)
(3 3.27797e-16 0)
(3 6.16114e-16 0)
(3 7.22936e-16 0)
(3 9.01786e-16 0)
(3 1.04142e-15 0)
(3 1.19764e-15 0)
(3 4.3857e-16 0)
(3 4.25648e-17 0)
(3 2.42664e-16 0)
(3 6.31484e-16 0)
(3 1.56462e-16 0)
(3 -7.78078e-16 0)
(2.93082 0.0927341 0)
(1.08271 0.45965 0)
(0.84365 0.485375 0)
(0.855201 0.498312 0)
(0.810671 0.509098 0)
(0.700147 0.410441 0)
(0.583314 0.415936 0)
(0.536597 0.472593 0)
(0.544757 0.698596 0)
(0.509111 0.797021 0)
(0.444616 0.864354 0)
(0.370618 0.975589 0)
(0.160767 1.21676 0)
(3 -5.25379e-17 0)
(3 -1.4806e-16 0)
(3 -2.84019e-16 0)
(3 -7.55661e-16 0)
(3 -1.8414e-16 0)
(3 -2.04167e-16 0)
(3 3.85155e-16 0)
(3 1.13002e-15 0)
(3 1.12204e-15 0)
(3 2.00182e-16 0)
(3 2.46499e-17 0)
(3 3.68906e-16 0)
(3 3.27477e-16 0)
(3 9.79317e-16 0)
(3 4.18983e-16 0)
(3 -5.28118e-16 0)
(3 -6.12509e-16 0)
(2.93821 0.0600176 0)
(1.09564 0.465244 0)
(0.80956 0.48062 0)
(0.835884 0.480748 0)
(0.770075 0.422643 0)
(0.684952 0.398157 0)
(0.622664 0.462143 0)
(0.626585 0.633173 0)
(0.588423 0.747441 0)
(0.549989 0.81211 0)
(0.497835 0.8928 0)
(0.469607 0.995224 0)
(0.226549 1.06241 0)
(3 7.65718e-17 0)
(3 4.1655e-17 0)
(3 1.74289e-16 0)
(3 5.30125e-16 0)
(3 8.77568e-17 0)
(3 -1.6388e-16 0)
(3 -4.76368e-17 0)
(3 2.72391e-16 0)
(3 3.74837e-16 0)
(3 -2.42775e-16 0)
(3 -3.25816e-16 0)
(3 1.04214e-16 0)
(3 5.66341e-16 0)
(3 5.9589e-16 0)
(3 -1.44107e-16 0)
(3 -3.39385e-16 0)
(3 -2.7684e-16 0)
(3.00351 0.00506726 0)
(1.28139 0.445959 0)
(0.791359 0.453363 0)
(0.759263 0.461031 0)
(0.720171 0.480271 0)
(0.705411 0.533806 0)
(0.70346 0.604646 0)
(0.691907 0.672709 0)
(0.651873 0.706734 0)
(0.604767 0.739881 0)
(0.574121 0.816992 0)
(0.603149 0.914714 0)
(0.732326 1.08193 0)
(3 -5.83642e-17 0)
(3 1.72895e-16 0)
(3 6.50481e-16 0)
(3 4.81338e-16 0)
(3 1.73695e-16 0)
(3 5.80187e-18 0)
(3 -3.17845e-16 0)
(3 -2.89683e-16 0)
(3 -3.31647e-16 0)
(3 -3.50824e-16 0)
(3 -7.73367e-16 0)
(3 -5.01735e-16 0)
(3 3.26333e-17 0)
(3 3.43731e-16 0)
(3 3.20346e-16 0)
(3 -2.33254e-16 0)
(3 -2.29657e-16 0)
(3.00009 4.44467e-06 0)
(1.9139 0.47484 0)
(0.846119 0.532812 0)
(0.773261 0.540167 0)
(0.764149 0.581631 0)
(0.748148 0.621276 0)
(0.732921 0.649979 0)
(0.721642 0.659945 0)
(0.694374 0.686109 0)
(0.686604 0.748326 0)
(0.707475 0.865538 0)
(0.835735 1.02004 0)
(1.12439 1.17269 0)
(3 8.695e-17 0)
(3 4.79431e-17 0)
(3 -3.52084e-16 0)
(3 -3.75558e-16 0)
(3 -3.69551e-16 0)
(3 -1.51347e-16 0)
(3 -2.14285e-16 0)
(3 -1.05078e-16 0)
(3 1.17326e-16 0)
(3 3.32385e-16 0)
(3 -4.10791e-16 0)
(3 -8.56682e-16 0)
(3 -9.04721e-16 0)
(3 -6.508e-16 0)
(3 -5.17247e-16 0)
(3 -4.08613e-16 0)
(3 -1.96496e-16 0)
(3 1.19584e-08 0)
(2.88504 0.197839 0)
(1.12194 0.622111 0)
(0.878582 0.594647 0)
(0.835742 0.610415 0)
(0.801096 0.637879 0)
(0.777664 0.661358 0)
(0.760028 0.692968 0)
(0.761983 0.746458 0)
(0.797978 0.827345 0)
(0.870583 0.928927 0)
(1.00599 1.04088 0)
(1.24209 1.12348 0)
(3 -1.79711e-17 0)
(3 -3.79362e-16 0)
(3 -4.40591e-16 0)
(3 -4.86284e-16 0)
(3 -4.42611e-16 0)
(3 -3.6995e-16 0)
(3 -1.13611e-16 0)
(3 -7.88435e-17 0)
(3 -1.53349e-16 0)
(3 3.24776e-16 0)
(3 4.18546e-16 0)
(3 1.5666e-16 0)
(3 -3.12513e-16 0)
(3 -7.21399e-16 0)
(3 -5.37171e-16 0)
(3 -1.20236e-16 0)
(3 -2.36171e-16 0)
(3 -2.12996e-10 0)
(3.02881 0.006511 0)
(1.60605 0.613288 0)
(0.944785 0.681697 0)
(0.884993 0.673982 0)
(0.86226 0.696861 0)
(0.849934 0.723369 0)
(0.852369 0.760491 0)
(0.868146 0.805951 0)
(0.905705 0.852674 0)
(0.979734 0.909102 0)
(1.11421 0.963846 0)
(1.32174 1.00241 0)
(3 -1.67903e-16 0)
(3 -2.97983e-17 0)
(3 -8.53167e-18 0)
(3 -2.03753e-16 0)
(3 -2.76449e-16 0)
(3 -2.69802e-16 0)
(3 -3.33645e-16 0)
(3 -5.57213e-16 0)
(3 -1.22806e-15 0)
(3 -5.5604e-16 0)
(3 6.76698e-16 0)
(3 3.43297e-16 0)
(3 2.30466e-16 0)
(3 1.37405e-16 0)
(3 -1.26854e-16 0)
(3 -5.56556e-16 0)
(3 -2.13604e-16 0)
(3 -1.73676e-10 0)
(3.00027 5.28589e-05 0)
(2.66208 0.330514 0)
(1.1414 0.712455 0)
(0.965574 0.725614 0)
(0.965222 0.727024 0)
(0.962619 0.753118 0)
(0.961664 0.783331 0)
(0.970419 0.818611 0)
(1.007 0.860022 0)
(1.08542 0.90043 0)
(1.20229 0.929733 0)
(1.37217 0.947952 0)
(3 2.01604e-16 0)
(3 4.03778e-16 0)
(3 5.65549e-17 0)
(3 -1.50154e-16 0)
(3 -4.19156e-17 0)
(3 -2.60342e-16 0)
(3 -5.44553e-16 0)
(3 -8.51998e-16 0)
(3 -7.76033e-16 0)
(3 -7.16605e-16 0)
(3 -9.69107e-16 0)
(3 -3.5735e-16 0)
(3 3.1015e-17 0)
(3 1.94332e-16 0)
(3 -2.37446e-16 0)
(3 -4.93384e-16 0)
(3 -1.01206e-16 0)
(3 -1.14907e-11 0)
(3 -1.4088e-07 0)
(3.03527 0.0167965 0)
(1.66141 0.689644 0)
(1.04659 0.793764 0)
(1.02883 0.791287 0)
(1.03479 0.801997 0)
(1.04378 0.821071 0)
(1.06484 0.841674 0)
(1.10104 0.864184 0)
(1.16888 0.887127 0)
(1.26449 0.900178 0)
(1.3996 0.90997 0)
(3 -5.4757e-17 0)
(3 6.43013e-17 0)
(3 4.3316e-17 0)
(3 -2.10943e-17 0)
(3 3.55592e-17 0)
(3 3.56495e-17 0)
(3 -2.59227e-16 0)
(3 -4.92527e-16 0)
(3 -4.93781e-17 0)
(3 -6.74053e-16 0)
(3 -1.35688e-15 0)
(3 -1.18915e-15 0)
(3 -8.89137e-16 0)
(3 -8.96451e-16 0)
(3 -4.01174e-16 0)
(3 -4.5465e-16 0)
(3 -5.92611e-18 0)
(3 -5.03562e-14 0)
(3 -1.30634e-07 0)
(3.00059 0.000227596 0)
(2.85301 0.267286 0)
(1.31084 0.810603 0)
(1.08663 0.808674 0)
(1.11052 0.811868 0)
(1.12364 0.832687 0)
(1.15163 0.851513 0)
(1.18295 0.87011 0)
(1.23761 0.885565 0)
(1.31612 0.894126 0)
(1.42491 0.897699 0)
(3 -1.07026e-16 0)
(3 -3.58949e-16 0)
(3 -1.5661e-16 0)
(3 1.83768e-16 0)
(3 6.83399e-17 0)
(3 1.19907e-16 0)
(3 1.23988e-17 0)
(3 -1.97686e-16 0)
(3 -3.42134e-16 0)
(3 -1.00666e-16 0)
(3 -1.54162e-17 0)
(3 -1.40483e-17 0)
(3 -1.12124e-16 0)
(3 -1.66919e-16 0)
(3 -1.3574e-16 0)
(3 1.30411e-16 0)
(3 2.00565e-16 0)
(3 2.33401e-15 0)
(3 -8.83757e-09 0)
(3 1.64158e-07 0)
(3.01757 0.0082576 0)
(2.0417 0.665767 0)
(1.19801 0.868397 0)
(1.14484 0.872246 0)
(1.17916 0.876959 0)
(1.20943 0.880556 0)
(1.24624 0.880195 0)
(1.29976 0.881952 0)
(1.3665 0.884021 0)
(1.45219 0.884489 0)
(3 8.4969e-17 0)
(3 6.14091e-17 0)
(3 1.31071e-16 0)
(3 8.94457e-17 0)
(3 -9.52617e-17 0)
(3 -9.03787e-17 0)
(3 -2.7925e-16 0)
(3 -3.64833e-16 0)
(3 -4.12161e-16 0)
(3 -8.72198e-17 0)
(3 3.65149e-16 0)
(3 3.10462e-16 0)
(3 9.52664e-16 0)
(3 1.12761e-15 0)
(3 8.96058e-16 0)
(3 8.13634e-16 0)
(3 4.84529e-16 0)
(3 1.57761e-15 0)
(3 -4.00633e-11 0)
(3 -2.68204e-10 0)
(3.00011 7.75763e-05 0)
(2.97937 0.119242 0)
(1.64911 0.821537 0)
(1.21984 0.897661 0)
(1.24328 0.891547 0)
(1.26869 0.892984 0)
(1.30331 0.895335 0)
(1.34981 0.898698 0)
(1.40579 0.896793 0)
(1.4753 0.887436 0)
(3 1.76356e-16 0)
(3 2.81384e-16 0)
(3 3.03915e-16 0)
(3 2.78754e-16 0)
(3 4.22411e-16 0)
(3 4.78675e-16 0)
(3 5.06425e-16 0)
(3 6.9331e-16 0)
(3 4.4399e-16 0)
(3 -2.47489e-17 0)
(3 -3.06595e-16 0)
(3 -4.74459e-16 0)
(3 2.19109e-16 0)
(3 8.93408e-16 0)
(3 1.61657e-15 0)
(3 1.29348e-15 0)
(3 4.37328e-16 0)
(3 1.79253e-16 0)
(3 -1.82925e-15 0)
(3 -3.4582e-10 0)
(3 2.09015e-08 0)
(3.00309 0.00372975 0)
(2.72514 0.371651 0)
(1.49895 0.901046 0)
(1.28061 0.929607 0)
(1.32696 0.91783 0)
(1.35888 0.912523 0)
(1.40071 0.904799 0)
(1.44931 0.89361 0)
(1.50478 0.882088 0)
(3 -7.52025e-17 0)
(3 -1.5591e-16 0)
(3 -7.86505e-17 0)
(3 1.27074e-16 0)
(3 2.24793e-16 0)
(3 3.67216e-16 0)
(3 7.54392e-16 0)
(3 1.03887e-15 0)
(3 1.50543e-15 0)
(3 8.2297e-16 0)
(3 1.82022e-16 0)
(3 -8.46269e-17 0)
(3 2.00057e-16 0)
(3 5.07963e-16 0)
(3 9.21227e-16 0)
(3 9.57013e-16 0)
(3 6.38798e-16 0)
(3 4.10008e-17 0)
(3 7.84755e-15 0)
(3 -7.85456e-11 0)
(3 -9.38075e-11 0)
(3.00001 1.17399e-05 0)
(3.00709 0.0217215 0)
(2.41255 0.5859 0)
(1.45431 0.94677 0)
(1.35472 0.948316 0)
(1.40488 0.936821 0)
(1.43942 0.928841 0)
(1.47951 0.917671 0)
(1.52719 0.905535 0)
(3 -2.85497e-17 0)
(3 -6.92669e-17 0)
(3 2.47566e-17 0)
(3 -4.35332e-17 0)
(3 -1.82916e-16 0)
(3 -2.48944e-16 0)
(3 -7.22174e-17 0)
(3 5.19833e-16 0)
(3 1.3657e-15 0)
(3 1.82106e-15 0)
(3 8.86242e-16 0)
(3 3.35319e-16 0)
(3 6.45107e-16 0)
(3 3.99362e-16 0)
(3 -8.5372e-18 0)
(3 -5.62769e-16 0)
(3 -1.76405e-16 0)
(3 -8.37872e-16 0)
(3 1.57607e-15 0)
(3 -2.37227e-12 0)
(3 -2.19002e-11 0)
(3 2.24855e-09 0)
(3.00006 0.000276207 0)
(2.99457 0.0610378 0)
(2.16304 0.733754 0)
(1.45782 0.971809 0)
(1.43003 0.962945 0)
(1.48059 0.946227 0)
(1.51379 0.937639 0)
(1.5555 0.927088 0)
(3 -7.14247e-18 0)
(3 3.32861e-17 0)
(3 2.72754e-16 0)
(3 9.0301e-17 0)
(3 -1.4512e-16 0)
(3 -1.68781e-16 0)
(3 -1.83238e-16 0)
(3 5.99414e-17 0)
(3 4.14442e-16 0)
(3 2.75424e-16 0)
(3 4.7521e-16 0)
(3 8.08836e-16 0)
(3 9.00817e-16 0)
(3 1.11444e-15 0)
(3 6.92825e-16 0)
(3 6.42331e-16 0)
(3 7.25243e-16 0)
(3 -4.62773e-16 0)
(3 -1.62685e-15 0)
(3 -6.367e-15 0)
(3 -8.17857e-13 0)
(3 -3.56931e-13 0)
(3 1.7055e-07 0)
(3.00031 0.00151992 0)
(2.93896 0.137361 0)
(2.04051 0.80159 0)
(1.50036 0.987774 0)
(1.49056 0.982704 0)
(1.54777 0.961021 0)
(1.58748 0.948073 0)
(3 -8.64916e-18 0)
(3 1.44414e-16 0)
(3 3.41195e-16 0)
(3 -1.59474e-16 0)
(3 -3.88544e-16 0)
(3 -3.15841e-16 0)
(3 1.13222e-16 0)
(3 5.14139e-16 0)
(3 6.05563e-16 0)
(3 -6.97852e-17 0)
(3 5.46883e-16 0)
(3 1.32074e-15 0)
(3 1.27498e-15 0)
(3 1.17215e-15 0)
(3 9.98326e-16 0)
(3 8.02959e-16 0)
(3 4.21792e-16 0)
(3 -5.94033e-16 0)
(3 -1.1821e-15 0)
(3 -1.18527e-15 0)
(3 -4.02421e-15 0)
(3 -3.22408e-14 0)
(3 2.41215e-11 0)
(3 2.12576e-06 0)
(3.0002 0.00480974 0)
(2.86212 0.219958 0)
(2.00495 0.834751 0)
(1.56113 0.996477 0)
(1.55962 0.995958 0)
(1.61154 0.976491 0)
(3 -5.26916e-17 0)
(3 -3.34043e-16 0)
(3 -7.0738e-16 0)
(3 -5.17962e-16 0)
(3 -2.09866e-16 0)
(3 3.67582e-16 0)
(3 4.08052e-16 0)
(3 4.10549e-16 0)
(3 6.27433e-16 0)
(3 9.13047e-16 0)
(3 4.03972e-16 0)
(3 1.96408e-16 0)
(3 1.54838e-16 0)
(3 6.90594e-17 0)
(3 -1.74879e-17 0)
(3 1.51222e-16 0)
(3 1.11589e-16 0)
(3 1.02348e-16 0)
(3 -2.75223e-16 0)
(3 -1.4005e-15 0)
(3 -7.34605e-16 0)
(3 -9.49561e-16 0)
(3 6.5277e-16 0)
(3 5.34686e-10 0)
(3 1.28835e-05 0)
(2.99873 0.0100107 0)
(2.80442 0.276225 0)
(2.01615 0.845189 0)
(1.62867 1.00411 0)
(1.62823 1.00389 0)
(3 6.78775e-17 0)
(3 -3.10197e-17 0)
(3 -3.31143e-16 0)
(3 5.50426e-17 0)
(3 3.91735e-16 0)
(3 3.87384e-16 0)
(3 2.23228e-17 0)
(3 -2.89742e-16 0)
(3 -4.83881e-16 0)
(3 -6.56361e-16 0)
(3 -1.11963e-16 0)
(3 2.2164e-16 0)
(3 1.79509e-16 0)
(3 -1.90166e-16 0)
(3 -3.66696e-16 0)
(3 3.71607e-16 0)
(3 7.58005e-16 0)
(3 1.45306e-15 0)
(3 9.44335e-16 0)
(3 3.84275e-19 0)
(3 1.91265e-16 0)
(3 5.50628e-16 0)
(3 1.05342e-16 0)
(3 3.14808e-14 0)
(3 4.90463e-09 0)
(2.99999 4.47188e-05 0)
(2.9965 0.014728 0)
(2.7765 0.299745 0)
(2.06698 0.840913 0)
(1.70028 0.99509 0)
(3 1.2926e-16 0)
(3 3.58858e-16 0)
(3 4.65649e-16 0)
(3 3.43961e-16 0)
(3 -1.09154e-16 0)
(3 -5.21937e-16 0)
(3 -3.98527e-16 0)
(3 -5.22485e-16 0)
(3 -1.07593e-15 0)
(3 -8.9231e-16 0)
(3 -2.87073e-16 0)
(3 2.46963e-16 0)
(3 3.93446e-16 0)
(3 2.7672e-16 0)
(3 -1.04354e-16 0)
(3 -1.82158e-16 0)
(3 2.31164e-16 0)
(3 4.55972e-16 0)
(3 6.11204e-16 0)
(3 9.73737e-16 0)
(3 8.15539e-16 0)
(3 1.5314e-15 0)
(3 1.4721e-15 0)
(3 1.2379e-15 0)
(3 2.92928e-13 0)
(3 2.66242e-08 0)
(2.99999 7.91383e-05 0)
(2.99332 0.0192379 0)
(2.83297 0.264093 0)
(2.04731 0.865401 0)
(3 -9.65736e-17 0)
(3 1.0088e-16 0)
(3 2.16098e-16 0)
(3 6.31271e-17 0)
(3 -6.46554e-16 0)
(3 -5.73813e-16 0)
(3 -3.78138e-16 0)
(3 -6.31421e-16 0)
(3 -9.04318e-16 0)
(3 -2.60141e-16 0)
(3 -4.15196e-16 0)
(3 -7.2824e-16 0)
(3 -5.59073e-16 0)
(3 2.67317e-16 0)
(3 2.70112e-16 0)
(3 4.08987e-17 0)
(3 -1.64317e-16 0)
(3 1.4145e-16 0)
(3 7.33001e-16 0)
(3 1.776e-15 0)
(3 1.3921e-15 0)
(3 9.04616e-16 0)
(3 7.58297e-16 0)
(3 4.62624e-16 0)
(3 2.57991e-16 0)
(3 1.74106e-12 0)
(3 5.91686e-08 0)
(2.99997 0.000117918 0)
(2.99701 0.0153991 0)
(2.80925 0.312117 0)
(3 2.79224e-17 0)
(3 -3.46053e-17 0)
(3 1.18807e-17 0)
(3 1.59032e-16 0)
(3 2.86522e-16 0)
(3 2.00868e-16 0)
(3 -3.17985e-17 0)
(3 -3.63046e-16 0)
(3 -5.59664e-16 0)
(3 1.59908e-16 0)
(3 -1.07791e-16 0)
(3 -1.21994e-15 0)
(3 -1.46766e-15 0)
(3 -6.6633e-16 0)
(3 -1.62054e-16 0)
(3 -1.86883e-16 0)
(3 -1.13412e-16 0)
(3 1.33566e-15 0)
(3 2.12283e-15 0)
(3 1.61734e-15 0)
(3 1.06678e-15 0)
(3 -2.96465e-16 0)
(3 -1.57782e-15 0)
(3 -1.39464e-15 0)
(3 -1.66953e-15 0)
(3 -1.71405e-15 0)
(3 5.33559e-12 0)
(3 7.35599e-08 0)
(2.99997 0.000143152 0)
(3.01558 0.00840008 0)
(3 -7.50249e-17 0)
(3 -4.2653e-16 0)
(3 -3.30921e-16 0)
(3 -1.16698e-16 0)
(3 1.64626e-16 0)
(3 7.95118e-17 0)
(3 6.97708e-17 0)
(3 2.17444e-16 0)
(3 -2.64873e-16 0)
(3 -2.98971e-16 0)
(3 2.13304e-16 0)
(3 2.42691e-16 0)
(3 -7.22711e-16 0)
(3 -8.65845e-16 0)
(3 -6.39921e-16 0)
(3 -1.50474e-16 0)
(3 6.95312e-16 0)
(3 1.29232e-15 0)
(3 1.64655e-15 0)