/*--------------------------------*- C++ -*----------------------------------*\
  =========                 |
  \\      /  F ield         | OpenFOAM: The Open Source CFD Toolbox
   \\    /   O peration     | Website:  https://openfoam.org
    \\  /    A nd           | Version:  6.0
     \\/     M anipulation  |
\*---------------------------------------------------------------------------*/
FoamFile
{
    version     2.0;
    format      ascii;
    class       volScalarField;
    location    "2.9990181";
    object      p;
}
// * * * * * * * * * * * * * * * * * * * * * * * * * * * * * * * * * * * * * //

dimensions      [1 -1 -2 0 0 0 0];

internalField   nonuniform List<scalar> 
1200
(
1
1
1
1
1
1
1
1
1
1
4.89662
10.2568
10.9446
11.3185
11.3719
11.0917
11.068
11.4706
12.0145
12.0408
1
1
1
1
1
1
1
1
1
1
4.94766
10.4515
10.7082
10.9511
11.277
11.4779
11.5681
11.8259
11.7604
11.796
1
1
1
1
1
1
1
1
1
1
4.92474
10.5012
10.6083
10.6013
10.8431
11.5086
12.0235
11.8659
11.5868
11.5787
1
1
1
1
1
1
1
1
1
1
4.83686
10.4174
10.5479
10.6353
11.0175
11.6198
11.9283
11.6808
11.517
11.7377
1
1
1
1
1
1
1
1
1
1
4.6801
10.2303
10.642
11.0524
11.4162
11.5315
11.4263
11.516
11.6601
12.1175
1
1
1
1
1
1
1
1
1
1
4.53602
10.0502
10.8783
11.2858
11.4072
11.2134
11.0793
11.2433
11.831
12.2283
1
1
1
1
1
1
1
1
1
1
4.47161
10.1309
10.9095
11.1817
11.1239
10.9398
11.0643
11.5464
12.0005
11.7416
1
1
1
1
1
1
1
1
1
1
4.42913
10.3436
10.725
10.7469
10.8836
11.014
11.5913
12.1059
11.8017
11.2595
1
1
1
1
1
1
1
1
1
1
4.24593
10.2401
10.4282
10.3983
10.5859
11.2378
11.9981
12.1523
11.4713
11.0525
1
1
1
1
1
1
1
1
1
1
3.95269
9.92344
10.1743
10.293
10.953
11.7064
11.7343
11.3501
11.1516
11.2392
1
1
1
1
1
1
1
1
1
1
3.67173
9.58664
10.2227
10.9403
11.427
11.5031
11.1719
10.634
10.9056
11.9998
1
1
1
1
1
1
1
1
1
1
3.42394
9.38705
10.7369
11.2757
11.407
11.1015
10.4941
10.271
10.9757
12.4954
1
1
1
1
1
1
1
1
1
1
3.38484
9.65698
10.928
11.1053
10.8886
10.4248
10.3117
10.5003
11.6212
12.2895
1
1
1
1
1
1
1
1
1
1
3.19132
9.76057
10.73
10.535
10.23
10.2211
10.6368
11.6428
11.6445
11.1208
1
1
1
1
1
1
1
1
1
1
2.8984
9.40279
10.4053
9.94119
9.87742
10.2134
11.7218
12.0502
11.2529
9.85569
1
1
1
1
1
1
1
1
1
1
2.50913
8.93004
9.84505
9.80862
10.1171
11.3716
11.6739
11.7256
10.3638
9.25115
1
1
1
1
1
1
1
1
1
1
2.1439
8.31482
9.62477
10.1252
11.2623
11.4672
11.319
11.0226
9.69796
9.05754
1
1
1
1
1
1
1
1
1
1
1.86864
7.82883
9.84788
10.9052
11.3427
11.1834
10.3861
9.33839
9.54325
9.4757
1
1
1
1
1
1
1
1
1
1
1.67736
8.02284
10.8656
11.0139
10.9554
10.4838
9.19126
8.88684
9.67737
12.0263
1
1
1
1
1
1
1
1
1
1
1.40025
8.2045
10.9389
10.6202
10.4345
9.37191
8.96409
8.99095
10.3769
11.5815
1
1
1
1
1
1
1
1
1
1
1.03164
6.42299
10.0793
9.84042
9.70904
9.99343
10.3886
10.2573
9.24982
7.28797
1
1
1
1
1
1
1
1
1
1
1.00006
4.05487
9.23606
9.76362
9.90923
9.84698
9.55149
9.01264
8.03256
6.4586
1
1
1
1
1
1
1
1
1
1
1
1.90124
8.01254
9.6521
9.42267
9.18113
8.82227
8.32489
7.56819
6.36767
1
1
1
1
1
1
1
1
1
1
1
1.05809
5.42172
9.07849
8.92145
8.8169
8.51104
8.00628
7.15211
6.22108
1
1
1
1
1
1
1
1
1
1
1
1.00016
2.12112
7.71881
8.80614
8.56705
8.17179
7.64161
6.95838
6.20236
1
1
1
1
1
1
1
1
1
1
1
0.999997
1.06539
4.94642
8.4199
8.23643
7.84164
7.40304
6.85865
6.20662
1
1
1
1
1
1
1
1
1
1
1
0.999999
1.00021
1.69922
6.53422
8.07489
7.69351
7.31647
6.79631
6.22256
1
1
1
1
1
1
1
1
1
1
1
1
1
1.02481
2.9424
7.22714
7.66081
7.24074
6.74124
6.2578
1
1
1
1
1
1
1
1
1
1
1
1
1
1.0001
1.17929
4.42611
7.4024
7.19095
6.72695
6.3221
1
1
1
1
1
1
1
1
1
1
1
1
1
1
1.00227
1.57418
5.19791
7.06396
6.75933
6.37941
1
1
1
1
1
1
1
1
1
1
1
1
1
1
1.00001
1.01762
1.98957
5.50063
6.71434
6.44384
1
1
1
1
1
1
1
1
1
1
1
1
1
1
1
1.00009
1.05004
2.34971
5.51355
6.38764
1
1
1
1
1
1
1
1
1
1
1
1
1
1
1
1
1.00041
1.09361
2.5374
5.47989
1
1
1
1
1
1
1
1
1
1
1
1
1
1
1
1
1
1.00115
1.12336
2.95437
1
1
1
1
1
1
1
1
1
1
1
1
1
1
1
1
1
1
1.00151
1.22256
1
1
1
1
1
1
1
1
1
1
1
1
1
1
1
1
1
1
1
1.0035
1
1
1
1
1
1
1
1
1
1
1
1
1
1
1
1
1
1
1
1
1
1
1
1
1
1
1
1
1
1
1
1
1
1
1
1
1
1
1
1
1
1
1
1
1
1
1
1
1
1
1
1
1
1
1
1
1
1
1
1
1
1
1
1
1
1
1
1
1
1
1
1
1
1
1
1
1
1
1
1
1.33184
0.713336
0.968082
1.28315
1.35163
1.32012
2.1592
4.95638
5.60441
5.38406
4.97967
4.59152
4.26557
3.93909
3.63017
3.34052
3.06941
2.81629
2.60586
2.30119
2.87889
1.07595
1.08951
1.20193
1.29164
1.30074
2.14799
4.88283
5.58629
5.32875
4.93571
4.56232
4.20267
3.89593
3.59114
3.3139
3.0584
2.81774
2.61393
2.31088
3.49395
1.46119
1.14304
1.14945
1.25463
1.33188
2.14664
4.80342
5.59352
5.34003
4.95337
4.54977
4.2018
3.88647
3.57807
3.29883
3.04057
2.80098
2.60528
2.31435
3.94258
1.9959
1.38207
1.15711
1.19547
1.34044
2.21494
4.20797
5.58384
5.27509
4.90036
4.52286
4.17304
3.86275
3.5705
3.29932
3.04218
2.80071
2.60099
2.30758
4.30106
2.43548
1.66108
1.18936
1.19741
1.45112
2.4145
3.47406
5.10074
5.30994
4.8501
4.49533
4.16123
3.8433
3.54217
3.26939
3.01973
2.78938
2.59808
2.3063
4.52633
2.82435
1.99229
1.33862
1.25648
1.73656
2.71254
2.95981
4.23424
5.08221
4.80863
4.47278
4.1419
3.82143
3.52125
3.25209
3.00549
2.77694
2.58902
2.3013
4.66749
3.19216
2.29031
1.53215
1.35134
2.14556
3.01677
2.96972
3.3068
4.54617
4.77001
4.43392
4.11118
3.80211
3.50896
3.23995
2.99099
2.76002
2.57254
2.28867
4.77945
3.51906
2.53937
1.73708
1.63807
2.6119
3.16028
2.98872
2.82625
3.6831
4.5117
4.36521
4.06152
3.76321
3.48047
3.21602
2.96911
2.73891
2.55446
2.2751
4.90339
3.82354
2.72423
1.96869
2.18927
3.21639
3.23292
3.00929
2.73866
2.9106
3.89586
4.24196
4.01011
3.7359
3.45098
3.18535
2.94021
2.71439
2.53495
2.26079
5.0483
4.08299
2.87255
2.23409
3.00904
3.71518
3.40297
3.05211
2.69694
2.54282
3.08189
3.90998
3.94511
3.70369
3.41313
3.1466
2.90459
2.6869
2.51388
2.24365
5.24573
4.27153
3.01739
2.64412
4.01556
4.06713
3.60687
3.12694
2.71764
2.43736
2.47867
3.24032
3.7459
3.5973
3.34548
3.0933
2.85899
2.65562
2.49346
2.22921
5.46812
4.39534
3.21133
3.39152
4.90248
4.40075
3.76042
3.20622
2.77158
2.40272
2.2264
2.50986
3.32664
3.4792
3.28507
3.05632
2.83165
2.62959
2.45863
2.20077
5.65261
4.52671
3.48644
4.57781
5.55688
4.75936
3.9325
3.29677
2.83736
2.4332
2.16884
2.08669
2.63692
3.24502
3.20568
3.01843
2.80566
2.60601
2.42236
2.17556
5.52936
4.7659
3.95996
6.01956
5.94473
5.04557
4.10795
3.39531
2.89358
2.48719
2.13991
1.95731
2.07899
2.71138
3.02519
2.93587
2.75873
2.5682
2.3727
2.16515
5.07299
4.64169
5.00772
7.37506
6.27176
5.20689
4.25519
3.50681
2.95786
2.54903
2.17641
1.91415
1.80683
2.10984
2.73958
2.84862
2.71456
2.52321
2.33733
2.19363
4.16698
4.3576
6.65454
8.27912
6.57051
5.33866
4.37151
3.60868
3.02289
2.59293
2.2286
1.9013
1.72863
1.72692
2.19022
2.64926
2.63825
2.46712
2.31296
2.33344
2.89434
4.28949
8.39077
8.6807
6.78566
5.44795
4.46521
3.69963
3.0962
2.63806
2.2765
1.94473
1.68372
1.57112
1.71278
2.24729
2.46754
2.39152
2.31871
2.65236
1.87255
4.86288
10.47
9.0711
6.99484
5.55868
4.5449
3.7732
3.15883
2.67338
2.29293
1.97152
1.67961
1.51449
1.44511
1.73141
2.23985
2.32978
2.4941
3.1676
1.26273
5.20933
11.8439
9.16462
7.06679
5.60851
4.58302
3.81019
3.19565
2.69909
2.29969
1.98794
1.71623
1.47982
1.34709
1.42668
1.84444
2.32884
2.96898
3.50893
1.04589
5.60646
13.3806
9.51373
7.09731
5.6123
4.59606
3.8293
3.21812
2.71903
2.30427
1.98884
1.74132
1.48656
1.28137
1.26451
1.54164
2.46534
3.60206
3.96402
)
;

boundaryField
{
    inlet
    {
        type            fixedValue;
        value           uniform 1;
    }
    outlet
    {
        type            zeroGradient;
    }
    top
    {
        type            symmetryPlane;
    }
    bottom
    {
        type            symmetryPlane;
    }
    step
    {
        type            zeroGradient;
    }
    defaultFaces
    {
        type            empty;
    }
}


// ************************************************************************* //
