/*--------------------------------*- C++ -*----------------------------------*\
  =========                 |
  \\      /  F ield         | OpenFOAM: The Open Source CFD Toolbox
   \\    /   O peration     | Website:  https://openfoam.org
    \\  /    A nd           | Version:  6.0
     \\/     M anipulation  |
\*---------------------------------------------------------------------------*/
FoamFile
{
    version     2.0;
    format      ascii;
    class       volScalarField;
    location    "2.9990181";
    object      rho;
}
// * * * * * * * * * * * * * * * * * * * * * * * * * * * * * * * * * * * * * //

dimensions      [1 -3 0 0 0 0 0];

internalField   nonuniform List<scalar> 
1200
(
1.39997
1.39997
1.39997
1.39997
1.39997
1.39997
1.39997
1.39997
1.39997
1.39997
3.3118
5.3279
5.5667
5.69944
5.71799
5.61663
5.60809
5.7523
5.94435
5.95352
1.39997
1.39997
1.39997
1.39997
1.39997
1.39997
1.39997
1.39997
1.39997
1.39997
3.33325
5.39995
5.48104
5.56585
5.6836
5.7568
5.78866
5.87923
5.85494
5.86738
1.39997
1.39997
1.39997
1.39997
1.39997
1.39997
1.39997
1.39997
1.39997
1.39997
3.32353
5.41827
5.44449
5.43851
5.52693
5.76799
5.95133
5.89467
5.79376
5.79062
1.39997
1.39997
1.39997
1.39997
1.39997
1.39997
1.39997
1.39997
1.39997
1.39997
3.28543
5.38681
5.42234
5.45129
5.59099
5.80844
5.91849
5.82952
5.76968
5.84851
1.39997
1.39997
1.39997
1.39997
1.39997
1.39997
1.39997
1.39997
1.39997
1.39997
3.21703
5.31739
5.45703
5.60395
5.73595
5.77834
5.74059
5.77158
5.82232
5.98405
1.39997
1.39997
1.39997
1.39997
1.39997
1.39997
1.39997
1.39997
1.39997
1.39997
3.15263
5.25032
5.54356
5.68969
5.73354
5.66458
5.61625
5.67588
5.88461
6.02454
1.39997
1.39997
1.39997
1.39997
1.39997
1.39997
1.39997
1.39997
1.39997
1.39997
3.12159
5.28245
5.55639
5.65282
5.6317
5.56596
5.61152
5.78592
5.94599
5.85479
1.39997
1.39997
1.39997
1.39997
1.39997
1.39997
1.39997
1.39997
1.39997
1.39997
3.10357
5.36703
5.4915
5.49562
5.54505
5.59419
5.80277
5.98567
5.8778
5.6845
1.39997
1.39997
1.39997
1.39997
1.39997
1.39997
1.39997
1.39997
1.39997
1.39997
3.0256
5.3356
5.38445
5.3684
5.43799
5.67658
5.94946
6.00517
5.76076
5.6118
1.39997
1.39997
1.39997
1.39997
1.39997
1.39997
1.39997
1.39997
1.39997
1.39997
2.89697
5.22553
5.29237
5.33083
5.57359
5.846
5.85718
5.72008
5.64733
5.68394
1.39997
1.39997
1.39997
1.39997
1.39997
1.39997
1.39997
1.39997
1.39997
1.39997
2.77172
5.10306
5.3135
5.57158
5.74722
5.77594
5.65771
5.46131
5.56039
5.95734
1.39997
1.39997
1.39997
1.39997
1.39997
1.39997
1.39997
1.39997
1.39997
1.39997
2.65397
5.0329
5.50582
5.69786
5.74339
5.63256
5.41059
5.32988
5.58979
6.1365
1.39997
1.39997
1.39997
1.39997
1.39997
1.39997
1.39997
1.39997
1.39997
1.39997
2.63286
5.14316
5.58104
5.64002
5.558
5.38606
5.34459
5.4196
5.82499
6.07245
1.39997
1.39997
1.39997
1.39997
1.39997
1.39997
1.39997
1.39997
1.39997
1.39997
2.54518
5.19776
5.51749
5.43748
5.31733
5.31315
5.46857
5.83272
5.83518
5.65845
1.39997
1.39997
1.39997
1.39997
1.39997
1.39997
1.39997
1.39997
1.39997
1.39997
2.40499
5.08649
5.40398
5.21811
5.18932
5.31528
5.86251
5.9803
5.69985
5.19639
1.39997
1.39997
1.39997
1.39997
1.39997
1.39997
1.39997
1.39997
1.39997
1.39997
2.22525
4.92653
5.19978
5.17071
5.28388
5.73976
5.84973
5.87086
5.37703
4.97571
1.39997
1.39997
1.39997
1.39997
1.39997
1.39997
1.39997
1.39997
1.39997
1.39997
2.04224
4.70431
5.12677
5.30026
5.70937
5.77937
5.72706
5.62433
5.13257
4.90832
1.39997
1.39997
1.39997
1.39997
1.39997
1.39997
1.39997
1.39997
1.39997
1.39997
1.91498
4.53485
5.23083
5.6045
5.74819
5.68538
5.38988
4.9943
5.07486
5.08855
1.39997
1.39997
1.39997
1.39997
1.39997
1.39997
1.39997
1.39997
1.39997
1.39997
1.81287
4.64525
5.63276
5.66465
5.62695
5.4378
4.93867
4.82047
5.12696
6.0163
1.39997
1.39997
1.39997
1.39997
1.39997
1.39997
1.39997
1.39997
1.39997
1.39997
1.6694
4.75956
5.66997
5.53903
5.44284
5.02312
4.85305
4.85631
5.37183
5.82481
1.39997
1.39997
1.39997
1.39997
1.39997
1.39997
1.39997
1.39997
1.39997
1.39997
1.42601
4.01133
5.35136
5.24443
5.17525
5.26362
5.39499
5.33162
4.91824
4.00088
1.39997
1.39997
1.39997
1.39997
1.39997
1.39997
1.39997
1.39997
1.39997
1.39997
1.40002
2.97854
5.0553
5.22461
5.26801
5.22991
5.09772
4.87041
4.45903
3.74655
1.39997
1.39997
1.39997
1.39997
1.39997
1.39997
1.39997
1.39997
1.39997
1.39997
1.39997
1.95711
4.6999
5.22071
5.11562
5.00148
4.84245
4.62785
4.3009
3.75638
1.39997
1.39997
1.39997
1.39997
1.39997
1.39997
1.39997
1.39997
1.39997
1.39997
1.39997
1.44553
3.6244
5.04299
4.9505
4.89454
4.7529
4.52891
4.15999
3.74324
1.39997
1.39997
1.39997
1.39997
1.39997
1.39997
1.39997
1.39997
1.39997
1.39997
1.39997
1.40008
2.09928
4.66023
4.95744
4.84387
4.65891
4.41804
4.11337
3.76909
1.39997
1.39997
1.39997
1.39997
1.39997
1.39997
1.39997
1.39997
1.39997
1.39997
1.39997
1.39997
1.45216
3.46624
4.85354
4.75897
4.57172
4.36431
4.11079
3.80718
1.39997
1.39997
1.39997
1.39997
1.39997
1.39997
1.39997
1.39997
1.39997
1.39997
1.39997
1.39997
1.40013
1.86484
4.2141
4.75184
4.57219
4.3854
4.13542
3.85964
1.39997
1.39997
1.39997
1.39997
1.39997
1.39997
1.39997
1.39997
1.39997
1.39997
1.39997
1.39997
1.39997
1.42011
2.57219
4.55917
4.60745
4.41104
4.16902
3.92875
1.39997
1.39997
1.39997
1.39997
1.39997
1.39997
1.39997
1.39997
1.39997
1.39997
1.39997
1.39997
1.39997
1.40006
1.53802
3.33784
4.57549
4.46044
4.22624
4.01746
1.39997
1.39997
1.39997
1.39997
1.39997
1.39997
1.39997
1.39997
1.39997
1.39997
1.39997
1.39997
1.39997
1.39997
1.40196
1.80455
3.71319
4.46523
4.30779
4.10881
1.39997
1.39997
1.39997
1.39997
1.39997
1.39997
1.39997
1.39997
1.39997
1.39997
1.39997
1.39997
1.39997
1.39997
1.39997
1.41482
2.06825
3.88893
4.3514
4.20739
1.39997
1.39997
1.39997
1.39997
1.39997
1.39997
1.39997
1.39997
1.39997
1.39997
1.39997
1.39997
1.39997
1.39997
1.39997
1.40006
1.44158
2.29078
3.92685
4.24242
1.39997
1.39997
1.39997
1.39997
1.39997
1.39997
1.39997
1.39997
1.39997
1.39997
1.39997
1.39997
1.39997
1.39997
1.39997
1.39997
1.40036
1.47638
2.41916
3.91814
1.39997
1.39997
1.39997
1.39997
1.39997
1.39997
1.39997
1.39997
1.39997
1.39997
1.39997
1.39997
1.39997
1.39997
1.39997
1.39997
1.39997
1.40104
1.50031
2.61884
1.39997
1.39997
1.39997
1.39997
1.39997
1.39997
1.39997
1.39997
1.39997
1.39997
1.39997
1.39997
1.39997
1.39997
1.39997
1.39997
1.39997
1.39997
1.40134
1.57025
1.39997
1.39997
1.39997
1.39997
1.39997
1.39997
1.39997
1.39997
1.39997
1.39997
1.39997
1.39997
1.39997
1.39997
1.39997
1.39997
1.39997
1.39997
1.39997
1.40301
1.39997
1.39997
1.39997
1.39997
1.39997
1.39997
1.39997
1.39997
1.39997
1.39997
1.39997
1.39997
1.39997
1.39997
1.39997
1.39997
1.39997
1.39997
1.39997
1.39997
1.39997
1.39997
1.39997
1.39997
1.39997
1.39997
1.39997
1.39997
1.39997
1.39997
1.39997
1.39997
1.39997
1.39997
1.39997
1.39997
1.39997
1.39997
1.39997
1.39997
1.39997
1.39997
1.39997
1.39997
1.39997
1.39997
1.39997
1.39997
1.39997
1.39997
1.39997
1.39997
1.39997
1.39997
1.39997
1.39997
1.39997
1.39997
1.39997
1.39997
1.39997
1.39997
1.39997
1.39997
1.39997
1.39997
1.39997
1.39997
1.39997
1.39997
1.39997
1.39997
1.39997
1.39997
1.39997
1.39997
1.39997
1.39997
1.39997
1.39997
1.08067
0.623667
0.7841
0.966224
1.0202
1.0109
1.39832
2.51309
2.85372
2.79212
2.66306
2.53406
2.42486
2.31091
2.19997
2.09074
1.98117
1.87029
1.77063
1.61432
1.95588
0.889767
0.90155
0.96523
1.01524
1.02335
1.45056
2.57431
2.90977
2.82689
2.69098
2.55794
2.42731
2.31536
2.2005
2.09219
1.98656
1.8795
1.78202
1.62538
2.38411
1.21054
0.997955
1.00096
1.05903
1.10168
1.55806
2.73746
3.07253
2.97498
2.81589
2.64819
2.50516
2.37572
2.24616
2.12595
2.0108
1.89852
1.80165
1.64723
2.67463
1.60914
1.21166
1.06068
1.08375
1.1711
1.67164
2.66237
3.24593
3.11026
2.93714
2.76174
2.6011
2.45808
2.32083
2.19102
2.06559
1.94446
1.8406
1.67889
2.88463
1.90563
1.43441
1.11723
1.12024
1.28314
1.82998
2.40252
3.16209
3.23005
3.02302
2.85412
2.69274
2.53707
2.38639
2.24668
2.11624
1.99326
1.88863
1.72182
3.0198
2.14535
1.66166
1.24147
1.17782
1.47988
2.02117
2.17158
2.81429
3.19757
3.07071
2.91191
2.751
2.59154
2.43814
2.29658
2.16347
2.0371
1.93091
1.76204
3.11805
2.36176
1.85078
1.38354
1.25682
1.71642
2.2058
2.19813
2.38649
2.99806
3.09964
2.94038
2.78228
2.62693
2.476
2.33348
2.19768
2.06822
1.96063
1.79149
3.20588
2.55253
2.00605
1.52277
1.45377
1.98114
2.30229
2.22796
2.1704
2.61581
3.02327
2.94894
2.79624
2.64289
2.49543
2.35398
2.21799
2.08779
1.98097
1.81289
3.30729
2.73357
2.12574
1.67233
1.79126
2.32697
2.36061
2.26665
2.14701
2.24982
2.76708
2.9306
2.80678
2.66239
2.51137
2.3668
2.22951
2.10001
1.99497
1.82835
3.42652
2.8994
2.22984
1.84248
2.23881
2.61796
2.47953
2.31958
2.14162
2.07269
2.37627
2.81008
2.80664
2.67962
2.52252
2.37406
2.2356
2.1085
2.0058
1.83933
3.57753
3.03794
2.33742
2.09858
2.77205
2.8327
2.62497
2.39118
2.1773
2.0273
2.05984
2.48782
2.74308
2.6592
2.51799
2.37336
2.23607
2.11493
2.01677
1.85101
3.74807
3.14963
2.46925
2.5465
3.2696
3.04421
2.74052
2.46067
2.22924
2.01982
1.9259
2.09791
2.55456
2.62967
2.51777
2.38281
2.2485
2.12604
2.02055
1.85491
3.901
3.28337
2.65653
3.17994
3.64063
3.26695
2.86203
2.53326
2.28512
2.05486
1.90281
1.86273
2.19302
2.54004
2.5067
2.39253
2.26443
2.14126
2.02546
1.86279
3.87766
3.46006
2.96109
3.89417
3.86429
3.44425
2.9808
2.60939
2.33604
2.10601
1.89898
1.79612
1.87912
2.2703
2.44044
2.3816
2.27086
2.15027
2.0239
1.88241
3.63744
3.39772
3.54762
4.54441
4.04749
3.55136
3.08257
2.69355
2.39468
2.16364
1.9423
1.78292
1.72468
1.92745
2.3116
2.36546
2.28008
2.15568
2.03333
1.92621
3.13245
3.23932
4.29241
4.96393
4.21806
3.64729
3.17318
2.77833
2.45974
2.2153
1.99919
1.79331
1.68412
1.69513
1.99985
2.28376
2.26653
2.15224
2.04954
2.04042
2.49446
3.23904
4.96302
5.16501
4.3617
3.74575
3.2634
2.86543
2.53441
2.27006
2.05193
1.84083
1.66701
1.59638
1.69724
2.05479
2.18769
2.13593
2.08024
2.26546
2.03681
3.63621
5.89716
5.38939
4.51784
3.85472
3.35094
2.94318
2.60001
2.31418
2.07936
1.87239
1.67378
1.56009
1.51398
1.7184
2.05662
2.11854
2.21662
2.60185
1.64331
3.95226
6.6784
5.55174
4.61947
3.92537
3.40436
2.98824
2.63916
2.34272
2.0928
1.88974
1.705
1.5377
1.44207
1.50441
1.80262
2.12962
2.53683
2.84521
1.44621
4.18199
7.40385
5.77479
4.67164
3.94772
3.42381
3.00726
2.65794
2.35891
2.09834
1.89187
1.72454
1.54412
1.38842
1.38451
1.59236
2.21983
2.91914
3.11696
)
;

boundaryField
{
    inlet
    {
        type            calculated;
        value           uniform 1.39997;
    }
    outlet
    {
        type            calculated;
        value           nonuniform List<scalar> 
20
(
1.61408
1.62515
1.64677
1.6786
1.72181
1.76212
1.79158
1.81295
1.82834
1.83933
1.85108
1.85498
1.86293
1.88285
1.92712
2.04164
2.26751
2.60404
2.84681
3.11774
)
;
    }
    top
    {
        type            symmetryPlane;
    }
    bottom
    {
        type            symmetryPlane;
    }
    step
    {
        type            calculated;
        value           nonuniform List<scalar> 
40
(
5.95352
5.86738
5.79062
5.84851
5.98405
6.02454
5.85479
5.6845
5.6118
5.68394
5.95734
6.1365
6.07245
5.65845
5.19639
4.97571
4.90832
5.08855
6.0163
5.82481
1.08067
0.623667
0.7841
0.966224
1.0202
1.0109
1.39832
2.51309
2.85372
2.79212
2.66306
2.53406
2.42486
2.31091
2.19997
2.09074
1.98117
1.87029
1.77063
1.61432
)
;
    }
    defaultFaces
    {
        type            empty;
    }
}


// ************************************************************************* //
