/*--------------------------------*- C++ -*----------------------------------*\
  =========                 |
  \\      /  F ield         | OpenFOAM: The Open Source CFD Toolbox
   \\    /   O peration     | Website:  https://openfoam.org
    \\  /    A nd           | Version:  6.0
     \\/     M anipulation  |
\*---------------------------------------------------------------------------*/
FoamFile
{
    version     2.0;
    format      ascii;
    class       volScalarField;
    location    "2.9990181";
    object      T;
}
// * * * * * * * * * * * * * * * * * * * * * * * * * * * * * * * * * * * * * //

dimensions      [0 0 0 1 0 0 0];

internalField   nonuniform List<scalar> 
1200
(
1
1
1
1
1
1
1
1
1
1
2.06991
2.69508
2.75245
2.7802
2.78424
2.76466
2.76296
2.79166
2.82957
2.83139
1
1
1
1
1
1
1
1
1
1
2.07802
2.70963
2.7351
2.75452
2.77773
2.79126
2.79771
2.81601
2.81201
2.81456
1
1
1
1
1
1
1
1
1
1
2.07445
2.7133
2.72776
2.72897
2.74656
2.7933
2.82837
2.81812
2.79976
2.79932
1
1
1
1
1
1
1
1
1
1
2.06105
2.70735
2.72331
2.7313
2.75875
2.80065
2.82155
2.80515
2.79451
2.80967
1
1
1
1
1
1
1
1
1
1
2.03666
2.69346
2.73014
2.7611
2.78634
2.79383
2.78654
2.79336
2.80365
2.83489
1
1
1
1
1
1
1
1
1
1
2.01428
2.67983
2.7472
2.77691
2.78532
2.77132
2.76176
2.77318
2.81462
2.84158
1
1
1
1
1
1
1
1
1
1
2.00543
2.68491
2.74872
2.76923
2.76526
2.75161
2.76032
2.79377
2.8255
2.80759
1
1
1
1
1
1
1
1
1
1
1.99791
2.6981
2.73417
2.7377
2.7478
2.75629
2.79651
2.8314
2.81092
2.77297
1
1
1
1
1
1
1
1
1
1
1.96462
2.68682
2.71135
2.71166
2.72527
2.77149
2.82328
2.83303
2.78772
2.75725
1
1
1
1
1
1
1
1
1
1
1.91015
2.65859
2.69136
2.70313
2.75117
2.80338
2.80471
2.77789
2.76448
2.76826
1
1
1
1
1
1
1
1
1
1
1.85455
2.62999
2.69342
2.74898
2.78351
2.78811
2.76442
2.72596
2.74575
2.81994
1
1
1
1
1
1
1
1
1
1
1.80612
2.61113
2.73008
2.77045
2.78048
2.75927
2.7153
2.69782
2.74888
2.85067
1
1
1
1
1
1
1
1
1
1
1.79981
2.62863
2.74122
2.75657
2.74265
2.70965
2.70105
2.71239
2.79301
2.83327
1
1
1
1
1
1
1
1
1
1
1.75537
2.62892
2.72255
2.71241
2.6934
2.69318
2.72304
2.7945
2.79373
2.75143
1
1
1
1
1
1
1
1
1
1
1.68718
2.58796
2.69562
2.66713
2.66472
2.69008
2.79916
2.82092
2.76388
2.65524
1
1
1
1
1
1
1
1
1
1
1.57857
2.53764
2.65064
2.65568
2.68054
2.77363
2.79383
2.79609
2.69833
2.60291
1
1
1
1
1
1
1
1
1
1
1.46966
2.47443
2.62824
2.67439
2.76158
2.77777
2.7669
2.74366
2.64523
2.58342
1
1
1
1
1
1
1
1
1
1
1.36609
2.41687
2.63567
2.72405
2.7625
2.7538
2.69768
2.61768
2.63264
2.60697
1
1
1
1
1
1
1
1
1
1
1.29532
2.4179
2.70055
2.722
2.72568
2.69907
2.60546
2.58093
2.6425
2.79846
1
1
1
1
1
1
1
1
1
1
1.17426
2.41326
2.70092
2.68421
2.68389
2.612
2.58589
2.59189
2.70435
2.78356
1
1
1
1
1
1
1
1
1
1
1.0128
2.24165
2.63683
2.62684
2.62641
2.65796
2.69577
2.69333
2.63294
2.55017
1
1
1
1
1
1
1
1
1
1
1.00002
1.90586
2.55775
2.61623
2.63337
2.63589
2.62309
2.59063
2.52192
2.41338
1
1
1
1
1
1
1
1
1
1
1
1.36001
2.38671
2.58828
2.57866
2.5699
2.55055
2.51836
2.46349
2.37317
1
1
1
1
1
1
1
1
1
1
1
1.02474
2.09421
2.52025
2.52293
2.52187
2.50693
2.47489
2.40691
2.32668
1
1
1
1
1
1
1
1
1
1
1
1.00008
1.41454
2.31879
2.48683
2.47603
2.45557
2.42144
2.36826
2.30377
1
1
1
1
1
1
1
1
1
1
1
0.999999
1.0271
1.9978
2.42866
2.42295
2.4013
2.37472
2.33578
2.28229
1
1
1
1
1
1
1
1
1
1
1
1
1.00009
1.27563
2.17074
2.37899
2.35569
2.33566
2.30076
2.25705
1
1
1
1
1
1
1
1
1
1
1
1
1
1.01028
1.60146
2.21921
2.32773
2.29805
2.26373
2.2299
1
1
1
1
1
1
1
1
1
1
1
1
1
1.00003
1.07344
1.85641
2.26492
2.25697
2.22834
2.20307
1
1
1
1
1
1
1
1
1
1
1
1
1
1
1.00085
1.22125
1.95975
2.21474
2.19668
2.17361
1
1
1
1
1
1
1
1
1
1
1
1
1
1
1
1.00694
1.34671
1.98016
2.1602
2.14413
1
1
1
1
1
1
1
1
1
1
1
1
1
1
1
1.00003
1.01973
1.43598
1.96565
2.10788
1
1
1
1
1
1
1
1
1
1
1
1
1
1
1
1
1.00013
1.03701
1.46839
1.95799
1
1
1
1
1
1
1
1
1
1
1
1
1
1
1
1
1
1.00038
1.04823
1.57934
1
1
1
1
1
1
1
1
1
1
1
1
1
1
1
1
1
1
1.00052
1.08999
1
1
1
1
1
1
1
1
1
1
1
1
1
1
1
1
1
1
1
1.00133
1
1
1
1
1
1
1
1
1
1
1
1
1
1
1
1
1
1
1
1
1
1
1
1
1
1
1
1
1
1
1
1
1
1
1
1
1
1
1
1
1
1
1
1
1
1
1
1
1
1
1
1
1
1
1
1
1
1
1
1
1
1
1
1
1
1
1
1
1
1
1
1
1
1
1
1
1
1
1
1
1.72536
1.60125
1.72846
1.85917
1.85477
1.8282
2.16174
2.76105
2.74939
2.69957
2.61781
2.53663
2.46268
2.38634
2.31008
2.23683
2.16896
2.10808
2.06036
1.99564
2.06063
1.69292
1.69184
1.74327
1.78112
1.77945
2.07308
2.6554
2.68772
2.63897
2.56778
2.49697
2.42392
2.35565
2.28471
2.21746
2.15531
2.09882
2.05352
1.9904
2.05167
1.68984
1.6035
1.60766
1.65855
1.6925
1.92883
2.45653
2.54863
2.51292
2.46265
2.40524
2.34811
2.29023
2.23011
2.17233
2.11693
2.06544
2.02442
1.96695
2.06365
1.73645
1.59685
1.52724
1.54428
1.6024
1.85498
2.2127
2.40831
2.37438
2.33573
2.29271
2.24602
2.19998
2.1538
2.10812
2.06186
2.01645
1.97832
1.92421
2.08739
1.78923
1.6212
1.49034
1.4964
1.58325
1.84713
2.02437
2.25828
2.30144
2.24609
2.20499
2.16345
2.12075
2.078
2.03724
1.99766
1.95913
1.92586
1.8752
2.09839
1.84306
1.67853
1.50952
1.49347
1.64279
1.87885
1.90812
2.10633
2.2251
2.19231
2.1504
2.10779
2.06437
2.02189
1.98244
1.94484
1.90841
1.87712
1.82842
2.09565
1.8922
1.73244
1.55034
1.50526
1.74999
1.91467
1.89139
1.93984
2.12287
2.1544
2.11107
2.06864
2.02625
1.98402
1.94381
1.90533
1.86824
1.8369
1.7885
2.08713
1.93008
1.77216
1.59699
1.57745
1.8457
1.92169
1.878
1.82301
1.97118
2.0892
2.07232
2.03345
1.99342
1.95259
1.91264
1.87407
1.83658
1.80527
1.75689
2.07559
1.95819
1.79413
1.64807
1.71103
1.93507
1.9173
1.85865
1.78575
1.81115
1.97106
2.02641
2.00016
1.96446
1.92376
1.88414
1.84624
1.80954
1.77889
1.73108
2.06258
1.97146
1.80348
1.69752
1.88161
1.98671
1.92136
1.84208
1.76298
1.71751
1.81568
1.94793
1.96785
1.93499
1.89425
1.85553
1.8189
1.78401
1.75458
1.70771
2.05278
1.96844
1.80723
1.7639
2.02798
2.01004
1.92364
1.83074
1.74739
1.68314
1.68463
1.82343
1.91177
1.89384
1.86004
1.82464
1.78997
1.75788
1.73087
1.68601
2.04244
1.95367
1.8207
1.86453
2.09913
2.02381
1.92098
1.82414
1.74056
1.66536
1.61841
1.67488
1.82309
1.85224
1.82662
1.79568
1.76305
1.73155
1.7035
1.66101
2.02858
1.93011
1.83733
2.01538
2.13684
2.0395
1.92359
1.82191
1.73829
1.65773
1.59569
1.56829
1.68334
1.78853
1.79034
1.7662
1.73458
1.70382
1.6743
1.63503
1.99629
1.92832
1.87222
2.16406
2.15368
2.05085
1.92935
1.82163
1.7341
1.65336
1.57759
1.52561
1.54887
1.67196
1.73541
1.72579
1.70074
1.67206
1.64124
1.61025
1.95248
1.91252
1.97616
2.27199
2.16931
2.05259
1.93252
1.82266
1.72921
1.64934
1.56871
1.50301
1.46665
1.53244
1.65917
1.68592
1.66674
1.63866
1.60927
1.59432
1.86233
1.88327
2.17038
2.33495
2.18075
2.04918
1.92865
1.81838
1.72048
1.63861
1.56061
1.48428
1.43697
1.42622
1.53323
1.62402
1.62957
1.60479
1.5799
1.60102
1.62439
1.85399
2.36687
2.35289
2.17798
2.03616
1.91554
1.80753
1.7103
1.62692
1.55319
1.47898
1.414
1.37782
1.41279
1.53113
1.57906
1.56749
1.56046
1.63906
1.28707
1.87224
2.48556
2.35634
2.16753
2.01882
1.89879
1.79478
1.70087
1.61727
1.54375
1.47409
1.40484
1.35905
1.33629
1.41057
1.52469
1.53956
1.57522
1.70438
1.07574
1.84525
2.4828
2.31102
2.14165
2.00026
1.88467
1.78505
1.69516
1.61293
1.53837
1.47272
1.40919
1.34728
1.30775
1.32763
1.43245
1.53093
1.63845
1.72655
1.01244
1.87683
2.53009
2.30639
2.12688
1.99027
1.87929
1.78265
1.69502
1.6137
1.53736
1.47172
1.41359
1.34778
1.29202
1.27863
1.35537
1.5548
1.72749
1.78043
)
;

boundaryField
{
    inlet
    {
        type            fixedValue;
        value           uniform 1;
    }
    outlet
    {
        type            inletOutlet;
        inletValue      uniform 1;
        value           nonuniform List<scalar> 
20
(
1.99594
1.99069
1.9675
1.92455
1.87521
1.82833
1.7884
1.75684
1.73109
1.70771
1.68595
1.66094
1.63491
1.60988
1.59358
1.60006
1.63758
1.70295
1.72558
1.77998
)
;
    }
    top
    {
        type            symmetryPlane;
    }
    bottom
    {
        type            symmetryPlane;
    }
    step
    {
        type            zeroGradient;
    }
    defaultFaces
    {
        type            empty;
    }
}


// ************************************************************************* //
