/*--------------------------------*- C++ -*----------------------------------*\
  =========                 |
  \\      /  F ield         | OpenFOAM: The Open Source CFD Toolbox
   \\    /   O peration     | Website:  https://openfoam.org
    \\  /    A nd           | Version:  6.0
     \\/     M anipulation  |
\*---------------------------------------------------------------------------*/
FoamFile
{
    version     2.0;
    format      ascii;
    class       volVectorField;
    location    "2.9990181";
    object      U;
}
// * * * * * * * * * * * * * * * * * * * * * * * * * * * * * * * * * * * * * //

dimensions      [0 1 -1 0 0 0 0];

internalField   nonuniform List<vector> 
1200
(
(3 1.67942e-16 0)
(3 -7.84943e-17 0)
(3 -6.82202e-16 0)
(3 -1.96826e-16 0)
(3 -2.78796e-16 0)
(3 1.51262e-16 0)
(3 -3.90991e-16 0)
(3 -4.19383e-16 0)
(3 -7.84775e-16 0)
(3 -1.19043e-15 0)
(1.42249 0.0172738 0)
(0.723568 0.0222541 0)
(0.651135 0.0123112 0)
(0.583676 -0.00656296 0)
(0.501314 -0.0131318 0)
(0.407243 0.00672654 0)
(0.300559 0.0268217 0)
(0.234774 0.0412088 0)
(0.159708 0.0269183 0)
(0.0522763 0.00902774 0)
(3 1.73754e-16 0)
(3 -2.4041e-16 0)
(3 -3.48682e-16 0)
(3 1.86422e-17 0)
(3 -1.18576e-16 0)
(3 -1.20678e-16 0)
(3 -4.87502e-16 0)
(3 1.03056e-16 0)
(3 1.10596e-16 0)
(3 -6.59818e-16 0)
(1.42445 0.0429231 0)
(0.728194 0.04452 0)
(0.644797 0.0510843 0)
(0.570228 0.0269892 0)
(0.494033 -0.012468 0)
(0.410783 -0.0253005 0)
(0.332758 0.0321071 0)
(0.243709 0.0888225 0)
(0.149212 0.0869839 0)
(0.0558178 0.0452955 0)
(3 2.93256e-16 0)
(3 -8.99087e-17 0)
(3 3.23869e-16 0)
(3 -3.26129e-17 0)
(3 1.58141e-17 0)
(3 -3.90419e-16 0)
(3 -4.24707e-16 0)
(3 -2.83398e-16 0)
(3 -2.42382e-17 0)
(3 1.25421e-16 0)
(1.44035 0.051968 0)
(0.732353 0.0524405 0)
(0.635687 0.0505131 0)
(0.556337 0.0462419 0)
(0.475399 0.0392222 0)
(0.419632 0.0484836 0)
(0.345162 0.0809112 0)
(0.246861 0.0972546 0)
(0.131689 0.080178 0)
(0.0466332 0.0772198 0)
(3 1.76806e-16 0)
(3 -3.85398e-16 0)
(3 -3.46794e-16 0)
(3 -4.73209e-16 0)
(3 -4.36356e-16 0)
(3 -4.22157e-16 0)
(3 -4.99858e-16 0)
(3 -1.24074e-15 0)
(3 -8.82528e-16 0)
(3 -6.41678e-16 0)
(1.46097 0.0640146 0)
(0.731912 0.056128 0)
(0.633844 0.0611412 0)
(0.557558 0.0707506 0)
(0.484837 0.107605 0)
(0.420219 0.128086 0)
(0.343584 0.0997395 0)
(0.241361 0.0784655 0)
(0.130272 0.0900865 0)
(0.0476566 0.106078 0)
(3 -5.38417e-16 0)
(3 2.71552e-16 0)
(3 1.24771e-16 0)
(3 1.74681e-16 0)
(3 1.48563e-16 0)
(3 -2.86887e-17 0)
(3 -4.71618e-16 0)
(3 -1.36904e-15 0)
(3 -1.37826e-15 0)
(3 -1.41145e-15 0)
(1.48645 0.0774339 0)
(0.724415 0.0643704 0)
(0.640811 0.0722572 0)
(0.572313 0.11881 0)
(0.496807 0.157669 0)
(0.410564 0.172572 0)
(0.326123 0.135013 0)
(0.238735 0.0835787 0)
(0.144551 0.102317 0)
(0.0550358 0.162197 0)
(3 -1.43012e-16 0)
(3 2.10047e-16 0)
(3 3.67956e-16 0)
(3 8.68377e-16 0)
(3 5.25561e-16 0)
(3 -1.72216e-16 0)
(3 -6.90525e-16 0)
(3 -6.14418e-16 0)
(3 -7.61022e-16 0)
(3 -1.18378e-15 0)
(1.5133 0.0990856 0)
(0.72558 0.0850767 0)
(0.652345 0.122598 0)
(0.582806 0.14595 0)
(0.501267 0.163965 0)
(0.411115 0.159427 0)
(0.305471 0.139662 0)
(0.226979 0.134273 0)
(0.164627 0.18498 0)
(0.0619963 0.20519 0)
(3 1.24143e-16 0)
(3 -1.89079e-17 0)
(3 6.66384e-16 0)
(3 6.1647e-16 0)
(3 -3.41567e-16 0)
(3 -8.78523e-16 0)
(3 -2.28065e-16 0)
(3 -5.28391e-18 0)
(3 -3.89642e-16 0)
(3 -5.85459e-16 0)
(1.54236 0.133052 0)
(0.744028 0.126501 0)
(0.655227 0.16075 0)
(0.58255 0.153233 0)
(0.499964 0.137413 0)
(0.407705 0.137785 0)
(0.308933 0.161505 0)
(0.25 0.228122 0)
(0.168482 0.258253 0)
(0.06357 0.229442 0)
(3 1.07891e-16 0)
(3 -1.16323e-16 0)
(3 -1.31448e-17 0)
(3 -2.16768e-16 0)
(3 -4.29854e-16 0)
(3 -1.13838e-15 0)
(3 -1.24609e-16 0)
(3 -4.5041e-16 0)
(3 -1.13502e-15 0)
(3 -5.69541e-16 0)
(1.58345 0.166471 0)
(0.757532 0.163737 0)
(0.649986 0.180372 0)
(0.572726 0.161553 0)
(0.492253 0.127638 0)
(0.414058 0.127939 0)
(0.343323 0.2221 0)
(0.253486 0.294635 0)
(0.153007 0.284501 0)
(0.0548185 0.209269 0)
(3 1.20005e-16 0)
(3 -3.97625e-16 0)
(3 -6.17842e-16 0)
(3 -6.70833e-16 0)
(3 -7.41106e-16 0)
(3 -6.14702e-16 0)
(3 -5.08141e-16 0)
(3 -8.70898e-16 0)
(3 -1.27387e-15 0)
(3 -8.01279e-16 0)
(1.64673 0.181542 0)
(0.763975 0.181855 0)
(0.650045 0.16993 0)
(0.564333 0.160741 0)
(0.481829 0.167876 0)
(0.435216 0.219031 0)
(0.366779 0.270731 0)
(0.260549 0.303918 0)
(0.132009 0.264887 0)
(0.0501506 0.218793 0)
(3 1.02662e-16 0)
(3 -1.78841e-17 0)
(3 -5.3966e-16 0)
(3 -5.52565e-16 0)
(3 -9.14168e-16 0)
(3 3.88996e-17 0)
(3 -4.20197e-16 0)
(3 -1.43564e-16 0)
(3 -3.65167e-18 0)
(3 1.63784e-16 0)
(1.72437 0.186852 0)
(0.767009 0.182132 0)
(0.644142 0.164082 0)
(0.56947 0.180437 0)
(0.510585 0.248821 0)
(0.445819 0.300313 0)
(0.369707 0.301942 0)
(0.258702 0.282633 0)
(0.112166 0.266824 0)
(0.0549627 0.271544 0)
(3 3.14907e-16 0)
(3 1.81153e-16 0)
(3 8.98271e-17 0)
(3 -3.86629e-16 0)
(3 -3.8063e-16 0)
(3 -8.01708e-16 0)
(3 -5.26753e-16 0)
(3 5.99844e-16 0)
(3 1.28333e-15 0)
(3 1.15135e-15 0)
(1.80298 0.183107 0)
(0.754829 0.169902 0)
(0.651211 0.177643 0)
(0.595066 0.256122 0)
(0.525678 0.318405 0)
(0.440474 0.340332 0)
(0.364201 0.306991 0)
(0.24925 0.246594 0)
(0.128676 0.304902 0)
(0.0698814 0.408993 0)
(3 -4.37445e-17 0)
(3 4.14008e-16 0)
(3 1.94597e-16 0)
(3 -2.13958e-16 0)
(3 2.15547e-16 0)
(3 -1.39941e-16 0)
(3 -1.31235e-16 0)
(3 1.37848e-16 0)
(3 8.43874e-16 0)
(3 2.29562e-16 0)
(1.86882 0.20579 0)
(0.762615 0.197203 0)
(0.672947 0.267545 0)
(0.611232 0.296585 0)
(0.537502 0.316456 0)
(0.450427 0.310926 0)
(0.3362 0.265112 0)
(0.253849 0.273433 0)
(0.181008 0.370814 0)
(0.0880293 0.5032 0)
(3 -3.2112e-16 0)
(3 8.14962e-17 0)
(3 -4.18478e-16 0)
(3 -4.26948e-16 0)
(3 2.95193e-16 0)
(3 6.74508e-16 0)
(3 -1.11071e-16 0)
(3 2.70952e-16 0)
(3 2.09099e-16 0)
(3 -4.48639e-16 0)
(1.93261 0.257841 0)
(0.801707 0.269465 0)
(0.67915 0.317911 0)
(0.609208 0.317732 0)
(0.536398 0.287524 0)
(0.434714 0.252976 0)
(0.339442 0.272777 0)
(0.27814 0.32192 0)
(0.229203 0.484482 0)
(0.0987519 0.527712 0)
(3 3.12076e-16 0)
(3 3.51466e-17 0)
(3 -1.55179e-16 0)
(3 -5.03275e-16 0)
(3 6.78553e-17 0)
(3 6.53406e-16 0)
(3 9.21552e-16 0)
(3 3.57391e-16 0)
(3 2.54721e-16 0)
(3 -3.46902e-16 0)
(2.04222 0.291251 0)
(0.830968 0.329376 0)
(0.675805 0.342915 0)
(0.60805 0.307002 0)
(0.518911 0.252783 0)
(0.441569 0.267002 0)
(0.37076 0.340907 0)
(0.312168 0.49322 0)
(0.243913 0.532633 0)
(0.101587 0.481913 0)
(3 2.05317e-16 0)
(3 -2.54094e-16 0)
(3 5.68721e-16 0)
(3 1.21696e-15 0)
(3 -3.08027e-17 0)
(3 2.30736e-16 0)
(3 1.22152e-15 0)
(3 8.42176e-16 0)
(3 9.68085e-16 0)
(3 6.04941e-16 0)
(2.17652 0.291844 0)
(0.858858 0.344646 0)
(0.679223 0.316313 0)
(0.589731 0.265638 0)
(0.517705 0.271969 0)
(0.468959 0.30767 0)
(0.429816 0.492716 0)
(0.324135 0.570676 0)
(0.231162 0.559005 0)
(0.0863166 0.432731 0)
(3 -4.85724e-16 0)
(3 1.18906e-19 0)
(3 4.42447e-16 0)
(3 1.38303e-15 0)
(3 1.30443e-15 0)
(3 3.12987e-16 0)
(3 4.2717e-16 0)
(3 5.50137e-16 0)
(3 8.13242e-16 0)
(3 1.22415e-15 0)
(2.33952 0.275507 0)
(0.873199 0.340218 0)
(0.661873 0.264982 0)
(0.598281 0.267555 0)
(0.544927 0.3138 0)
(0.516308 0.468339 0)
(0.457188 0.54308 0)
(0.330885 0.60124 0)
(0.19042 0.539867 0)
(0.0849339 0.435398 0)
(3 -7.08888e-17 0)
(3 4.59296e-16 0)
(3 -3.4151e-16 0)
(3 3.08716e-16 0)
(3 1.1889e-15 0)
(3 8.41011e-16 0)
(3 4.45577e-16 0)
(3 1.45438e-16 0)
(3 8.08515e-16 0)
(3 8.02184e-16 0)
(2.49687 0.241084 0)
(0.883976 0.316923 0)
(0.662945 0.277169 0)
(0.627092 0.315847 0)
(0.595591 0.462295 0)
(0.533403 0.515697 0)
(0.48251 0.539593 0)
(0.34155 0.568764 0)
(0.14242 0.531791 0)
(0.0944784 0.483276 0)
(3 5.1675e-16 0)
(3 3.89133e-16 0)
(3 -1.17671e-16 0)
(3 -7.83675e-17 0)
(3 5.99553e-16 0)
(3 3.45123e-16 0)
(3 -1.55946e-16 0)
(3 -2.59073e-16 0)
(3 6.36788e-16 0)
(3 2.19709e-16 0)
(2.66444 0.248118 0)
(0.911868 0.330308 0)
(0.713501 0.332297 0)
(0.698498 0.446441 0)
(0.629885 0.494845 0)
(0.554327 0.520106 0)
(0.480223 0.49891 0)
(0.35066 0.459803 0)
(0.141663 0.58231 0)
(0.104978 0.65202 0)
(3 -5.45792e-17 0)
(3 -3.47686e-16 0)
(3 -1.99331e-16 0)
(3 -2.02804e-16 0)
(3 1.25745e-16 0)
(3 -1.22502e-16 0)
(3 -1.04757e-15 0)
(3 7.5087e-17 0)
(3 1.39773e-16 0)
(3 -1.00403e-15 0)
(2.84465 0.223371 0)
(1.00353 0.433697 0)
(0.795815 0.461515 0)
(0.753067 0.490285 0)
(0.664272 0.515347 0)
(0.577092 0.49371 0)
(0.474012 0.394752 0)
(0.398144 0.466858 0)
(0.26136 0.714707 0)
(0.173651 1.03342 0)
(3 -2.7346e-16 0)
(3 -2.2425e-16 0)
(3 -3.82428e-16 0)
(3 6.57124e-17 0)
(3 1.30936e-16 0)
(3 1.21037e-16 0)
(3 3.74765e-16 0)
(3 -2.07499e-16 0)
(3 3.38109e-17 0)
(3 -3.9704e-16 0)
(3.02036 0.137449 0)
(1.11908 0.502532 0)
(0.830075 0.490416 0)
(0.79099 0.493305 0)
(0.707997 0.448269 0)
(0.598882 0.385515 0)
(0.52634 0.416229 0)
(0.496028 0.527567 0)
(0.489289 0.862614 0)
(0.279258 1.21366 0)
(3 -2.10434e-17 0)
(3 7.82389e-18 0)
(3 1.40161e-16 0)
(3 -6.14671e-17 0)
(3 -6.45243e-16 0)
(3 -4.02162e-16 0)
(3 -4.16675e-16 0)
(3 -8.46442e-16 0)
(3 -7.69167e-16 0)
(3 -1.09121e-16 0)
(3.02479 0.00923054 0)
(1.28913 0.456745 0)
(0.848539 0.454639 0)
(0.793362 0.455777 0)
(0.732732 0.466518 0)
(0.695903 0.520866 0)
(0.672375 0.624651 0)
(0.646455 0.746912 0)
(0.693652 0.875581 0)
(0.776523 1.08045 0)
(3 5.21807e-17 0)
(3 -2.13692e-17 0)
(3 -7.17391e-17 0)
(3 -5.38618e-16 0)
(3 -8.46263e-16 0)
(3 -6.56594e-16 0)
(3 -6.83049e-16 0)
(3 -5.20665e-16 0)
(3 -2.60185e-16 0)
(3 -3.9341e-16 0)
(3.00027 9.54828e-06 0)
(1.81052 0.450981 0)
(0.882781 0.516095 0)
(0.826139 0.541016 0)
(0.810973 0.590276 0)
(0.788677 0.632446 0)
(0.776478 0.679244 0)
(0.779019 0.764027 0)
(0.865933 0.870024 0)
(1.1057 0.953363 0)
(3 7.43088e-18 0)
(3 -6.88354e-17 0)
(3 -1.1871e-17 0)
(3 2.29924e-16 0)
(3 3.18865e-16 0)
(3 3.29506e-17 0)
(3 5.84878e-17 0)
(3 1.06162e-16 0)
(3 -3.32762e-16 0)
(3 -4.46835e-16 0)
(3 -9.77514e-09 0)
(2.73673 0.266785 0)
(1.10256 0.618265 0)
(0.914138 0.592975 0)
(0.883337 0.617938 0)
(0.862476 0.6522 0)
(0.867717 0.706164 0)
(0.916749 0.786462 0)
(1.0359 0.874345 0)
(1.23076 0.940155 0)
(3 -7.4274e-17 0)
(3 -4.52186e-17 0)
(3 6.6962e-17 0)
(3 4.52688e-16 0)
(3 3.52609e-16 0)
(3 1.73945e-16 0)
(3 7.75805e-19 0)
(3 -3.59636e-16 0)
(3 -8.80897e-16 0)
(3 -8.91549e-16 0)
(3 -7.69312e-09 0)
(3.04484 0.0148893 0)
(1.59087 0.628586 0)
(1.00356 0.67117 0)
(0.950933 0.67388 0)
(0.952075 0.707591 0)
(0.97814 0.7526 0)
(1.03338 0.801133 0)
(1.13729 0.848617 0)
(1.3037 0.890985 0)
(3 -9.06303e-17 0)
(3 9.23419e-17 0)
(3 1.05653e-16 0)
(3 -9.33931e-17 0)
(3 3.27896e-18 0)
(3 1.52299e-16 0)
(3 1.22802e-16 0)
(3 -4.14679e-16 0)
(3 -6.35938e-16 0)
(3 -1.02368e-16 0)
(3 -8.85434e-10 0)
(3.00096 0.00022546 0)
(2.67181 0.351009 0)
(1.21345 0.733218 0)
(1.04452 0.732791 0)
(1.06685 0.738826 0)
(1.0789 0.76485 0)
(1.12401 0.793205 0)
(1.21741 0.827031 0)
(1.35462 0.854209 0)
(3 3.6385e-17 0)
(3 9.83848e-17 0)
(3 1.08782e-16 0)
(3 -9.04049e-17 0)
(3 9.3322e-17 0)
(3 8.04063e-18 0)
(3 -1.20429e-16 0)
(3 -8.23736e-17 0)
(3 5.97877e-17 0)
(3 7.867e-16 0)
(3 -1.54376e-11 0)
(3 -6.99545e-07 0)
(3.03921 0.0150972 0)
(1.75695 0.689143 0)
(1.14551 0.796776 0)
(1.15059 0.789877 0)
(1.16123 0.797104 0)
(1.20797 0.812337 0)
(1.28773 0.829685 0)
(1.39242 0.84048 0)
(3 2.42792e-17 0)
(3 4.41452e-17 0)
(3 -1.22471e-16 0)
(3 6.38023e-17 0)
(3 3.3853e-16 0)
(3 4.47755e-16 0)
(3 1.8443e-16 0)
(3 4.23297e-16 0)
(3 4.20174e-16 0)
(3 3.82797e-16 0)
(3 -8.09863e-14 0)
(3 -4.22798e-07 0)
(3.00081 0.000329173 0)
(2.86238 0.250816 0)
(1.49041 0.827318 0)
(1.2103 0.830643 0)
(1.24683 0.825035 0)
(1.28468 0.832135 0)
(1.34775 0.835358 0)
(1.42793 0.830866 0)
(3 -1.53359e-17 0)
(3 -7.31968e-17 0)
(3 -2.39002e-16 0)
(3 -1.20435e-16 0)
(3 -2.09915e-17 0)
(3 1.39506e-17 0)
(3 1.72076e-16 0)
(3 4.19823e-16 0)
(3 4.38982e-16 0)
(3 -1.17182e-17 0)
(3 -4.79855e-16 0)
(3 -1.93068e-08 0)
(3 3.12938e-07 0)
(3.01109 0.010233 0)
(2.40085 0.568737 0)
(1.36374 0.873143 0)
(1.30033 0.86971 0)
(1.35446 0.860016 0)
(1.40304 0.851473 0)
(1.46569 0.839201 0)
(3 9.71972e-17 0)
(3 1.86688e-16 0)
(3 3.96749e-16 0)
(3 2.62278e-16 0)
(3 1.75218e-17 0)
(3 1.17434e-17 0)
(3 -1.30867e-16 0)
(3 -4.64236e-16 0)
(3 -4.52893e-16 0)
(3 -5.85209e-16 0)
(3 -2.83589e-16 0)
(3 -6.40328e-10 0)
(3 -1.19413e-09 0)
(3.00006 0.00011876 0)
(3.01102 0.0598895 0)
(1.96399 0.742765 0)
(1.38982 0.888085 0)
(1.40555 0.88804 0)
(1.45538 0.876755 0)
(1.50788 0.861678 0)
(3 1.96978e-17 0)
(3 2.4384e-16 0)
(3 2.7183e-16 0)
(3 3.9053e-19 0)
(3 -1.53719e-16 0)
(3 -2.30229e-17 0)
(3 -1.0353e-16 0)
(3 -2.51468e-16 0)
(3 -4.68477e-16 0)
(3 -5.15296e-16 0)
(3 -2.83132e-16 0)
(3 -7.19452e-12 0)
(3 -3.07313e-10 0)
(3 5.06057e-08 0)
(3.00098 0.0019905 0)
(2.88577 0.206441 0)
(1.80575 0.828951 0)
(1.46362 0.91158 0)
(1.49697 0.906582 0)
(1.5502 0.887263 0)
(3 -2.21325e-16 0)
(3 -6.24529e-16 0)
(3 -5.53592e-16 0)
(3 -2.57616e-16 0)
(3 -5.37979e-16 0)
(3 -7.76561e-16 0)
(3 -8.25596e-16 0)
(3 -6.20902e-16 0)
(3 -3.63266e-16 0)
(3 -7.51972e-17 0)
(3 -1.45937e-16 0)
(3 -1.3588e-14 0)
(3 -2.12692e-11 0)
(3 -1.54903e-11 0)
(3 4.10986e-06 0)
(3.00168 0.0106579 0)
(2.72234 0.348085 0)
(1.76908 0.871194 0)
(1.5412 0.928747 0)
(1.57772 0.91941 0)
(3 1.62694e-17 0)
(3 -2.10627e-16 0)
(3 -1.40214e-16 0)
(3 1.11181e-16 0)
(3 1.62761e-16 0)
(3 -9.8027e-17 0)
(3 -9.87195e-17 0)
(3 -3.63464e-17 0)
(3 1.12953e-16 0)
(3 -9.29005e-17 0)
(3 -1.09218e-16 0)
(3 -5.4184e-17 0)
(3 -2.59601e-13 0)
(3 -4.63324e-12 0)
(3 1.10224e-09 0)
(3 7.26026e-05 0)
(2.99739 0.0244041 0)
(2.58433 0.453555 0)
(1.7933 0.89542 0)
(1.61464 0.936282 0)
(3 1.19136e-16 0)
(3 2.65502e-16 0)
(3 -7.46793e-17 0)
(3 -4.10172e-16 0)
(3 1.56074e-16 0)
(3 1.43327e-16 0)
(3 2.69062e-16 0)
(3 4.57287e-16 0)
(3 2.2415e-16 0)
(3 -3.88041e-18 0)
(3 -2.74449e-16 0)
(3 -9.06076e-18 0)
(3 -7.05106e-16 0)
(3 -4.98616e-13 0)
(3 -4.13694e-13 0)
(3 4.58934e-08 0)
(2.99998 0.000312322 0)
(2.9824 0.0456957 0)
(2.56418 0.503879 0)
(1.78209 0.908505 0)
(3 -1.02224e-16 0)
(3 -3.68736e-17 0)
(3 -7.96196e-17 0)
(3 -3.55104e-17 0)
(3 -1.46839e-17 0)
(3 -2.65972e-16 0)
(3 -2.69732e-16 0)
(3 -7.79851e-17 0)
(3 5.76016e-17 0)
(3 2.70075e-16 0)
(3 1.21809e-16 0)
(3 -2.35919e-16 0)
(3 -4.45535e-16 0)
(3 -8.31243e-15 0)
(3 -1.14173e-13 0)
(3 8.77041e-12 0)
(3 2.7236e-07 0)
(2.99979 0.000983831 0)
(2.99257 0.0471995 0)
(2.38699 0.62122 0)
(3 -2.49414e-17 0)
(3 4.03752e-17 0)
(3 2.73036e-16 0)
(3 1.52802e-16 0)
(3 7.90824e-18 0)
(3 2.19375e-16 0)
(3 6.53997e-16 0)
(3 4.74094e-16 0)
(3 2.71562e-18 0)
(3 -7.75914e-17 0)
(3 1.72776e-16 0)
(3 -1.04899e-16 0)
(3 -6.94391e-16 0)
(3 -2.10111e-16 0)
(3 -1.20203e-14 0)
(3 -1.21799e-14 0)
(3 9.27784e-11 0)
(3 1.17299e-06 0)
(2.99996 0.00139731 0)
(2.98396 0.0791698 0)
(3 1.16266e-16 0)
(3 1.54612e-16 0)
(3 2.15383e-17 0)
(3 -1.93289e-16 0)
(3 -1.69867e-16 0)
(3 3.45873e-16 0)
(3 8.34764e-16 0)
(3 5.1769e-16 0)
(3 1.49221e-16 0)
(3 -5.60499e-17 0)
(3 -9.4394e-17 0)
(3 1.71333e-16 0)
(3 1.31424e-16 0)
(3 8.98276e-16 0)
(3 1.6275e-15 0)
(3 -2.5702e-15 0)
(3 3.60825e-15 0)
(3 3.66656e-10 0)
(3 4.07956e-06 0)
(3.00229 0.000899795 0)
(3 -5.84099e-17 0)
(3 -4.35077e-17 0)
(3 -1.50456e-17 0)
(3 5.85129e-17 0)
(3 -3.45078e-17 0)
(3 -1.46654e-16 0)
(3 -5.55462e-16 0)
(3 -4.74976e-16 0)
(3 9.68725e-17 0)
(3 7.60946e-16 0)
(3 6.8958e-16 0)
(3 6.01943e-16 0)
(3 1.14756e-15 0)
(3 1.36798e-15 0)
(3 1.8479e-15 0)
(3 6.09669e-16 0)
(3 -3.64102e-16 0)
(3 2.00683e-14 0)
(3 2.63989e-09 0)
(3.00001 4.20085e-07 0)
(3 6.33517e-17 0)
(3 -6.76016e-17 0)
(3 -8.41602e-17 0)
(3 3.65311e-18 0)
(3 -2.91981e-16 0)
(3 -4.25618e-16 0)
(3 -2.20037e-16 0)
(3 9.90367e-17 0)
(3 5.20898e-16 0)
(3 7.82784e-16 0)
(3 9.21081e-16 0)
(3 1.00036e-15 0)
(3 1.04064e-15 0)
(3 9.1041e-16 0)
(3 7.5913e-16 0)
(3 1.17505e-15 0)
(3 1.36439e-15 0)
(3 4.74049e-16 0)
(3 4.89259e-13 0)
(3 -2.69922e-11 0)
(3 3.6194e-18 0)
(3 7.17871e-17 0)
(3 -4.80351e-17 0)
(3 -2.09649e-16 0)
(3 3.30867e-17 0)
(3 2.05132e-16 0)
(3 2.60399e-16 0)
(3 3.17558e-16 0)
(3 7.05188e-16 0)
(3 5.80834e-16 0)
(3 6.00792e-16 0)
(3 8.14235e-16 0)
(3 9.27036e-16 0)
(3 6.93921e-16 0)
(3 3.50058e-16 0)
(3 2.18275e-16 0)
(3 1.16322e-16 0)
(3 2.78727e-16 0)
(3 6.00563e-16 0)
(3 -6.97715e-11 0)
(3 -1.30096e-16 0)
(3 -1.33446e-16 0)
(3 -5.30664e-17 0)
(3 3.51254e-17 0)
(3 1.95856e-16 0)
(3 1.79015e-16 0)
(3 -6.04777e-18 0)
(3 -1.65148e-16 0)
(3 7.39526e-17 0)
(3 1.99505e-16 0)
(3 1.74116e-16 0)
(3 2.80156e-16 0)
(3 2.47868e-16 0)
(3 2.27418e-16 0)
(3 2.38429e-16 0)
(3 3.57263e-17 0)
(3 2.7966e-18 0)
(3 2.68284e-16 0)
(3 3.13196e-16 0)
(3 -8.44779e-12 0)
(1.75433 0.99721 0)
(2.41912 0.220291 0)
(2.36191 -0.0422412 0)
(2.23069 -0.057665 0)
(2.22571 -0.0147639 0)
(2.24136 0.00042321 0)
(1.83782 -0.0258995 0)
(0.972873 -0.0289635 0)
(0.967953 -0.0542698 0)
(1.16295 -0.0554398 0)
(1.36383 -0.0356253 0)
(1.52417 -0.0191884 0)
(1.66434 -0.0112485 0)
(1.77195 0.0010897 0)
(1.85756 0.00310389 0)
(1.93752 0.00602171 0)
(2.00984 0.00951844 0)
(2.07759 0.0113092 0)
(2.13559 0.0125417 0)
(2.23128 0.0138469 0)
(1.84526 0.542318 0)
(2.4328 0.0112318 0)
(2.44184 -0.226655 0)
(2.36578 -0.119131 0)
(2.3037 0.00220494 0)
(2.30454 0.0227191 0)
(2.00245 -0.0858669 0)
(1.18637 -0.0453361 0)
(1.16292 -0.0831327 0)
(1.30309 -0.0586043 0)
(1.4512 -0.0277709 0)
(1.58097 -0.0112921 0)
(1.69832 0.0119752 0)
(1.79066 0.0175218 0)
(1.8753 0.0207362 0)
(1.95333 0.0220531 0)
(2.02576 0.0210129 0)
(2.09437 0.0189099 0)
(2.15326 0.0221418 0)
(2.24827 0.0300601 0)
(1.82291 0.643856 0)
(2.28608 0.345859 0)
(2.48388 -0.0883234 0)
(2.49897 -0.0853278 0)
(2.45009 -0.0266322 0)
(2.43857 0.00336099 0)
(2.17287 -0.294166 0)
(1.5547 -0.0639979 0)
(1.45935 -0.112669 0)
(1.52637 -0.0911864 0)
(1.60927 -0.0675537 0)
(1.69383 -0.035784 0)
(1.77423 -0.0103014 0)
(1.8473 0.0120905 0)
(1.921 0.0266739 0)
(1.99055 0.035452 0)
(2.05722 0.0406349 0)
(2.12252 0.040767 0)
(2.17947 0.0425373 0)
(2.27127 0.04857 0)
(1.78966 0.697153 0)
(2.2275 0.411012 0)
(2.49227 -0.0823526 0)
(2.56641 -0.132583 0)
(2.53943 -0.0964867 0)
(2.54576 -0.0790879 0)
(2.1437 -0.525693 0)
(1.83673 -0.295284 0)
(1.62424 -0.0729671 0)
(1.67275 -0.0811892 0)
(1.73305 -0.0373664 0)
(1.7924 0.00416496 0)
(1.85374 0.0198447 0)
(1.91673 0.0266942 0)
(1.98142 0.0304304 0)
(2.04437 0.0369665 0)
(2.10551 0.0482437 0)
(2.16387 0.0590322 0)
(2.21327 0.0715217 0)
(2.29519 0.0805394 0)
(1.76206 0.719133 0)
(2.15622 0.508253 0)
(2.42431 0.09126 0)
(2.55188 -0.0322286 0)
(2.56133 -0.0705062 0)
(2.57947 -0.141292 0)
(2.08409 -0.635359 0)
(2.00173 -0.549783 0)
(1.73232 -0.173442 0)
(1.72601 -0.0456163 0)
(1.79413 -0.024233 0)
(1.85489 -0.000415832 0)
(1.91609 0.0214409 0)
(1.97771 0.0395776 0)
(2.03851 0.0533426 0)
(2.09677 0.0618226 0)
(2.15306 0.0707882 0)
(2.20703 0.0771567 0)
(2.25245 0.089129 0)
(2.32526 0.102069 0)
(1.73606 0.743221 0)
(2.07074 0.583662 0)
(2.35666 0.179763 0)
(2.52258 0.0756309 0)
(2.57166 -0.107138 0)
(2.45168 -0.293683 0)
(2.01104 -0.702194 0)
(2.0318 -0.705974 0)
(1.88194 -0.319881 0)
(1.76765 -0.0740471 0)
(1.83288 4.76082e-05 0)
(1.89325 0.0292917 0)
(1.95755 0.048473 0)
(2.02209 0.0624845 0)
(2.08334 0.0765136 0)
(2.13909 0.0881042 0)
(2.19147 0.101599 0)
(2.24205 0.11051 0)
(2.2851 0.121706 0)
(2.35377 0.129674 0)
(1.7228 0.76604 0)
(2.01539 0.612735 0)
(2.28215 0.28245 0)
(2.48586 0.187932 0)
(2.51304 -0.0544428 0)
(2.22987 -0.434954 0)
(2.00726 -0.6723 0)
(2.04169 -0.716312 0)
(2.04069 -0.519336 0)
(1.85841 -0.135915 0)
(1.87681 0.00421817 0)
(1.93805 0.0334391 0)
(1.99885 0.0605089 0)
(2.05974 0.0861715 0)
(2.11888 0.105541 0)
(2.17444 0.114619 0)
(2.22634 0.124422 0)
(2.27581 0.130607 0)
(2.31676 0.14256 0)
(2.38131 0.153321 0)
(1.71486 0.79609 0)
(1.97535 0.635008 0)
(2.22682 0.371299 0)
(2.4318 0.313159 0)
(2.38539 -0.0403138 0)
(2.1002 -0.568006 0)
(2.01 -0.704978 0)
(2.05729 -0.696146 0)
(2.12191 -0.623768 0)
(2.05407 -0.305083 0)
(1.94448 -0.0284357 0)
(1.98705 0.0628532 0)
(2.03839 0.0856471 0)
(2.09649 0.106074 0)
(2.15275 0.125917 0)
(2.204 0.139102 0)
(2.25086 0.154397 0)
(2.29618 0.163734 0)
(2.3353 0.176923 0)
(2.40123 0.185335 0)
(1.71086 0.825596 0)
(1.95083 0.652213 0)
(2.19003 0.466245 0)
(2.37768 0.363814 0)
(2.27876 -0.0587399 0)
(2.05528 -0.549119 0)
(2.03454 -0.683982 0)
(2.09201 -0.674054 0)
(2.16746 -0.645256 0)
(2.18752 -0.466015 0)
(2.07987 -0.112522 0)
(2.0464 0.0560233 0)
(2.08547 0.107432 0)
(2.12965 0.131052 0)
(2.17657 0.155577 0)
(2.22427 0.168988 0)
(2.27265 0.181249 0)
(2.32061 0.186092 0)
(2.36063 0.197286 0)
(2.42544 0.20866 0)
(1.71222 0.847745 0)
(1.94057 0.666785 0)
(2.15446 0.567438 0)
(2.3043 0.361662 0)
(2.15832 -0.139002 0)
(2.002 -0.569035 0)
(2.03644 -0.633433 0)
(2.12308 -0.631664 0)
(2.20886 -0.620274 0)
(2.2782 -0.550486 0)
(2.23429 -0.283966 0)
(2.12719 0.0102118 0)
(2.13732 0.119851 0)
(2.16499 0.150027 0)
(2.20867 0.177338 0)
(2.25329 0.191786 0)
(2.29625 0.208565 0)
(2.33632 0.217804 0)
(2.37078 0.2321 0)
(2.43416 0.244725 0)
(1.71289 0.870096 0)
(1.93408 0.689829 0)
(2.12779 0.6558 0)
(2.19359 0.338905 0)
(2.02113 -0.204541 0)
(1.98326 -0.519884 0)
(2.04693 -0.571022 0)
(2.14697 -0.587892 0)
(2.24586 -0.595237 0)
(2.3171 -0.569545 0)
(2.33018 -0.417561 0)
(2.25843 -0.10151 0)
(2.18274 0.121552 0)
(2.19189 0.184001 0)
(2.22923 0.210651 0)
(2.27043 0.224299 0)
(2.31297 0.240459 0)
(2.35626 0.244564 0)
(2.39316 0.255421 0)
(2.45656 0.268578 0)
(1.72171 0.879597 0)
(1.93138 0.719153 0)
(2.12432 0.708817 0)
(2.05097 0.251643 0)
(1.92056 -0.269573 0)
(1.95649 -0.471952 0)
(2.05971 -0.5111 0)
(2.16491 -0.529261 0)
(2.25727 -0.528426 0)
(2.3308 -0.530564 0)
(2.39409 -0.474338 0)
(2.36778 -0.266516 0)
(2.27346 0.0535492 0)
(2.22695 0.207376 0)
(2.24888 0.241646 0)
(2.28668 0.251339 0)
(2.32487 0.269691 0)
(2.36249 0.277837 0)
(2.39711 0.291537 0)
(2.45846 0.304036 0)
(1.74174 0.905945 0)
(1.91817 0.769025 0)
(2.09256 0.686495 0)
(1.94555 0.139558 0)
(1.86859 -0.272503 0)
(1.9459 -0.389924 0)
(2.06581 -0.442644 0)
(2.17748 -0.472307 0)
(2.27031 -0.478256 0)
(2.35996 -0.485846 0)
(2.40101 -0.472707 0)
(2.4425 -0.360115 0)
(2.37646 -0.0771007 0)
(2.29777 0.169506 0)
(2.2855 0.26365 0)
(2.31046 0.281092 0)
(2.34224 0.299227 0)
(2.37821 0.304005 0)
(2.41555 0.322532 0)
(2.47235 0.330862 0)
(1.80632 0.867541 0)
(1.911 0.821707 0)
(2.05464 0.645294 0)
(1.82996 0.0199351 0)
(1.83429 -0.27324 0)
(1.93279 -0.326226 0)
(2.06399 -0.375113 0)
(2.17749 -0.405292 0)
(2.26605 -0.411082 0)
(2.34761 -0.406008 0)
(2.41701 -0.415203 0)
(2.48929 -0.374564 0)
(2.47581 -0.219194 0)
(2.39508 0.0962218 0)
(2.3248 0.281087 0)
(2.33075 0.321107 0)
(2.35954 0.336283 0)
(2.39813 0.335078 0)
(2.43091 0.361834 0)
(2.47834 0.35834 0)
(1.88407 0.79387 0)
(1.92314 0.849132 0)
(1.9488 0.542363 0)
(1.70137 -0.022242 0)
(1.78538 -0.219318 0)
(1.9086 -0.262291 0)
(2.04449 -0.299644 0)
(2.16835 -0.333633 0)
(2.27315 -0.354283 0)
(2.36329 -0.352083 0)
(2.45418 -0.369397 0)
(2.50436 -0.36089 0)
(2.55633 -0.273572 0)
(2.51138 -0.0564757 0)
(2.43883 0.209274 0)
(2.38077 0.339113 0)
(2.38372 0.371214 0)
(2.41081 0.376658 0)
(2.43213 0.405642 0)
(2.48428 0.356422 0)
(2.02848 0.682609 0)
(1.94316 0.911448 0)
(1.67683 0.336257 0)
(1.57014 -0.0434473 0)
(1.74708 -0.177001 0)
(1.90382 -0.219702 0)
(2.04805 -0.247978 0)
(2.1762 -0.273905 0)
(2.28614 -0.291939 0)
(2.38054 -0.290835 0)
(2.46405 -0.289577 0)
(2.53903 -0.29881 0)
(2.60166 -0.272966 0)
(2.60198 -0.149672 0)
(2.55279 0.123374 0)
(2.45774 0.332662 0)
(2.43222 0.400252 0)
(2.44861 0.415073 0)
(2.44519 0.424615 0)
(2.4782 0.342094 0)
(2.19876 0.668702 0)
(1.96512 0.91741 0)
(1.37681 0.18259 0)
(1.49448 -0.057248 0)
(1.71507 -0.137554 0)
(1.90318 -0.169542 0)
(2.05939 -0.188248 0)
(2.19356 -0.207207 0)
(2.31073 -0.227686 0)
(2.41112 -0.234876 0)
(2.49764 -0.234711 0)
(2.58319 -0.243826 0)
(2.63116 -0.245431 0)
(2.68309 -0.175022 0)
(2.66043 -0.0152781 0)
(2.59279 0.257864 0)
(2.482 0.424748 0)
(2.47554 0.463089 0)
(2.47128 0.435411 0)
(2.44997 0.237245 0)
(2.70927 0.425369 0)
(2.0443 0.806451 0)
(1.27086 0.117362 0)
(1.51451 -0.0609186 0)
(1.75545 -0.109371 0)
(1.95424 -0.13759 0)
(2.11097 -0.149759 0)
(2.24097 -0.159428 0)
(2.35273 -0.170287 0)
(2.44922 -0.176893 0)
(2.53319 -0.174756 0)
(2.60437 -0.166217 0)
(2.66962 -0.170938 0)
(2.70678 -0.174419 0)
(2.74584 -0.0682693 0)
(2.69628 0.146009 0)
(2.61706 0.362464 0)
(2.54509 0.46564 0)
(2.50587 0.403853 0)
(2.45051 0.159271 0)
(2.96162 0.141156 0)
(2.15754 0.550649 0)
(1.30361 0.018804 0)
(1.59053 -0.081265 0)
(1.83976 -0.0885848 0)
(2.02812 -0.0916273 0)
(2.17125 -0.0936531 0)
(2.28893 -0.0966812 0)
(2.39009 -0.101744 0)
(2.47754 -0.105413 0)
(2.55419 -0.105147 0)
(2.62404 -0.0955105 0)
(2.69453 -0.10259 0)
(2.73356 -0.127073 0)
(2.79994 -0.0400908 0)
(2.78076 0.0449441 0)
(2.71391 0.291233 0)
(2.61772 0.422741 0)
(2.52795 0.198839 0)
(2.41765 -0.0196977 0)
(2.99113 0.020194 0)
(2.37263 0.324942 0)
(1.36229 0.082867 0)
(1.65879 -0.0148623 0)
(1.90032 -0.0332062 0)
(2.07826 -0.0359093 0)
(2.21536 -0.0364873 0)
(2.32861 -0.0369673 0)
(2.42538 -0.0374074 0)
(2.51107 -0.0388919 0)
(2.58904 -0.0409668 0)
(2.65587 -0.0375213 0)
(2.71566 -0.0347647 0)
(2.78075 -0.0425925 0)
(2.82219 -0.0584383 0)
(2.82519 -0.0201507 0)
(2.75798 0.0737767 0)
(2.60149 0.168552 0)
(2.56898 0.161235 0)
(2.40985 0.0742283 0)
)
;

boundaryField
{
    inlet
    {
        type            fixedValue;
        value           uniform (3 0 0);
    }
    outlet
    {
        type            inletOutlet;
        inletValue      uniform (3 0 0);
        value           nonuniform List<vector> 
20
(
(2.23128 0.0138469 0)
(2.24827 0.0300601 0)
(2.27127 0.04857 0)
(2.29519 0.0805394 0)
(2.32526 0.102069 0)
(2.35377 0.129674 0)
(2.38131 0.153321 0)
(2.40123 0.185335 0)
(2.42544 0.20866 0)
(2.43416 0.244725 0)
(2.45656 0.268578 0)
(2.45846 0.304036 0)
(2.47235 0.330862 0)
(2.47834 0.35834 0)
(2.48428 0.356422 0)
(2.4782 0.342094 0)
(2.44997 0.237245 0)
(2.45051 0.159271 0)
(2.41765 -0.0196977 0)
(2.40985 0.0742283 0)
)
;
    }
    top
    {
        type            symmetryPlane;
    }
    bottom
    {
        type            symmetryPlane;
    }
    step
    {
        type            slip;
    }
    defaultFaces
    {
        type            empty;
    }
}


// ************************************************************************* //
